/*--------------------------------*- C++ -*----------------------------------*\
| =========                 |                                                 |
| \\      /  F ield         | OpenFOAM: The Open Source CFD Toolbox           |
|  \\    /   O peration     | Version:  5.0                                   |
|   \\  /    A nd           | Web:      www.OpenFOAM.org                      |
|    \\/     M anipulation  |                                                 |
\*---------------------------------------------------------------------------*/
FoamFile
{
    version     2.0;
    format      ascii;
    class       volScalarField;
    location    "50";
    object      k;
}
// * * * * * * * * * * * * * * * * * * * * * * * * * * * * * * * * * * * * * //

dimensions      [0 2 -2 0 0 0 0];

internalField   nonuniform List<scalar> 
11644
(
1.99511e-05
1.85069e-05
1.85071e-05
1.85072e-05
1.85072e-05
1.85071e-05
1.85072e-05
1.85069e-05
1.85067e-05
1.85069e-05
1.85067e-05
1.85094e-05
1.85074e-05
1.85061e-05
1.85025e-05
1.85006e-05
1.85117e-05
1.85129e-05
1.85018e-05
1.84891e-05
1.84914e-05
1.85114e-05
1.85098e-05
1.85083e-05
1.85051e-05
1.85074e-05
1.8502e-05
1.8503e-05
1.8505e-05
1.85071e-05
1.85079e-05
1.85071e-05
1.85069e-05
1.85073e-05
1.85072e-05
1.85071e-05
1.85071e-05
1.85071e-05
1.85072e-05
1.99508e-05
1.98554e-05
1.62219e-05
1.62197e-05
1.62197e-05
1.62197e-05
1.62197e-05
1.62197e-05
1.62204e-05
1.62203e-05
1.62199e-05
1.62207e-05
1.62182e-05
1.62165e-05
1.62193e-05
1.62247e-05
1.62273e-05
1.62111e-05
1.62075e-05
1.62299e-05
1.62434e-05
1.62394e-05
1.62108e-05
1.62207e-05
1.62195e-05
1.62233e-05
1.6222e-05
1.62307e-05
1.62306e-05
1.62251e-05
1.62207e-05
1.62192e-05
1.62204e-05
1.62216e-05
1.62206e-05
1.62203e-05
1.62203e-05
1.62202e-05
1.62201e-05
1.62215e-05
1.98576e-05
1.97593e-05
1.44193e-05
1.44156e-05
1.44156e-05
1.44156e-05
1.44156e-05
1.44153e-05
1.44147e-05
1.4415e-05
1.44141e-05
1.44149e-05
1.44135e-05
1.44132e-05
1.44066e-05
1.44053e-05
1.44011e-05
1.4414e-05
1.44179e-05
1.43959e-05
1.43829e-05
1.43878e-05
1.44179e-05
1.44129e-05
1.44195e-05
1.44155e-05
1.44179e-05
1.44116e-05
1.44136e-05
1.44232e-05
1.44243e-05
1.44225e-05
1.44217e-05
1.44193e-05
1.4419e-05
1.44188e-05
1.44184e-05
1.44181e-05
1.44179e-05
1.44221e-05
1.97643e-05
1.96603e-05
1.29648e-05
1.29594e-05
1.29593e-05
1.29591e-05
1.29587e-05
1.29584e-05
1.29573e-05
1.29572e-05
1.29575e-05
1.29521e-05
1.29497e-05
1.29506e-05
1.2958e-05
1.29475e-05
1.2951e-05
1.29347e-05
1.29279e-05
1.29499e-05
1.29735e-05
1.29742e-05
1.29459e-05
1.29536e-05
1.29535e-05
1.29689e-05
1.29685e-05
1.29811e-05
1.29777e-05
1.29641e-05
1.29679e-05
1.29713e-05
1.29694e-05
1.29687e-05
1.29683e-05
1.29672e-05
1.29662e-05
1.29654e-05
1.29648e-05
1.2969e-05
1.96657e-05
1.95632e-05
1.17699e-05
1.17613e-05
1.17611e-05
1.17608e-05
1.17604e-05
1.17598e-05
1.176e-05
1.17567e-05
1.17538e-05
1.17521e-05
1.17476e-05
1.17428e-05
1.17294e-05
1.1739e-05
1.1724e-05
1.17312e-05
1.1736e-05
1.17214e-05
1.1688e-05
1.16927e-05
1.17364e-05
1.17499e-05
1.17642e-05
1.17533e-05
1.17681e-05
1.17691e-05
1.17756e-05
1.17892e-05
1.17812e-05
1.17791e-05
1.17792e-05
1.17788e-05
1.17761e-05
1.17742e-05
1.17727e-05
1.17713e-05
1.17704e-05
1.17783e-05
1.95651e-05
1.94668e-05
1.07735e-05
1.07603e-05
1.07602e-05
1.076e-05
1.07595e-05
1.07586e-05
1.07568e-05
1.07567e-05
1.07532e-05
1.0754e-05
1.07563e-05
1.07512e-05
1.075e-05
1.07263e-05
1.07277e-05
1.07123e-05
1.07013e-05
1.06947e-05
1.07494e-05
1.0758e-05
1.07299e-05
1.07237e-05
1.07361e-05
1.07802e-05
1.07819e-05
1.07819e-05
1.07891e-05
1.07886e-05
1.07947e-05
1.07899e-05
1.07873e-05
1.07824e-05
1.078e-05
1.07775e-05
1.07753e-05
1.07734e-05
1.07719e-05
1.0784e-05
1.94644e-05
1.93638e-05
9.92728e-06
9.91352e-06
9.9136e-06
9.91365e-06
9.91356e-06
9.91338e-06
9.912e-06
9.91124e-06
9.91426e-06
9.90861e-06
9.89651e-06
9.88649e-06
9.87226e-06
9.88251e-06
9.87236e-06
1.00861e-05
1.0049e-05
1.01008e-05
1.005e-05
1.00401e-05
1.00442e-05
1.0115e-05
1.01013e-05
9.89781e-06
9.92239e-06
9.94584e-06
9.94923e-06
9.95268e-06
9.94982e-06
9.94925e-06
9.94286e-06
9.93992e-06
9.93655e-06
9.93313e-06
9.9297e-06
9.92702e-06
9.92498e-06
9.93691e-06
1.93592e-05
1.92538e-05
9.20398e-06
9.18952e-06
9.19008e-06
9.19073e-06
9.1915e-06
9.19234e-06
9.19504e-06
9.1923e-06
9.18657e-06
9.18128e-06
9.18074e-06
9.19146e-06
9.40566e-06
9.35443e-06
9.32969e-06
9.33364e-06
9.3094e-06
9.36177e-06
9.30012e-06
9.2962e-06
9.30023e-06
9.37117e-06
9.34971e-06
9.38349e-06
9.4038e-06
9.39066e-06
9.23112e-06
9.22657e-06
9.22667e-06
9.22719e-06
9.22441e-06
9.2192e-06
9.21264e-06
9.20715e-06
9.20325e-06
9.19996e-06
9.19756e-06
9.21195e-06
1.92536e-05
1.91408e-05
8.58668e-06
8.56458e-06
8.56595e-06
8.56772e-06
8.56975e-06
8.57159e-06
8.57167e-06
8.57755e-06
8.57806e-06
8.58381e-06
8.59611e-06
8.57926e-06
8.77703e-06
8.72201e-06
8.71966e-06
8.79898e-06
8.802e-06
8.86441e-06
8.88072e-06
8.88141e-06
8.86159e-06
8.88717e-06
8.84291e-06
8.82969e-06
8.78114e-06
8.75857e-06
8.64022e-06
8.63035e-06
8.61582e-06
8.60054e-06
8.59607e-06
8.5874e-06
8.58153e-06
8.57669e-06
8.57215e-06
8.56856e-06
8.5658e-06
8.58575e-06
1.91552e-05
1.90214e-05
8.04192e-06
8.02008e-06
8.02249e-06
8.02567e-06
8.02972e-06
8.03451e-06
8.03978e-06
8.04224e-06
8.05434e-06
8.06824e-06
8.0543e-06
8.06976e-06
8.22508e-06
8.21999e-06
8.30876e-06
8.37635e-06
8.51377e-06
8.81752e-06
9.29186e-06
9.53305e-06
9.29302e-06
8.89142e-06
8.57999e-06
8.42359e-06
8.30202e-06
8.24324e-06
8.09944e-06
8.0934e-06
8.07927e-06
8.0633e-06
8.04565e-06
8.03764e-06
8.03087e-06
8.02437e-06
8.01912e-06
8.01508e-06
8.01215e-06
8.03543e-06
1.90606e-05
1.89014e-05
7.5585e-06
7.54086e-06
7.54455e-06
7.54946e-06
7.55548e-06
7.56362e-06
7.57389e-06
7.58345e-06
7.59583e-06
7.5903e-06
7.60644e-06
7.62277e-06
7.77372e-06
7.81314e-06
7.94516e-06
8.18643e-06
9.01701e-06
1.20689e-05
2.29849e-05
3.45301e-05
2.29581e-05
1.28224e-05
9.4791e-06
8.39151e-06
7.98782e-06
7.84511e-06
7.64814e-06
7.59406e-06
7.58997e-06
7.57978e-06
7.56439e-06
7.55423e-06
7.54355e-06
7.53588e-06
7.53044e-06
7.52627e-06
7.52339e-06
7.54397e-06
1.89658e-05
1.87928e-05
7.13953e-06
7.11464e-06
7.11992e-06
7.12694e-06
7.13618e-06
7.14598e-06
7.15838e-06
7.18065e-06
7.18818e-06
7.20896e-06
7.23999e-06
7.30416e-06
7.41895e-06
7.50516e-06
7.73653e-06
8.38607e-06
1.1734e-05
0.000116341
7.2339e-05
1.46758e-05
8.99315e-06
7.87977e-06
7.53655e-06
7.31711e-06
7.22615e-06
7.15921e-06
7.14001e-06
7.13324e-06
7.1161e-06
7.10748e-06
7.10138e-06
7.0961e-06
7.09218e-06
7.08922e-06
7.11569e-06
1.88725e-05
1.8695e-05
6.76992e-06
6.73209e-06
6.73866e-06
6.74771e-06
6.75941e-06
6.77548e-06
6.79347e-06
6.8101e-06
6.83847e-06
6.89005e-06
6.96115e-06
6.99991e-06
7.12768e-06
7.26891e-06
7.63109e-06
8.83989e-06
1.75432e-05
0.00188775
0.0407072
2.2867e-05
9.90636e-06
7.84505e-06
7.27305e-06
6.96125e-06
6.87936e-06
6.82129e-06
6.76719e-06
6.74237e-06
6.7314e-06
6.72257e-06
6.71457e-06
6.70898e-06
6.7049e-06
6.70211e-06
6.7473e-06
1.8773e-05
1.86108e-05
6.41309e-06
6.38576e-06
6.39327e-06
6.40389e-06
6.41807e-06
6.43705e-06
6.46308e-06
6.49078e-06
6.54175e-06
6.59565e-06
6.61594e-06
6.68189e-06
6.88883e-06
7.09501e-06
7.57094e-06
9.3413e-06
2.57288e-05
0.0566968
0.000641001
2.14349e-05
1.01162e-05
7.71778e-06
7.04278e-06
6.59105e-06
6.48602e-06
6.4582e-06
6.42734e-06
6.39694e-06
6.38799e-06
6.37542e-06
6.36779e-06
6.36236e-06
6.35838e-06
6.35586e-06
6.40671e-06
1.86605e-05
1.85511e-05
6.07089e-06
6.06949e-06
6.07812e-06
6.09002e-06
6.10637e-06
6.12575e-06
6.15223e-06
6.19839e-06
6.24193e-06
6.2788e-06
6.36515e-06
6.54279e-06
6.71203e-06
6.99708e-06
7.56786e-06
1.02651e-05
5.02963e-05
0.165604
0.0485677
0.0339889
0.139488
5.53956e-05
1.65521e-05
9.71768e-06
7.46691e-06
6.83182e-06
6.34288e-06
6.18577e-06
6.11217e-06
6.10693e-06
6.09108e-06
6.06807e-06
6.06102e-06
6.05553e-06
6.05079e-06
6.04714e-06
6.04436e-06
6.08208e-06
1.85417e-05
1.85098e-05
5.81048e-06
5.77998e-06
5.7889e-06
5.80135e-06
5.8183e-06
5.84361e-06
5.87356e-06
5.91448e-06
5.96325e-06
6.06641e-06
6.23156e-06
6.42422e-06
6.62166e-06
7.06206e-06
1.06658e-05
0.000617468
0.122264
0.0154707
0.0218937
0.00662046
6.79687e-05
2.46823e-05
1.3876e-05
9.67321e-06
7.32034e-06
6.58636e-06
6.07401e-06
5.95529e-06
5.87705e-06
5.80982e-06
5.8038e-06
5.79307e-06
5.78445e-06
5.77647e-06
5.77066e-06
5.76624e-06
5.76288e-06
5.79989e-06
1.84197e-05
1.84679e-05
5.63677e-06
5.51537e-06
5.52281e-06
5.53466e-06
5.5514e-06
5.57538e-06
5.61254e-06
5.65144e-06
5.73077e-06
5.85383e-06
5.95931e-06
6.20736e-06
6.72928e-06
7.41767e-06
0.000126509
0.0271305
0.0632524
0.00210364
0.000514442
0.000124599
4.79875e-05
2.26456e-05
1.43709e-05
1.18316e-05
7.43251e-06
6.27728e-06
5.7327e-06
5.64335e-06
5.62127e-06
5.58359e-06
5.54709e-06
5.54473e-06
5.5318e-06
5.523e-06
5.51666e-06
5.5115e-06
5.50768e-06
5.56975e-06
1.82942e-05
1.84176e-05
5.48122e-06
5.27254e-06
5.27768e-06
5.28869e-06
5.3044e-06
5.32341e-06
5.35374e-06
5.40838e-06
5.48483e-06
5.53685e-06
5.70372e-06
6.07892e-06
6.67208e-06
7.50802e-06
1.82035e-05
0.00938903
0.110984
0.0340084
0.0173582
0.0200387
0.0236343
0.0235126
0.00773234
0.001857
2.06989e-05
9.46794e-06
5.81236e-06
5.4027e-06
5.34142e-06
5.35737e-06
5.33701e-06
5.31031e-06
5.29977e-06
5.29259e-06
5.28464e-06
5.2786e-06
5.27431e-06
5.34078e-06
1.81771e-05
1.83507e-05
5.30645e-06
5.04835e-06
5.05149e-06
5.06085e-06
5.07478e-06
5.09715e-06
5.12266e-06
5.16998e-06
5.21262e-06
5.34026e-06
5.56716e-06
5.82729e-06
6.32066e-06
7.37461e-06
9.51369e-06
7.94866e-05
0.0272105
0.106831
0.110129
0.0921349
0.0687066
0.0363532
0.0156288
0.015023
0.00252331
0.000156305
1.41048e-05
5.6419e-06
5.20252e-06
5.13543e-06
5.13515e-06
5.11268e-06
5.09766e-06
5.08263e-06
5.07237e-06
5.06408e-06
5.05815e-06
5.08488e-06
1.80845e-05
1.82557e-05
5.12912e-06
4.84123e-06
4.84278e-06
4.84984e-06
4.86079e-06
4.87789e-06
4.90988e-06
4.93398e-06
5.01203e-06
5.1744e-06
5.2672e-06
5.45682e-06
6.24146e-06
6.78654e-06
8.4653e-06
1.11082e-05
0.000141438
0.00358089
0.0148911
0.028034
0.0279778
0.0182674
0.00797638
0.00489284
0.0106126
0.00151983
0.000121405
9.84585e-06
5.22174e-06
5.01695e-06
4.94979e-06
4.93333e-06
4.90726e-06
4.88888e-06
4.87487e-06
4.86487e-06
4.8569e-06
4.85052e-06
1.80229e-05
1.81309e-05
4.95064e-06
4.65e-06
4.65046e-06
4.65624e-06
4.66453e-06
4.67474e-06
4.69365e-06
4.73754e-06
4.8348e-06
4.84625e-06
4.98592e-06
5.45483e-06
8.52971e-06
8.06512e-06
8.41674e-06
1.09222e-05
1.2512e-05
2.11813e-05
9.63575e-05
0.000332346
0.000794338
0.00137586
0.00119906
0.00138285
0.0121309
0.00300019
0.000224251
1.31746e-05
5.17872e-06
4.90888e-06
4.80676e-06
4.75625e-06
4.72439e-06
4.70519e-06
4.68949e-06
4.67816e-06
4.66933e-06
4.68275e-06
1.7992e-05
1.79838e-05
4.73593e-06
4.47335e-06
4.4737e-06
4.47845e-06
4.48494e-06
4.49767e-06
4.5094e-06
4.56081e-06
4.54733e-06
4.64744e-06
5.07727e-06
8.09098e-06
4.97658e-05
0.000388385
0.000296129
0.000542247
0.00165376
0.00267893
0.00233024
0.001298
0.000567453
0.000379679
0.000484926
0.00169524
0.0140085
0.00292068
0.000186205
1.09099e-05
4.93497e-06
4.71323e-06
4.66212e-06
4.58966e-06
4.56028e-06
4.5324e-06
4.5156e-06
4.50274e-06
4.49421e-06
4.57973e-06
1.79819e-05
1.78255e-05
4.48938e-06
4.31061e-06
4.31188e-06
4.3155e-06
4.32245e-06
4.33301e-06
4.35495e-06
4.35522e-06
4.38862e-06
4.75333e-06
8.27242e-06
5.2216e-05
0.000580901
0.00344173
0.00814995
0.0174021
0.0263305
0.0319763
0.0315994
0.0281952
0.0174708
0.0107408
0.0126012
0.0189739
0.0120275
0.00132405
5.70039e-05
6.28347e-06
4.76637e-06
4.55058e-06
4.48735e-06
4.43958e-06
4.39628e-06
4.36998e-06
4.3503e-06
4.33766e-06
4.33099e-06
4.52207e-06
1.79734e-05
1.76719e-05
4.25529e-06
4.16097e-06
4.16357e-06
4.16802e-06
4.1733e-06
4.18039e-06
4.20095e-06
4.21361e-06
4.43971e-06
7.32706e-06
5.0377e-05
0.000438413
0.00298213
0.00657285
0.0119406
0.0216857
0.0298232
0.0354449
0.0360423
0.032664
0.0242348
0.0202632
0.0190205
0.0166138
0.00454353
0.000283742
1.38066e-05
4.99096e-06
4.64188e-06
4.45963e-06
4.3073e-06
4.27578e-06
4.23029e-06
4.20901e-06
4.19252e-06
4.18157e-06
4.17878e-06
4.48828e-06
1.79544e-05
1.75463e-05
4.06062e-06
4.02226e-06
4.02662e-06
4.03303e-06
4.04201e-06
4.05789e-06
4.07351e-06
4.17722e-06
5.3215e-06
2.97433e-05
0.000320573
0.0019095
0.00482453
0.00799701
0.0144195
0.0193039
0.023332
0.029038
0.030779
0.0292127
0.0221539
0.0185632
0.0144955
0.00609595
0.00104139
5.2597e-05
6.23506e-06
4.54661e-06
4.3582e-06
4.29968e-06
4.18796e-06
4.1035e-06
4.0819e-06
4.05641e-06
4.04277e-06
4.03387e-06
4.03491e-06
4.44456e-06
1.79074e-05
1.74683e-05
3.90314e-06
3.89183e-06
3.89864e-06
3.90706e-06
3.92218e-06
3.94302e-06
3.97731e-06
4.14048e-06
6.93403e-06
6.14898e-05
0.000607933
0.00288809
0.00587757
0.0100765
0.0147968
0.015276
0.0143086
0.0150707
0.0159192
0.015756
0.0118693
0.00886082
0.00429341
0.00140126
0.000230442
1.99433e-05
5.82175e-06
4.51033e-06
4.14156e-06
4.03356e-06
4.0423e-06
3.96364e-06
3.93369e-06
3.91588e-06
3.90225e-06
3.8947e-06
3.89712e-06
4.34796e-06
1.78139e-05
1.74378e-05
3.79534e-06
3.76899e-06
3.77767e-06
3.78838e-06
3.80219e-06
3.8253e-06
3.88863e-06
4.01369e-06
6.92529e-06
6.23723e-05
0.000622585
0.00295865
0.00594282
0.0101279
0.0153421
0.0156733
0.0134382
0.012119
0.0115813
0.0106269
0.00846072
0.00632756
0.00302613
0.00101188
0.000245985
4.94803e-05
1.21365e-05
5.30759e-06
4.16032e-06
3.87154e-06
3.8188e-06
3.83047e-06
3.78787e-06
3.77641e-06
3.76902e-06
3.76413e-06
3.76612e-06
4.1571e-06
1.7681e-05
1.74351e-05
3.74741e-06
3.65427e-06
3.66256e-06
3.67499e-06
3.69302e-06
3.724e-06
3.7624e-06
3.8578e-06
5.71972e-06
4.31719e-05
0.000485703
0.0026339
0.00564683
0.00894675
0.0151432
0.0176495
0.0170352
0.0149125
0.0137081
0.0129042
0.012033
0.0111879
0.00877373
0.00431462
0.00142823
0.000392833
8.5996e-05
1.58001e-05
5.0662e-06
3.88679e-06
3.67159e-06
3.67106e-06
3.66484e-06
3.65192e-06
3.64688e-06
3.64349e-06
3.6448e-06
3.93109e-06
1.75083e-05
1.74387e-05
3.74266e-06
3.54695e-06
3.55209e-06
3.56469e-06
3.58713e-06
3.61895e-06
3.64066e-06
3.77802e-06
4.36647e-06
1.52229e-05
0.000177437
0.00141058
0.00469184
0.00743288
0.0128288
0.0172652
0.0188802
0.0193848
0.0193644
0.0188895
0.0179868
0.0173574
0.0171344
0.0156655
0.00934004
0.00273104
0.000662829
0.000111388
1.52207e-05
4.51881e-06
3.66741e-06
3.5505e-06
3.55671e-06
3.54576e-06
3.53749e-06
3.53372e-06
3.53379e-06
3.72672e-06
1.73072e-05
1.7439e-05
3.75041e-06
3.44404e-06
3.44502e-06
3.45542e-06
3.4713e-06
3.49562e-06
3.56668e-06
3.67625e-06
3.82087e-06
6.44555e-06
5.12059e-05
0.000465754
0.00224452
0.00501042
0.00788351
0.013642
0.0172303
0.0186792
0.0193776
0.0193709
0.0187914
0.0178449
0.0178818
0.0194045
0.0182031
0.0113982
0.00352286
0.00072259
9.44531e-05
1.06685e-05
3.9108e-06
3.50863e-06
3.45567e-06
3.44362e-06
3.43755e-06
3.43323e-06
3.43101e-06
3.54322e-06
1.71126e-05
1.7426e-05
3.74899e-06
3.34313e-06
3.34155e-06
3.35053e-06
3.36528e-06
3.38946e-06
3.46366e-06
3.47302e-06
3.54786e-06
4.30319e-06
1.49395e-05
0.000124161
0.000701418
0.00207307
0.00359396
0.00649663
0.0105335
0.0131798
0.0150613
0.0156919
0.015477
0.0150271
0.0154366
0.0185765
0.0207788
0.0177369
0.00814774
0.00217128
0.000350677
3.53678e-05
5.19398e-06
3.49768e-06
3.3758e-06
3.35673e-06
3.34637e-06
3.33995e-06
3.33507e-06
3.38332e-06
1.69673e-05
1.73695e-05
3.7056e-06
3.24463e-06
3.24237e-06
3.24969e-06
3.26445e-06
3.29258e-06
3.29246e-06
3.31247e-06
3.50178e-06
4.22745e-06
1.06416e-05
6.15516e-05
0.00032723
0.0010875
0.0024116
0.00439038
0.0072293
0.00914974
0.0105189
0.0113406
0.0117193
0.0122795
0.0136843
0.0180642
0.0213279
0.0193644
0.0098535
0.00272184
0.000462694
4.77411e-05
5.92577e-06
3.45275e-06
3.3188e-06
3.2814e-06
3.26274e-06
3.25278e-06
3.24499e-06
3.26672e-06
1.68945e-05
1.7214e-05
3.53917e-06
3.15108e-06
3.1488e-06
3.15323e-06
3.15972e-06
3.17597e-06
3.15794e-06
3.2901e-06
3.73853e-06
6.95754e-06
2.97006e-05
0.000156617
0.000648653
0.00194631
0.00391342
0.0059397
0.00815685
0.00950972
0.0104915
0.0112538
0.01185
0.0127756
0.0148477
0.019544
0.0213626
0.0190367
0.00947755
0.00261697
0.000439352
4.46971e-05
5.70071e-06
3.34236e-06
3.23992e-06
3.19993e-06
3.18193e-06
3.16949e-06
3.16011e-06
3.20648e-06
1.68789e-05
1.69771e-05
3.3405e-06
3.06494e-06
3.06315e-06
3.06622e-06
3.07152e-06
3.06412e-06
3.1322e-06
3.47244e-06
6.84089e-06
3.83979e-05
0.000250353
0.0012659
0.00417585
0.00905362
0.0117285
0.0126464
0.013068
0.0132654
0.01363
0.0144111
0.0155187
0.0168527
0.0186012
0.0203246
0.0203301
0.0160762
0.00691478
0.00183022
0.000272431
2.56637e-05
4.49395e-06
3.25847e-06
3.14303e-06
3.12248e-06
3.10147e-06
3.08786e-06
3.08009e-06
3.19099e-06
1.68838e-05
1.67116e-05
3.17412e-06
2.98645e-06
2.98685e-06
2.99132e-06
3.00218e-06
3.01263e-06
3.21863e-06
5.65973e-06
3.64287e-05
0.000303448
0.00182103
0.00773257
0.0142322
0.0164267
0.0157401
0.0153351
0.0155596
0.0161558
0.0168664
0.017457
0.0178196
0.0180479
0.0184736
0.0184207
0.0149548
0.00808308
0.00303038
0.000715988
9.24741e-05
9.69747e-06
3.54296e-06
3.19096e-06
3.07744e-06
3.0462e-06
3.02095e-06
3.00799e-06
3.00339e-06
3.1933e-06
1.69082e-05
1.64741e-05
3.02825e-06
2.91445e-06
2.91818e-06
2.92489e-06
2.93667e-06
3.02004e-06
4.06711e-06
2.23511e-05
0.000240718
0.00184873
0.00808787
0.0161874
0.0188482
0.0171467
0.0153763
0.0149777
0.0152373
0.0157747
0.0162019
0.0163052
0.0159727
0.015164
0.0134778
0.0101958
0.00619939
0.00293005
0.0010278
0.000222433
2.78051e-05
4.77759e-06
3.1425e-06
3.05496e-06
3.01971e-06
2.95752e-06
2.94077e-06
2.92976e-06
2.92788e-06
3.21115e-06
1.69248e-05
1.63176e-05
2.90943e-06
2.84729e-06
2.85448e-06
2.86544e-06
2.89009e-06
3.06751e-06
6.73927e-06
6.86637e-05
0.000717379
0.00435703
0.0138943
0.0192582
0.0196076
0.0157152
0.0131597
0.012389
0.0121706
0.012104
0.0118161
0.0111337
0.0100671
0.00862879
0.00682593
0.00458859
0.00242569
0.00104302
0.000347231
7.35707e-05
1.14129e-05
3.71824e-06
3.00446e-06
2.8993e-06
2.91018e-06
2.87688e-06
2.86157e-06
2.85182e-06
2.85238e-06
3.2184e-06
1.69235e-05
1.6254e-05
2.82692e-06
2.78369e-06
2.79388e-06
2.80871e-06
2.84884e-06
3.06825e-06
7.59552e-06
8.28209e-05
0.000857109
0.0050993
0.0154128
0.0198884
0.0196206
0.0150809
0.0125003
0.011422
0.0108386
0.0104506
0.0100541
0.00947677
0.00867733
0.00757081
0.00607689
0.00420845
0.00224517
0.000969495
0.000327089
7.45938e-05
1.33117e-05
4.12057e-06
3.02824e-06
2.83082e-06
2.78002e-06
2.80107e-06
2.78209e-06
2.77588e-06
2.77818e-06
3.19749e-06
1.68959e-05
1.62474e-05
2.78288e-06
2.72281e-06
2.7343e-06
2.75298e-06
2.78266e-06
2.9942e-06
7.01413e-06
7.39615e-05
0.000782256
0.00477943
0.0148699
0.0196644
0.0196615
0.0161144
0.0137327
0.0126374
0.011945
0.0114899
0.0111127
0.0106557
0.0101388
0.00957408
0.00883099
0.00754061
0.00538425
0.0029449
0.00114649
0.000323491
6.27378e-05
1.09481e-05
3.63819e-06
2.85066e-06
2.71459e-06
2.71465e-06
2.71011e-06
2.70648e-06
2.70871e-06
3.08593e-06
1.67766e-05
1.6263e-05
2.76885e-06
2.66351e-06
2.6735e-06
2.69207e-06
2.71447e-06
2.8699e-06
4.71057e-06
3.63536e-05
0.000416252
0.00298697
0.0110613
0.017882
0.0190368
0.0169558
0.0157419
0.0154256
0.0153003
0.0152012
0.0150557
0.014744
0.0143085
0.0138357
0.0134445
0.0130756
0.0125109
0.0107217
0.00634256
0.00221205
0.000480693
7.4557e-05
9.95925e-06
3.25236e-06
2.71813e-06
2.63874e-06
2.64815e-06
2.64475e-06
2.6459e-06
2.91333e-06
1.64578e-05
1.63281e-05
2.76868e-06
2.60428e-06
2.61167e-06
2.62793e-06
2.66841e-06
2.75569e-06
3.26191e-06
1.23058e-05
0.000130965
0.00106278
0.00465114
0.0109372
0.0153041
0.0159312
0.0153627
0.0153384
0.0155166
0.0157444
0.0158799
0.0158015
0.015481
0.0150041
0.0146139
0.0144214
0.0146191
0.0152929
0.0137635
0.00923487
0.0028288
0.000521755
6.16233e-05
7.02093e-06
2.87912e-06
2.61801e-06
2.59609e-06
2.59023e-06
2.58892e-06
2.77188e-06
1.61156e-05
1.63821e-05
2.77731e-06
2.54502e-06
2.55025e-06
2.5656e-06
2.60953e-06
2.61758e-06
2.76288e-06
5.16882e-06
3.7269e-05
0.000310562
0.00150036
0.00412161
0.00703047
0.00997407
0.0112683
0.012019
0.0126553
0.0132074
0.0136368
0.0139004
0.0139807
0.0138996
0.0138271
0.0138941
0.0143611
0.0157918
0.0167168
0.0148154
0.00885328
0.00243148
0.000346832
3.04627e-05
4.0445e-06
2.6332e-06
2.55654e-06
2.5433e-06
2.53731e-06
2.65371e-06
1.58499e-05
1.63932e-05
2.7883e-06
2.48604e-06
2.48818e-06
2.4994e-06
2.51128e-06
2.5074e-06
2.63994e-06
3.70412e-06
1.50827e-05
0.000103108
0.000497529
0.00148931
0.00317212
0.00510513
0.00678148
0.0080593
0.00902371
0.00974281
0.0102775
0.0106791
0.0110278
0.0113508
0.0117421
0.0122672
0.0131224
0.0151456
0.0173146
0.0167597
0.0124306
0.00422852
0.000710865
6.54996e-05
5.99194e-06
2.66791e-06
2.52052e-06
2.50059e-06
2.48961e-06
2.56022e-06
1.5696e-05
1.63815e-05
2.7807e-06
2.42872e-06
2.42739e-06
2.43561e-06
2.41792e-06
2.47596e-06
2.69204e-06
4.31808e-06
1.80029e-05
0.000104043
0.000452542
0.00131745
0.00296842
0.00485026
0.00661261
0.00801012
0.00904821
0.00979786
0.0103254
0.0106863
0.0109909
0.011269
0.0116049
0.0120888
0.0128867
0.0146261
0.0172899
0.0170491
0.013134
0.00456998
0.000771528
7.08054e-05
6.2729e-06
2.65931e-06
2.48308e-06
2.45674e-06
2.44309e-06
2.49652e-06
1.56455e-05
1.63023e-05
2.72618e-06
2.37543e-06
2.37288e-06
2.37394e-06
2.38177e-06
2.51147e-06
3.50399e-06
1.30874e-05
7.75466e-05
0.000376597
0.00129474
0.00307842
0.00561791
0.00783238
0.00963368
0.0111171
0.0122752
0.0130981
0.0135094
0.0136092
0.0135351
0.0132669
0.0130177
0.0130523
0.0134216
0.0146527
0.0170759
0.0167424
0.012549
0.00420451
0.000676744
5.97672e-05
5.59892e-06
2.58502e-06
2.4392e-06
2.41043e-06
2.3961e-06
2.46423e-06
1.56455e-05
1.60015e-05
2.59319e-06
2.32856e-06
2.32784e-06
2.32334e-06
2.39095e-06
2.96829e-06
1.06428e-05
8.28421e-05
0.000503124
0.00214989
0.00590152
0.00948687
0.011826
0.0131494
0.0142974
0.0152992
0.0160203
0.0163407
0.0162464
0.0158323
0.0151625
0.0144189
0.0137802
0.0134879
0.0136157
0.0145849
0.0161559
0.0149742
0.00922132
0.00250932
0.000326806
2.63755e-05
3.72078e-06
2.49021e-06
2.38453e-06
2.36321e-06
2.34946e-06
2.45603e-06
1.56771e-05
1.55709e-05
2.47028e-06
2.28778e-06
2.29107e-06
2.30787e-06
2.53877e-06
6.55382e-06
6.07592e-05
0.000509381
0.0026223
0.00784437
0.0118466
0.0138148
0.0144003
0.0148404
0.0153965
0.0158668
0.0161345
0.0160806
0.0156593
0.0150023
0.0142244
0.013492
0.0129503
0.0127232
0.0127915
0.0132313
0.0123719
0.00902192
0.00400485
0.000915695
0.000105705
9.49512e-06
2.76093e-06
2.40739e-06
2.33487e-06
2.31418e-06
2.30298e-06
2.45801e-06
1.57891e-05
1.52665e-05
2.36773e-06
2.25185e-06
2.26095e-06
2.31499e-06
3.4063e-06
2.48966e-05
0.000289558
0.00202075
0.00708666
0.0122893
0.0145038
0.0150466
0.0146166
0.0146187
0.0145896
0.014284
0.0137894
0.0131183
0.0123727
0.0116181
0.0108824
0.0102188
0.00968292
0.009269
0.00883704
0.00796463
0.00587974
0.00361055
0.00136498
0.000280615
3.14951e-05
4.27967e-06
2.40267e-06
2.30372e-06
2.28968e-06
2.26209e-06
2.25572e-06
2.47748e-06
1.58789e-05
1.51076e-05
2.28992e-06
2.21615e-06
2.2326e-06
2.32497e-06
4.39015e-06
4.41281e-05
0.000505911
0.00315623
0.00953801
0.0140416
0.0152401
0.0150031
0.0138322
0.0131574
0.0126423
0.0123035
0.0120589
0.0117361
0.0113119
0.010798
0.0101774
0.00945311
0.00863555
0.00764978
0.00639215
0.00479118
0.00298012
0.00145022
0.000483429
9.57828e-05
1.28351e-05
3.11479e-06
2.29925e-06
2.21181e-06
2.22631e-06
2.20955e-06
2.20746e-06
2.50191e-06
1.59056e-05
1.50636e-05
2.24261e-06
2.17931e-06
2.20159e-06
2.31356e-06
4.47312e-06
4.60407e-05
0.000532929
0.0033353
0.010001
0.0143191
0.0152458
0.0144835
0.0128943
0.0123052
0.0120915
0.0121317
0.0123325
0.0126168
0.0127159
0.0125557
0.0120596
0.0111045
0.009833
0.0083836
0.00672265
0.00482271
0.0028616
0.00128696
0.000417672
8.77608e-05
1.3717e-05
3.36841e-06
2.31354e-06
2.17444e-06
2.15239e-06
2.1599e-06
2.16025e-06
2.50076e-06
1.59015e-05
1.5068e-05
2.22471e-06
2.14147e-06
2.16459e-06
2.25053e-06
4.03543e-06
3.85143e-05
0.00046582
0.00308264
0.00958528
0.0140531
0.0150173
0.0141272
0.0126177
0.0121409
0.0120432
0.0123703
0.0131501
0.0141089
0.01512
0.0159528
0.0162508
0.0159613
0.0147527
0.0128194
0.0104115
0.00774744
0.00494683
0.00253314
0.000938597
0.000236777
4.51594e-05
7.47526e-06
2.6318e-06
2.18078e-06
2.10648e-06
2.11526e-06
2.11759e-06
2.47373e-06
1.58515e-05
1.51183e-05
2.224e-06
2.10544e-06
2.1248e-06
2.18153e-06
2.94518e-06
1.75577e-05
0.000229336
0.00190053
0.00726419
0.0125793
0.0141311
0.0135999
0.0123381
0.0119143
0.0118656
0.0121861
0.0128742
0.0138012
0.0149091
0.0159859
0.0167908
0.0171888
0.0169697
0.0161117
0.0146933
0.0128607
0.0106124
0.00760365
0.00396653
0.00119833
0.00026542
3.86036e-05
5.30587e-06
2.3136e-06
2.09986e-06
2.07891e-06
2.08177e-06
2.37815e-06
1.56262e-05
1.52874e-05
2.23748e-06
2.06983e-06
2.08424e-06
2.13527e-06
2.38809e-06
7.08135e-06
7.96585e-05
0.00073869
0.00335405
0.00779577
0.0108981
0.0117798
0.0113062
0.0109466
0.0106495
0.0105691
0.0107755
0.0113529
0.0122781
0.0134253
0.0146619
0.0157639
0.0163514
0.0161611
0.0155179
0.0146077
0.013568
0.0118848
0.0090921
0.00477208
0.00137496
0.000221487
2.26451e-05
3.30422e-06
2.12235e-06
2.05513e-06
2.05169e-06
2.2539e-06
1.51594e-05
1.5433e-05
2.31263e-06
2.03392e-06
2.04197e-06
2.07461e-06
2.13921e-06
3.53969e-06
2.57199e-05
0.000244574
0.00123755
0.00333648
0.0054954
0.00692199
0.00776748
0.00807283
0.00838128
0.00883349
0.00934585
0.00996939
0.0106862
0.0114452
0.012182
0.0128208
0.0135711
0.0142965
0.0147086
0.014495
0.014125
0.013502
0.0119162
0.00856922
0.00370931
0.000812475
8.9983e-05
7.49128e-06
2.25547e-06
2.04011e-06
2.02363e-06
2.15417e-06
1.48202e-05
1.54922e-05
2.38803e-06
1.99435e-06
1.99611e-06
1.99845e-06
2.02971e-06
2.53945e-06
9.67601e-06
8.02319e-05
0.000431831
0.00131937
0.00269725
0.0041648
0.00570387
0.00703513
0.00811416
0.00898391
0.00986749
0.0107389
0.0114287
0.0119015
0.0121535
0.0121008
0.0119986
0.0121598
0.0125224
0.013155
0.0137947
0.013696
0.0128989
0.0102964
0.00493657
0.00118696
0.00013744
1.05384e-05
2.36296e-06
2.02251e-06
1.99437e-06
2.08363e-06
1.46474e-05
1.54986e-05
2.39944e-06
1.95358e-06
1.94972e-06
1.93928e-06
2.00829e-06
2.47327e-06
7.94011e-06
5.48351e-05
0.000286789
0.000951489
0.002277
0.0039705
0.00585189
0.00772042
0.00969562
0.0119951
0.0139903
0.0149501
0.0149745
0.014256
0.0130989
0.0121334
0.0115758
0.0113504
0.0114444
0.0118296
0.0128329
0.0135658
0.0129735
0.0105753
0.00512434
0.00122498
0.000140024
1.06124e-05
2.3592e-06
1.99591e-06
1.96348e-06
2.04608e-06
1.46011e-05
1.54767e-05
2.38138e-06
1.91489e-06
1.90708e-06
1.91927e-06
2.04347e-06
3.17767e-06
1.47178e-05
9.2564e-05
0.000427095
0.0013645
0.00314491
0.00555867
0.00860147
0.0119417
0.0150292
0.0170797
0.017704
0.0173009
0.0161025
0.0145538
0.0130802
0.0119416
0.0111704
0.0109071
0.0109745
0.0113326
0.0123699
0.0132258
0.0127397
0.0102897
0.00485661
0.00110506
0.000117618
8.80832e-06
2.26029e-06
1.96376e-06
1.93265e-06
2.03608e-06
1.4606e-05
1.53519e-05
2.29198e-06
1.88335e-06
1.87562e-06
1.92557e-06
2.40433e-06
9.01059e-06
6.92928e-05
0.000390011
0.00147093
0.00399611
0.0072221
0.010445
0.01329
0.0156351
0.0172094
0.0179389
0.0176639
0.0165117
0.0147151
0.0128963
0.0114387
0.0104724
0.00990962
0.00991942
0.0103532
0.0108649
0.0118123
0.0124445
0.0117316
0.00873452
0.00350023
0.000630843
5.48345e-05
4.8171e-06
2.08327e-06
1.93018e-06
1.90419e-06
2.0392e-06
1.46587e-05
1.49405e-05
2.13472e-06
1.85784e-06
1.86253e-06
2.0109e-06
4.82516e-06
4.45442e-05
0.000367274
0.00179803
0.00497925
0.00840146
0.0111036
0.0131478
0.0147346
0.0159751
0.0166942
0.0163764
0.0149519
0.0132486
0.0117979
0.0105866
0.00962482
0.00891414
0.00844572
0.00831731
0.00870797
0.0095215
0.0101496
0.0100153
0.00833835
0.00484361
0.00159441
0.000248461
2.09746e-05
2.93493e-06
1.97957e-06
1.8958e-06
1.87901e-06
2.07283e-06
1.48435e-05
1.45199e-05
2.0133e-06
1.83552e-06
1.86116e-06
2.45262e-06
1.55354e-05
0.00018695
0.00130395
0.00438598
0.00817943
0.0108622
0.0125501
0.0135805
0.0144338
0.014688
0.0139181
0.0130022
0.0123345
0.011851
0.0113111
0.0104939
0.00966794
0.0089058
0.00826624
0.00771929
0.00718359
0.0067942
0.00641707
0.00562715
0.0041323
0.00206761
0.0006056
8.67991e-05
8.12437e-06
2.20207e-06
1.89448e-06
1.86056e-06
1.85383e-06
2.2095e-06
1.50203e-05
1.42859e-05
1.93313e-06
1.8107e-06
1.85882e-06
2.87855e-06
2.51246e-05
0.000307642
0.00196428
0.00583888
0.00971943
0.0117566
0.0126518
0.0130715
0.0126694
0.0120012
0.0116191
0.0114322
0.0115133
0.0119261
0.0125043
0.0126091
0.0121545
0.0109358
0.00940648
0.00813816
0.00708788
0.00588831
0.00455301
0.00322106
0.00191289
0.000810365
0.000215704
3.01892e-05
3.9471e-06
1.94314e-06
1.81908e-06
1.82158e-06
1.82325e-06
2.31813e-06
1.51015e-05
1.42046e-05
1.89321e-06
1.78228e-06
1.84635e-06
2.91743e-06
2.62272e-05
0.000326503
0.00210032
0.00620177
0.0100801
0.0118194
0.0123779
0.0117829
0.0109198
0.0104635
0.0103337
0.0104003
0.0110494
0.011969
0.0134269
0.0150257
0.0160453
0.0160213
0.0144245
0.011466
0.00849516
0.0063355
0.00452605
0.00285316
0.00141394
0.00051629
0.00012711
1.90004e-05
3.26652e-06
1.89732e-06
1.7743e-06
1.77732e-06
1.7865e-06
2.3388e-06
1.51172e-05
1.41999e-05
1.88364e-06
1.75379e-06
1.80942e-06
2.75614e-06
2.32868e-05
0.000301377
0.00202167
0.00609299
0.00997748
0.0116561
0.0119721
0.011191
0.0102671
0.00980998
0.00928934
0.00917283
0.00984306
0.0112513
0.012889
0.014809
0.0165597
0.0176478
0.0177347
0.016297
0.0134177
0.00961979
0.00613759
0.00358028
0.00171978
0.000620658
0.000156543
2.57061e-05
4.15863e-06
1.95697e-06
1.76519e-06
1.73456e-06
1.74984e-06
2.32455e-06
1.5106e-05
1.42298e-05
1.88802e-06
1.73275e-06
1.77023e-06
2.26463e-06
1.29334e-05
0.000185591
0.00154369
0.00534033
0.00929387
0.0110736
0.0113916
0.0107502
0.00988272
0.00912641
0.00833869
0.00817
0.0084961
0.00939119
0.0107163
0.0125564
0.0147824
0.0167485
0.0176756
0.0172759
0.0159283
0.0135717
0.0105235
0.00706511
0.0038537
0.00153975
0.000450758
8.9611e-05
1.2273e-05
2.53522e-06
1.78134e-06
1.70905e-06
1.72108e-06
2.24359e-06
1.50291e-05
1.43726e-05
1.92988e-06
1.71951e-06
1.7408e-06
1.95685e-06
6.08592e-06
7.7611e-05
0.000739213
0.00314303
0.00681781
0.00919309
0.00990664
0.0096405
0.00892831
0.00799195
0.00770793
0.00780363
0.00815603
0.00888615
0.00984938
0.0110133
0.0120845