/*--------------------------------*- C++ -*----------------------------------*\
| =========                 |                                                 |
| \\      /  F ield         | OpenFOAM: The Open Source CFD Toolbox           |
|  \\    /   O peration     | Version:  5.0                                   |
|   \\  /    A nd           | Web:      www.OpenFOAM.org                      |
|    \\/     M anipulation  |                                                 |
\*---------------------------------------------------------------------------*/
FoamFile
{
    version     2.0;
    format      ascii;
    class       volScalarField;
    location    "50";
    object      omega;
}
// * * * * * * * * * * * * * * * * * * * * * * * * * * * * * * * * * * * * * //

dimensions      [0 0 -1 0 0 0 0];

internalField   nonuniform List<scalar> 
11644
(
0.159122
4.65556
4.6561
4.6561
4.6561
4.6561
4.6561
4.6561
4.65611
4.65611
4.65611
4.65609
4.65582
4.65552
4.65615
4.65602
4.6568
4.65591
4.65519
4.65476
4.65485
4.65587
4.6559
4.65626
4.65626
4.65649
4.65544
4.65594
4.65612
4.65611
4.6561
4.6561
4.6561
4.6561
4.65609
4.65609
4.65609
4.65609
4.65554
0.15912
0.15874
4.12209
4.12339
4.12339
4.12339
4.12339
4.12339
4.12339
4.12338
4.12335
4.12332
4.12334
4.12373
4.12421
4.12329
4.12342
4.1217
4.12308
4.12455
4.12499
4.12493
4.1233
4.12368
4.12339
4.12302
4.12274
4.12453
4.12387
4.12361
4.12363
4.12362
4.12361
4.12358
4.12355
4.12353
4.12351
4.12349
4.12348
4.1222
0.158748
0.158355
3.69736
3.69917
3.69916
3.69914
3.69912
3.69909
3.69903
3.69896
3.69887
3.69873
3.69846
3.69778
3.69682
3.69749
3.69691
3.69859
3.6971
3.69534
3.69509
3.69543
3.69749
3.69783
3.69895
3.69992
3.7006
3.69909
3.69987
3.70023
3.70026
3.70022
3.70013
3.70005
3.69996
3.69987
3.69979
3.69973
3.69967
3.6978
0.158375
0.157958
3.35151
3.35369
3.35366
3.35362
3.35355
3.35346
3.35332
3.35312
3.35284
3.35253
3.35219
3.35211
3.35243
3.35039
3.35018
3.34744
3.34847
3.35023
3.3512
3.35185
3.35115
3.35206
3.35203
3.35315
3.35379
3.35646
3.35629
3.35619
3.35622
3.35614
3.35601
3.35582
3.35561
3.35541
3.35522
3.35507
3.35495
3.35271
0.157979
0.157567
3.06478
3.06719
3.06714
3.06707
3.06696
3.06679
3.06656
3.06623
3.06578
3.06514
3.06436
3.06302
3.06048
3.06138
3.05933
3.05991
3.0577
3.05603
3.05464
3.05551
3.0592
3.06196
3.06641
3.0676
3.06983
3.06911
3.07065
3.07153
3.07164
3.07155
3.07127
3.0709
3.07051
3.07014
3.0698
3.06951
3.06929
3.06669
0.157575
0.157179
2.82331
2.82605
2.826
2.82593
2.8258
2.82561
2.82532
2.82491
2.82434
2.82355
2.82237
2.82134
2.82203
2.81617
2.81508
2.81257
2.81233
2.81134
2.81566
2.81738
2.81746
2.81926
2.82002
2.82589
2.82804
2.83288
2.83251
2.83249
2.83261
2.83234
2.83186
2.83128
2.83066
2.83007
2.82954
2.8291
2.82876
2.82579
0.157169
0.156762
2.61778
2.62062
2.62062
2.6206
2.62054
2.6204
2.62017
2.61976
2.61912
2.61822
2.61711
2.61511
2.60928
2.61213
2.60798
2.65768
2.65282
2.6536
2.64768
2.65029
2.65314
2.6611
2.66325
2.61802
2.62361
2.62317
2.6274
2.62902
2.62893
2.62844
2.62771
2.62685
2.62598
2.62516
2.62444
2.62384
2.62338
2.62028
0.156743
0.156316
2.44094
2.44382
2.44393
2.44404
2.44414
2.44419
2.44414
2.44394
2.4435
2.44265
2.44122
2.43897
2.49091
2.47808
2.47015
2.46937
2.46446
2.46327
2.45902
2.46011
2.46385
2.47239
2.47777
2.48948
2.49152
2.48835
2.45387
2.45379
2.45334
2.45257
2.45145
2.45027
2.44912
2.44807
2.44717
2.44643
2.44587
2.44258
0.156315
0.155856
2.28679
2.29028
2.29055
2.29089
2.29126
2.29164
2.29197
2.29216
2.29211
2.29178
2.29058
2.28944
2.33036
2.31963
2.31356
2.32935
2.32708
2.3253
2.32721
2.3283
2.33112
2.33609
2.34124
2.34845
2.33439
2.33281
2.30206
2.3015
2.30068
2.29913
2.29756
2.29603
2.29461
2.29336
2.29231
2.29147
2.29084
2.28721
0.155915
0.15537
2.1523
2.15574
2.15624
2.15688
2.15766
2.15851
2.1594
2.16023
2.16084
2.16114
2.16119
2.16168
2.19464
2.18574
2.2052
2.21083
2.21529
2.23579
2.28167
2.30518
2.28768
2.25666
2.23499
2.2234
2.20688
2.20006
2.17302
2.16901
2.16628
2.16401
2.16192
2.16002
2.15836
2.15696
2.1558
2.1549
2.15423
2.15052
0.15553
0.154879
2.03354
2.03676
2.03753
2.03857
2.03985
2.04133
2.04298
2.04472
2.04651
2.04792
2.04949
2.05002
2.07996
2.07709
2.09805
2.11761
2.19105
2.45543
3.19135
3.75241
3.20601
2.54437
2.25763
2.15226
2.10897
2.08989
2.05752
2.05197
2.04755
2.04426
2.04144
2.03918
2.03731
2.0358
2.03459
2.03366
2.03298
2.02955
0.155143
0.154433
1.92629
1.93053
1.93161
1.93308
1.93493
1.93715
1.93971
1.94258
1.9456
1.94917
1.95147
1.95465
1.98443
1.98904
2.01698
2.07621
2.37298
6.83181
5.29491
2.64473
2.15974
2.03874
2.00074
1.95625
1.94726
1.94169
1.93696
1.9337
1.93113
1.92913
1.92757
1.92635
1.92542
1.92476
1.92077
0.154761
0.154031
1.82964
1.83481
1.83619
1.83809
1.84052
1.84351
1.84709
1.85124
1.85601
1.8612
1.86679
1.87531
1.90287
1.91205
1.95306
2.06629
2.71026
83.1192
204.385
3.10204
2.19771
1.98427
1.92156
1.87028
1.8529
1.84543
1.84028
1.83667
1.83404
1.83202
1.83047
1.82929
1.82839
1.82775
1.82238
0.154352
0.153684
1.74408
1.74782
1.74945
1.75171
1.75466
1.75837
1.76295
1.76851
1.77526
1.78263
1.79291
1.80543
1.83298
1.84807
1.89915
2.05825
3.03429
12.3158
12.5973
2.95425
2.1639
1.9222
1.84425
1.7826
1.76754
1.75772
1.75292
1.74916
1.74654
1.74459
1.74311
1.74197
1.74111
1.74048
1.73483
0.153888
0.153437
1.66635
1.66822
1.66999
1.67249
1.67581
1.6801
1.68552
1.69235
1.70079
1.71214
1.72527
1.7384
1.77413
1.79982
1.85669
2.08206
3.61945
20.0505
10.6544
9.51959
36.1846
4.20468
2.60693
2.07684
1.84568
1.76718
1.6989
1.68631
1.67857
1.67314
1.66986
1.66753
1.66573
1.66431
1.6632
1.66234
1.6617
1.65693
0.153398
0.153267
1.58988
1.59498
1.59678
1.59937
1.60285
1.60745
1.61341
1.62125
1.63129
1.64524
1.66176
1.694
1.72979
1.77138
1.89159
2.69072
14.4332
11.1818
13.1017
9.10496
4.03284
2.97308
2.35231
2.00586
1.77758
1.69241
1.62902
1.61133
1.60582
1.60089
1.59833
1.59614
1.59447
1.59305
1.5919
1.59097
1.59029
1.58571
0.152892
0.153093
1.51426
1.52729
1.52908
1.53157
1.53498
1.53956
1.5457
1.55399
1.56543
1.58023
1.6042
1.64347
1.69958
1.77434
2.07409
8.408
9.39027
4.91531
3.84295
3.37125
3.0993
2.71151
2.30221
1.96866
1.73472
1.59901
1.56345
1.54857
1.53976
1.53652
1.53385
1.53171
1.52995
1.5284
1.52708
1.52599
1.52519
1.51959
0.15237
0.152884
1.44415
1.46464
1.46636
1.46859
1.47169
1.4759
1.48173
1.48954
1.50103
1.51732
1.54167
1.57622
1.66108
1.75738
2.03921
5.8646
10.2076
7.06416
5.46117
5.82922
6.39458
6.31114
4.42573
2.5035
1.77258
1.57435
1.50148
1.48933
1.48276
1.47874
1.47588
1.4736
1.47139
1.46946
1.4678
1.46646
1.46545
1.4598
0.151882
0.152606
1.38184
1.4067
1.40824
1.41009
1.4127
1.41627
1.42136
1.42842
1.43875
1.45455
1.47311
1.51652
1.59211
1.70441
1.90832
2.44305
8.15034
10.0571
9.52933
8.63961
7.88761
7.158
6.52923
5.34654
2.46971
1.61624
1.47811
1.44218
1.43473
1.42859
1.42432
1.42091
1.41788
1.41534
1.41319
1.4115
1.41025
1.4071
0.151495
0.15221
1.32693
1.35319
1.35447
1.35589
1.3579
1.36073
1.36475
1.37086
1.37974
1.39246
1.4182
1.45321
1.4948
1.61044
1.77772
1.99145
2.43994
3.64987
5.25446
6.34248
6.24972
5.68945
5.25503
4.62272
4.13504
1.90435
1.49082
1.41846
1.39489
1.3853
1.37824
1.37275
1.36851
1.36512
1.36241
1.36033
1.35886
1.35807
0.151238
0.151688
1.27875
1.30387
1.30484
1.30587
1.30729
1.30937
1.31226
1.31691
1.3239
1.33703
1.35913
1.37756
1.44162
1.52868
1.67426
1.83065
1.97579
2.10481
2.23845
2.41862
2.68745
3.13329
3.39464
3.27591
3.90594
2.12132
1.49848
1.39853
1.36264
1.34573
1.3352
1.3277
1.32218
1.31794
1.31472
1.31232
1.31068
1.30847
0.151108
0.151072
1.23789
1.25848
1.25917
1.25992
1.26089
1.26232
1.26433
1.2678
1.2732
1.28515
1.29396
1.33908
1.4469
1.65955
1.74565
2.00602
2.42646
2.67851
2.61024
2.39392
2.33354
2.50018
2.72994
2.99394
3.73031
2.0932
1.4793
1.36288
1.32955
1.30656
1.29343
1.28439
1.27785
1.27308
1.26955
1.26698
1.26521
1.25751
0.151066
0.150405
1.20352
1.21667
1.21723
1.21787
1.21869
1.21981
1.22147
1.22428
1.2299
1.23726
1.26525
1.35147
1.59686
2.48975
3.43704
3.80575
3.99297
4.0354
3.99973
3.90601
3.73248
3.44751
3.49791
3.89362
3.38249
1.83236
1.42131
1.3219
1.28795
1.26664
1.25161
1.24182
1.23492
1.23007
1.22652
1.224
1.22213
1.2067
0.15103
0.149756
1.17142
1.17804
1.17866
1.17943
1.18045
1.18176
1.18372
1.18695
1.19375
1.20844
1.27134
1.47324
2.27392
3.12907
3.49175
3.56323
3.82262
4.03716
4.09629
4.11982
4.06008
3.82569
3.70358
3.61431
2.32119
1.55027
1.35879
1.28459
1.24198
1.22356
1.20886
1.19974
1.19321
1.18869
1.18546
1.18318
1.18129
1.15781
0.15095
0.149224
1.13872
1.14213
1.14295
1.14408
1.14561
1.14769
1.15081
1.15616
1.16674
1.20196
1.32509
1.81789
2.72675
3.15299
3.2398
3.19284
3.35754
3.79118
3.93353
3.9795
3.87631
3.55505
3.18481
2.39206
1.65768
1.36933
1.2771
1.23569
1.20133
1.17793
1.16652
1.15826
1.15281
1.14901
1.14636
1.1445
1.14275
1.11298
0.150752
0.148892
1.10681
1.10847
1.10953
1.11115
1.11341
1.11662
1.12151
1.1299
1.14678
1.19603
1.37396
1.99134
2.77818
3.06429
3.0638
2.86222
2.83392
3.00577
3.19202
3.24112
3.07309
2.68558
2.27057
1.76262
1.43433
1.27279
1.19886
1.16953
1.15514
1.13524
1.12514
1.11838
1.11417
1.11131
1.10938
1.10802
1.10663
1.076
0.150357
0.148763
1.07493
1.07654
1.07785
1.07993
1.08291
1.08724
1.09382
1.10449
1.12715
1.17789
1.37156
1.99226
2.73511
2.96796
3.00054
2.80107
2.63588
2.60507
2.64282
2.6827
2.66595
2.50357
2.19883
1.77159
1.44317
1.26736
1.17243
1.1189
1.1005
1.09469
1.08537
1.08071
1.07794
1.07602
1.07481
1.07392
1.073
1.04793
0.149795
0.148751
1.04014
1.0459
1.04748
1.04986
1.05333
1.05836
1.06604
1.07856
1.09959
1.14521
1.32893
1.89525
2.60604
2.86788
2.93921
2.84633
2.67182
2.58659
2.55113
2.54707
2.5569
2.54804
2.46383
2.24678
1.8004
1.37614
1.19003
1.10999
1.06415
1.0547
1.05007
1.04666
1.04481
1.04363
1.0429
1.04236
1.0418
1.02431
0.149061
0.148767
1.00229
1.01635
1.01814
1.02057
1.02415
1.0294
1.0375
1.05039
1.06846
1.11459
1.22965
1.58894
2.25401
2.67506
2.83794
2.84153
2.74371
2.67584
2.62012
2.58402
2.56301
2.55727
2.57296
2.57494
2.44225
1.95303
1.34779
1.13288
1.05899
1.02607
1.0207
1.01714
1.01536
1.01441
1.0138
1.01337
1.01294
1.00118
0.148202
0.148768
0.965909
0.987891
0.989716
0.991933
0.995218
1.00007
1.00742
1.01847
1.04042
1.07838
1.14154
1.30741
1.68256
2.14939
2.55814
2.75075
2.71939
2.67872
2.64045
2.61054
2.58735
2.55285
2.54488
2.5703
2.60142
2.43509
1.88119
1.28069
1.07292
1.01637
0.99838
0.992481
0.989746
0.988297
0.987373
0.986738
0.986242
0.979149
0.147367
0.148712
0.93565
0.96067
0.962257
0.96405
0.966704
0.970745
0.97697
0.986717
1.00689
1.02618
1.05858
1.14037
1.32369
1.59264
1.92541
2.32703
2.52652
2.59297
2.57977
2.55509
2.52369
2.44664
2.40329
2.44104
2.59209
2.56165
2.24829
1.52745
1.12436
1.01474
0.982508
0.972206
0.967455
0.964822
0.963164
0.962068
0.961359
0.958409
0.146741
0.14847
0.911925
0.934846
0.935999
0.937248
0.939093
0.942041
0.94673
0.955551
0.963001
0.974661
1.00931
1.08076
1.21795
1.42575
1.679
1.96397
2.16524
2.31899
2.3447
2.32483
2.26852
2.22479
2.24575
2.35297
2.57689
2.57528
2.33572
1.61058
1.14549
1.00989
0.970207
0.954465
0.94715
0.943074
0.940516
0.938834
0.937819
0.937123
0.146427
0.147802
0.892273
0.910591
0.911297
0.912023
0.913103
0.914938
0.91781
0.922693
0.926079
0.952607
1.00467
1.0917
1.25748
1.48636
1.71289
1.92975
2.04791
2.12316
2.1463
2.15295
2.16128
2.18784
2.24701
2.38257
2.56081
2.55448
2.31137
1.59248
1.13861
0.993762
0.954007
0.936289
0.927328
0.92208
0.918733
0.916541
0.91519
0.91318
0.14636
0.146781
0.874314
0.888081
0.88849
0.888881
0.8895
0.890691
0.892618
0.894829
0.913385
0.955975
1.04384
1.26119
1.59085
1.82425
1.93117
1.992
2.04134
2.09107
2.13289
2.16654
2.20806
2.25976
2.32067
2.41786
2.51032
2.4634
2.15267
1.47069
1.09767
0.971288
0.932027
0.916614
0.907017
0.901107
0.897296
0.894809
0.893169
0.886305
0.146381
0.145629
0.857837
0.867398
0.867741
0.868141
0.868839
0.870253
0.87359
0.882021
0.91709
1.00513
1.30634
1.75665
1.96605
2.01221
2.02032
2.03931
2.07625
2.13408
2.18951
2.23707
2.27035
2.29208
2.31893
2.36909
2.33432
2.13249
1.66991
1.2189
1.02203
0.947103
0.910566
0.895245
0.885601
0.87973
0.875909
0.873416
0.871637
0.858478
0.146487
0.144591
0.842834
0.848377
0.848887
0.849701
0.851143
0.85399
0.860594
0.882012
0.953365
1.23539
1.76183
2.00681
2.06738
2.01917
2.00957
2.02835
2.07187
2.12796
2.17254
2.20036
2.20934
2.19582
2.15873
2.04856
1.81169
1.55392
1.25095
1.04186
0.950416
0.912365
0.888773
0.871319
0.863135
0.857893
0.854507
0.8523
0.850606
0.832648
0.146558
0.143904
0.828029
0.830616
0.831483
0.833002
0.835642
0.840728
0.852446
0.886125
1.03044
1.49345
1.95967
2.07886
2.07232
1.95326
1.90098
1.89468
1.91444
1.9431
1.95537
1.95655
1.92853
1.86675
1.76903
1.62173
1.44239
1.2463
1.0609
0.947354
0.891285
0.868572
0.858932
0.84701
0.840118
0.835918
0.833299
0.831592
0.830219
0.811026
0.146552
0.143624
0.811781
0.813626
0.814929
0.817225
0.82111
0.828317
0.844722
0.886504
1.0519
1.56229
2.00388
2.09196
2.06489
1.91441
1.83154
1.79167
1.7753
1.77105
1.77016
1.76672
1.74843
1.70741
1.63384
1.51732
1.37265
1.19489
1.03118
0.926521
0.866849
0.835232
0.824788
0.822446
0.817363
0.814447
0.812735
0.811633
0.810708
0.79347
0.146433
0.143596
0.793473
0.797031
0.79873
0.801607
0.806387
0.814791
0.831607
0.879218
1.04256
1.53931
1.99009
2.08291
2.05851
1.92834
1.85247
1.80986
1.78594
1.7743
1.76604
1.75437
1.73202
1.69534
1.63646
1.54897
1.43717
1.27635
1.09533
0.951349
0.869636
0.826565
0.801926
0.798084
0.796007
0.794371
0.793468
0.7929
0.792389
0.778295
0.145912
0.143665
0.773852
0.780597
0.782533
0.785671
0.790784
0.799413
0.814322
0.857113
0.990684
1.38766
1.88944
2.03323
2.03513
1.94303
1.90593
1.89168
1.88279
1.8736
1.85578
1.8274
1.78989
1.74759
1.70641
1.66644
1.62121
1.54432
1.38916
1.14269
0.922583
0.833756
0.797112
0.779669
0.77795
0.776767
0.776171
0.77584
0.775533
0.764686
0.144517
0.143953
0.754104
0.764276
0.766223
0.769228
0.77411
0.782148
0.797178
0.829796
0.901985
1.0988
1.51038
1.8327
1.92804
1.90763
1.88877
1.88882
1.89513
1.90115
1.89677
1.87765
1.84396
1.80045
1.75594
1.71723
1.69208
1.67831
1.62258
1.48586
1.18049
0.891979
0.802684
0.772983
0.765025
0.762354
0.761185
0.760616
0.760258
0.752738
0.143008
0.14419
0.735213
0.748033
0.749753
0.752324
0.756469
0.763295
0.77755
0.795379
0.830037
0.918421
1.11434
1.3651
1.5542
1.67886
1.72621
1.75662
1.78039
1.79777
1.80421
1.79787
1.78082
1.75316
1.72353
1.69942
1.68825
1.69928
1.70393
1.64848
1.47461
1.09348
0.839863
0.773589
0.756594
0.750814
0.748269
0.746987
0.746291
0.741687
0.141825
0.144238
0.718243
0.732092
0.733398
0.735252
0.738295
0.743593
0.751477
0.758771
0.780584
0.833888
0.942305
1.10572
1.26385
1.39384
1.47373
1.52082
1.54748
1.5626
1.57037
1.5733
1.57498
1.57652
1.58129
1.59519
1.62174
1.67934
1.71865
1.70091
1.59579
1.24486
0.888132
0.776156
0.750416
0.740911
0.736644
0.734389
0.733203
0.730381
0.141137
0.144186
0.703836
0.716694
0.717501
0.718628
0.720456
0.723777
0.724843
0.734863
0.763407
0.81751
0.915697
1.05976
1.20708
1.32862
1.41221
1.46487
1.49542
1.51168
1.51964
1.52214
1.52306
1.52591
1.53331
1.54977
1.57927
1.6431
1.71499
1.70709
1.61912
1.2748
0.897009
0.77555
0.743492
0.731138
0.725349
0.72218
0.720457
0.717963
0.14091
0.143836
0.691353
0.702401
0.702804
0.703282
0.70416
0.705359
0.708799
0.729847
0.766612
0.838782
0.962605
1.11038
1.24535
1.35252
1.43125
1.48762
1.52772
1.55542
1.57205
1.57469
1.57252
1.56491
1.55753
1.56182
1.57856
1.6302
1.70244
1.69687
1.60492
1.25292
0.888175
0.768484
0.733325
0.72028
0.713645
0.709891
0.707797
0.704135
0.140911
0.142499
0.680355
0.68938
0.689633
0.690035
0.690784
0.692268
0.705846
0.736056
0.809417
0.985171
1.17044
1.29561
1.38377
1.45275
1.51539
1.57103
1.61486
1.64218
1.65175
1.64543
1.62804
1.60311
1.57922
1.56882
1.57665
1.61428
1.66813
1.64973
1.51823
1.13211
0.846539
0.750072
0.719688
0.707812
0.701171
0.697279
0.694994
0.689011
0.141054
0.140569
0.670938
0.677923
0.678382
0.679222
0.681214
0.687143
0.709958
0.781465
0.997931
1.22681
1.34673
1.41594
1.45991
1.50107
1.54443
1.58363
1.61288
1.62749
1.62722
1.61383
1.59281
1.56858
1.54734
1.53775
1.53948
1.55171
1.55279
1.46566
1.22167
0.924478
0.781749
0.728902
0.704354
0.693881
0.687857
0.684261
0.682065
0.673114
0.141558
0.139191
0.662639
0.667383
0.668358
0.670414
0.674843
0.687109
0.734891
0.920441
1.20503
1.35234
1.41997
1.4495
1.46534
1.48664
1.50068
1.50102
1.48977
1.47471
1.45865
1.44233
1.42635
1.41227
1.40052
1.39015
1.37317
1.33141
1.25209
1.12078
0.939068
0.793465
0.727845
0.70262
0.688256
0.678831
0.673843
0.670877
0.668978
0.657442
0.141959
0.138466
0.654691
0.657625
0.659297
0.662557
0.669706
0.687682
0.762509
1.01391
1.29557
1.40003
1.43572
1.44472
1.42435
1.4011
1.38034
1.36878
1.36267
1.35962
1.35668
1.35385
1.34903
1.3379
1.32097
1.29178
1.24469
1.17199
1.07177
0.943842
0.814981
0.729674
0.689321
0.674366
0.669614
0.663059
0.659486
0.65738
0.65598
0.643452
0.142077
0.138265
0.646075
0.647708
0.649981
0.654533
0.663634
0.686693
0.766959
1.03172
1.31394
1.40705
1.43264
1.41719
1.36601
1.34249
1.33281
1.33322
1.34813
1.3607
1.37
1.37302
1.37165
1.35654
1.33125
1.29245
1.2343
1.15081
1.04312
0.914693
0.794303
0.715205
0.673897
0.653963
0.649479
0.647447
0.645467
0.644276
0.643434
0.631763
0.142058
0.138286
0.635719
0.637953
0.640647
0.645613
0.655393
0.680409
0.761442
1.01841
1.30475
1.39961
1.42122
1.39639
1.34587
1.32779
1.32369
1.33317
1.36061
1.39408
1.42736
1.45005
1.45782
1.44715
1.41102
1.35308
1.27708
1.18578
1.07795
0.951125
0.822508
0.725131
0.674189
0.647339
0.634224
0.633623
0.632763
0.632225
0.631814
0.621579
0.141834
0.138517
0.622683
0.627542
0.630379
0.635613
0.644897
0.665236
0.73546
0.945223
1.24716
1.36553
1.3927
1.37408
1.33042
1.31393
1.31152
1.32502
1.35149
1.38476
1.41969
1.44909
1.46663
1.46993
1.45143
1.41202
1.35479
1.28235
1.19669
1.09426
0.965682
0.801966
0.692159
0.648797
0.628443
0.623283
0.622236
0.621755
0.621463
0.612532
0.140818
0.139291
0.60724
0.617166
0.619992
0.624546
0.632657
0.649997
0.692179
0.804268
1.04347
1.23905
1.30756
1.31357
1.28896
1.27173
1.26034
1.26199
1.27018
1.28696
1.31109
1.34087
1.37353
1.40343
1.41496
1.40045
1.36414
1.3172
1.26529
1.20158
1.11417
0.985669
0.784091
0.664887
0.628597
0.617003
0.6141
0.612922
0.612349
0.604898
0.138698
0.139952
0.59146
0.606053
0.608558
0.612542
0.619166
0.632483
0.653676
0.706571
0.826942
0.978192
1.08288
1.13834
1.16065
1.16676
1.17536
1.1853
1.1937
1.20164
1.20959
1.21983
1.23347
1.25083
1.27449
1.29908
1.31608
1.3044
1.27457
1.23887
1.1851
1.09781
0.928441
0.720997
0.633326
0.613895
0.607795
0.605298
0.604121
0.598755
0.13714
0.140219
0.578406
0.595279
0.597273
0.59996
0.604874
0.611638
0.621494
0.65068
0.717472
0.823585
0.927824
1.01265
1.07741
1.12616
1.16043
1.18187
1.19639
1.20507
1.20839
1.20878
1.2033
1.1913
1.18685
1.1937
1.20862
1.23483
1.25267
1.23899
1.20781
1.1442
0.999844
0.759139
0.63917
0.611659
0.6022
0.598201
0.596283
0.593579
0.136341
0.140247
0.568804
0.584381
0.585656
0.587483
0.590356
0.592182
0.602512
0.630521
0.687723
0.783788
0.891886
0.990586
1.0723
1.13543
1.18851
1.23692
1.27252
1.28102
1.27308
1.24698
1.21188
1.1819
1.16086
1.15406
1.15691
1.17036
1.20155
1.22455
1.20711
1.15296
1.01372
0.764894
0.639519
0.607839
0.596187
0.590998
0.588469
0.587948
0.136126
0.140147
0.561337
0.57467
0.575373
0.57609
0.577222
0.580435
0.598037
0.630571
0.69365
0.795119
0.906919
1.01172
1.10888
1.20148
1.27777
1.32539
1.34078
1.32985
1.2987
1.2549
1.20944
1.16973
1.13988
1.12825
1.13286
1.14513
1.17846
1.20638
1.19779
1.14742
1.00537
0.758251
0.636403
0.6011
0.58912
0.583385
0.580483
0.579844
0.136149
0.139579
0.554582
0.565646
0.566083
0.566796
0.567907
0.577582
0.600906
0.650198
0.753495
0.877937
0.990804
1.09339
1.18347
1.254
1.30374
1.32988
1.32789
1.29765
1.24991
1.19818
1.15249
1.11372
1.08622
1.08106
1.10133
1.12696
1.1588
1.18085
1.17188
1.11821
0.956908
0.725041
0.623602
0.59176
0.580951
0.575263
0.572142
0.567715
0.136396
0.137692
0.548728
0.558151
0.55881
0.559983
0.563551
0.579057
0.623381
0.742354
0.887112
0.987729
1.07097
1.14086
1.20058
1.24837
1.27085
1.25544
1.21203
1.16316
1.12125
1.09156
1.06982
1.05334
1.04208
1.03943
1.0495
1.08146
1.10821
1.11633
1.0947
1.00765
0.814488
0.663461
0.604358
0.580995
0.571736
0.566512
0.563342
0.552253
0.137255
0.135742
0.544541
0.551139
0.552339
0.555105
0.562546
0.589708
0.694817
0.859322
0.967313
1.0404
1.09522
1.14257
1.17837
1.18012
1.14956
1.11628
1.09331
1.0816
1.07599
1.06788
1.05792
1.04784
1.03743
1.02921
1.01707
1.00415
0.9901
0.962918
0.911633
0.814084
0.688703
0.614318
0.584402
0.569247
0.561468
0.557092
0.554134
0.536914
0.138068
0.134647
0.541923
0.544939
0.546869
0.551038
0.562074
0.603591
0.746531
0.917791
1.00248
1.0544
1.09094
1.10987
1.09317
1.06703
1.05173
1.04508
1.05171
1.06434
1.08702
1.10018
1.10073
1.09194
1.06814
1.04289
1.01733
0.979291
0.925384
0.861602
0.786137
0.697004
0.618631
0.578359
0.563268
0.556254
0.550417
0.547185
0.544742
0.524897
0.138439
0.134265
0.539053
0.538512
0.540985
0.546668
0.560745
0.606562
0.760018
0.933709
1.01078
1.05176
1.06488
1.04606
1.01515
0.996148
0.989386
0.996252
1.0281
1.05973
1.10198
1.14829
1.18066
1.18924
1.17143
1.11913
1.05097
0.987896
0.920412
0.840101
0.750203
0.659345
0.59302
0.559142
0.545325
0.542519
0.539289
0.537249
0.53555
0.516578
0.138511
0.134243
0.533314
0.532269
0.535197
0.541325
0.556686
0.604892
0.757386
0.932246
1.00818
1.0419
1.04317
1.01717
0.984888
0.96005
0.947864
0.952502
0.979743
1.03274
1.08443
1.13875
1.1851
1.21182
1.21704
1.1901
1.13253
1.04488
0.947165
0.852848
0.756072
0.661019
0.591809
0.554967
0.535531
0.530275
0.529085
0.527983
0.526985
0.510617
0.138459
0.134385
0.5224
0.525342
0.528537
0.53486
0.548032
0.595656
0.73711
0.915871
0.994453
1.02374
1.02605
1.00334
0.973268
0.941306
0.927196
0.927977
0.938623
0.965031
1.00517
1.05677
1.11949
1.17297
1.20158
1.19329
1.15717
1.09672
1.01563
0.917169
0.810367
0.70003
0.607699
0.557883
0.533632
0.522058
0.52072
0.519988
0.519333
0.50569
0.138105
0.13506
0.507282
0.518174
0.521643
0.527321
0.538361
0.572404
0.670333
0.847654
0.949646
0.982947
0.989348
0.974626
0.947536
0.927338
0.923612
0.923748
0.92801
0.940058
0.958766
0.980224
1.00928
1.04936
1.10319
1.14364
1.13948
1.10004
1.04077
0.9718
0.891368
0.798491
0.682614
0.579592
0.535554
0.518608
0.51465
0.513414
0.51266
0.501662
0.136672
0.136083
0.491734
0.510192
0.513634
0.518684
0.527879
0.548739
0.599565
0.70754
0.818581
0.870125
0.892344
0.901791
0.910134
0.923743
0.928024
0.933543
0.9427
0.952667
0.962947
0.96784
0.964835
0.972383
0.989891
1.01621
1.05307
1.06609
1.035
0.983828
0.928096
0.85967
0.772767
0.646427
0.548139
0.518183
0.510537
0.507972
0.506783
0.499051
0.134573
0.136654
0.479261
0.502218
0.505329
0.509101
0.516059
0.52631
0.551553
0.610778
0.692567
0.7578
0.80953
0.856754
0.900826
0.930301
0.957431
0.995428
1.02159
1.02505
1.01279
0.979719
0.952216
0.930026
0.91207
0.916775
0.934378
0.96471
0.988738
0.974533
0.935015
0.885572
0.818397
0.695432
0.565509
0.518327
0.507303
0.503154
0.501405
0.497496
0.133278
0.136834
0.470932
0.494048
0.49639
0.499086
0.503206
0.507693
0.525016
0.566566
0.636745
0.713658
0.786598
0.853195
0.911181
0.975496
1.04588
1.08793
1.09311
1.07449
1.0314
0.979914
0.93283
0.883659
0.854054
0.850539
0.860648
0.88804
0.922675
0.940499
0.929664
0.890875
0.831954
0.710898
0.570367
0.518058
0.50385
0.498467
0.496229
0.49584
0.132754
0.136831
0.465933
0.486578
0.488164
0.489566
0.491321
0.496871
0.516922
0.557962
0.629069
0.711921
0.792394
0.873975
0.964993
1.04533
1.09558
1.11349
1.10027
1.06505
1.00806
0.943588
0.879882
0.840598
0.822493
0.820198
0.828873
0.859814
0.893815
0.917092
0.915978
0.888629
0.831744
0.71062
0.569572
0.516145
0.49966
0.49361
0.490987
0.492571
0.132679
0.136673
0.462771
0.479599
0.480581
0.481538
0.482816
0.494054
0.517778
0.564143
0.642688
0.735304
0.833633
0.927862
1.00529
1.06169
1.09376
1.09358
1.05314
0.987336
0.924377
0.877288
0.841734
0.822592
0.81539
0.815294
0.82344
0.848986
0.881905
0.902583
0.901783
0.879178
0.82403
0.700511
0.563276
0.509657
0.49461
0.488417
0.485394
0.484586
0.132757
0.135914
0.460425
0.473709
0.474563
0.475598
0.478926
0.495052
0.530044
0.605172
0.703154
0.7961
0.876479
0.946187
1.0058
1.043
1.0427
0.99768
0.942376
0.90256
0.876384
0.859054
0.837914
0.824156
0.818572
0.818402
0.824504
0.832974
0.858549
0.874037
0.873018
0.85257
0.79291
0.65774
0.542623
0.500606
0.488544
0.482673
0.479222
0.469442
0.133194
0.133876
0.458839
0.46831
0.469362
0.471554
0.478348
0.503607
0.579154
0.680198
0.759411
0.827647
0.885475
0.939726
0.971781
0.956913
0.914611
0.886419
0.871651
0.868844
0.871419
0.873856
0.866984
0.857544
0.843173
0.832562
0.828866
0.820472
0.809559
0.804254
0.795554
0.770781
0.69634
0.582295
0.516779
0.491254
0.481296
0.476167
0.472489
0.453842
0.134232
0.132213
0.457867
0.46378
0.465225
0.468626
0.478684
0.523501
0.629633
0.723257
0.784184
0.833712
0.876769
0.895097
0.873529
0.837967
0.813753
0.804998
0.818302
0.847736
0.875513
0.915212
0.940045
0.943978
0.926316
0.884465
0.844776
0.819964
0.783872
0.744842
0.707732
0.663585
0.595692
0.527302
0.493745
0.480631
0.473004
0.46892
0.46542
0.441048
0.134931
0.131363
0.456858
0.459246
0.461148
0.465922
0.478839
0.532418
0.650758
0.739465
0.789994
0.828829
0.842741
0.828249
0.795844
0.766061
0.753755
0.752321
0.771732
0.811815
0.869695
0.9192
0.964762
0.990305
0.992937
0.963863
0.902387
0.834099
0.783379
0.727457
0.667688
0.606067
0.541872
0.495353
0.474816
0.468857
0.464183
0.461252
0.458344
0.432465
0.135208
0.131114
0.454907
0.455087
0.457337
0.462819
0.478275
0.533195
0.653856
0.741263
0.788768
0.814727
0.817101
0.796957
0.761238
0.738034
0.730694
0.731157
0.743732
0.772796
0.828889
0.891844
0.950662
0.990348
1.00668
0.99602
0.955342
0.88634
0.803367
0.731439
0.663405
0.592735
0.526272
0.483416
0.463155
0.457566
0.455549
0.453694
0.451612
0.42779
0.135241
0.131119
0.450313
0.450292
0.453049
0.458937
0.475421
0.530771
0.650852
0.738468
0.783007
0.803211
0.804028
0.784721
0.750301
0.734607
0.728783
0.729316
0.737427
0.756472
0.787622
0.824557
0.880634
0.94505
0.986314
0.99132
0.964433
0.914903
0.846063
0.761734
0.675835
0.597762
0.527742
0.482745
0.459369
0.449039
0.447882
0.446817
0.445455
0.425679
0.135168
0.131283
0.438925
0.445463
0.4485
0.45408
0.46789
0.519672
0.634793
0.725944
0.768035
0.783985
0.782316
0.763596
0.74616
0.73746
0.734137
0.736597
0.745499
0.760663
0.781499
0.792687
0.814465
0.848758
0.897871
0.941637
0.945714
0.913277
0.857939
0.792861
0.71775
0.631742
0.548139
0.489184
0.459686
0.444692
0.441897
0.441003
0.440007
0.424687
0.134749
0.131963
0.425184
0.439569
0.443022
0.44812
0.459111
0.492757
0.579863
0.681423
0.725323
0.734938
0.733653
0.734289
0.745095
0.747002
0.755576
0.775642
0.794371
0.80084
0.799795
0.788278
0.780335
0.77833
0.792814
0.822277
0.864742
0.880686
0.850953
0.798194
0.742475
0.677899
0.604808
0.521793
0.464897
0.443737
0.437864
0.436236
0.435241
0.424052
0.133207
0.132764
0.413282
0.433775
0.436974
0.441143
0.449298
0.467228
0.514878
0.590712
0.640769
0.666446
0.689245
0.719126
0.746935
0.772999
0.818809
0.854486
0.863187
0.854291
0.823969
0.787598
0.753001
0.724481
0.718159
0.729869
0.75753
0.792158
0.809619
0.789841
0.746743
0.699548
0.643439
0.567812
0.48238
0.443963
0.435222
0.432273
0.431068
0.423595
0.131308
0.133154
0.40463
0.427382
0.43029
0.433438
0.438359
0.446947
0.474153
0.527664
0.581781
0.627012
0.673096
0.719072
0.762237
0.829833
0.878563
0.899027
0.89295
0.866301
0.823131
0.776674
0.720403
0.686964
0.674941
0.678708
0.692815
0.720571
0.749705
0.758299
0.74261
0.704924
0.659557
0.590717
0.494099
0.44432
0.432908
0.428797
0.42723
0.422977
0.130181
0.133248
0.399434
0.421756
0.423722
0.425594
0.427692
0.433995
0.455787
0.501151
0.560165
0.61827
0.674259
0.733594
0.806177
0.866024
0.899449
0.906179
0.890183
0.851866
0.795682
0.738534
0.695074
0.670519
0.6608
0.661197
0.667497
0.684904
0.716719
0.734563
0.729894
0.704156
0.662512
0.596457
0.496567
0.444147
0.430243
0.425558
0.423611
0.421735
0.129728
0.133226
0.396918
0.415906
0.417476
0.41847
0.41945
0.428906
0.452153
0.497614
0.559476
0.622563
0.691989
0.765782
0.827022
0.871249
0.894211
0.887406
0.849696
0.791945
0.743708
0.713449
0.688664
0.66974
0.661161
0.66058
0.664301
0.673879
0.698568
0.720248
0.719342
0.700123
0.661314
0.595724
0.495716
0.442868
0.427168
0.422145
0.419737
0.418813
0.129656
0.133025
0.395915
0.411358
0.412144
0.412868
0.415023
0.428603
0.454525
0.504079
0.571368
0.64586
0.714872
0.774692
0.825432
0.855484
0.850992
0.808714
0.763036
0.733884
0.718232
0.711329
0.697015
0.683996
0.673455
0.66754
0.667462
0.672916
0.680376
0.697083
0.703317
0.68988
0.65513
0.589152
0.490321
0.438332
0.423558
0.41824
0.415525
0.410867
0.129705
0.132139
0.395448
0.406556
0.407645
0.409003
0.413881
0.431374
0.471003
0.536
0.604593
0.665659
0.718845
0.769384
0.799404
0.787763
0.747143
0.713028
0.695415
0.696777
0.710129
0.723851
0.735409
0.73581
0.72307
0.696863
0.679522
0.674052
0.663965
0.661747
0.665691
0.663564
0.633964
0.562398
0.471314
0.430171
0.418844
0.413719
0.4107
0.399266
0.130013
0.13022
0.39512
0.403392
0.404095
0.406421
0.414066
0.445049
0.510819
0.572087
0.62438
0.66948
0.712943
0.737171
0.725762
0.696068
0.666187
0.650177
0.647521
0.667262
0.702114
0.733282
0.766111
0.781218
0.780286
0.757272
0.715193
0.679621
0.658024
0.632056
0.616044
0.602802
0.572121
0.502236
0.444283
0.4211
0.41271
0.408611
0.405668
0.388546
0.130728
0.128831
0.39467
0.399412
0.40096
0.404362
0.414982
0.461047
0.536207
0.589431
0.630378
0.66685
0.687507
0.683701
0.662185
0.639497
0.624289
0.61809
0.621741
0.642981
0.682503
0.730064
0.769712
0.797406
0.807361
0.796892
0.760936
0.702735
0.659507
0.621309
0.584269
0.551639
0.510449
0.456584
0.422842
0.411206
0.405725
0.402993
0.400242
0.380059
0.131167
0.12812
0.393764
0.396983
0.398378
0.402379
0.415256
0.467036
0.545834
0.594368
0.630357
0.656713
0.661944
0.648516
0.628528
0.617122
0.611867
0.610053
0.614658
0.630891
0.658567
0.706027
0.756322
0.792672
0.809695
0.808267
0.784008
0.737008
0.674143
0.62219
0.575217
0.52791
0.478375
0.432459
0.408484
0.401494
0.398909
0.397174
0.395203
0.374389
0.131314
0.127898
0.391648
0.39315
0.39551
0.400227
0.414989
0.467504