/*--------------------------------*- C++ -*----------------------------------*\
| =========                 |                                                 |
| \\      /  F ield         | OpenFOAM: The Open Source CFD Toolbox           |
|  \\    /   O peration     | Version:  5.0                                   |
|   \\  /    A nd           | Web:      www.OpenFOAM.org                      |
|    \\/     M anipulation  |                                                 |
\*---------------------------------------------------------------------------*/
FoamFile
{
    version     2.0;
    format      ascii;
    class       volScalarField;
    location    "50";
    object      p;
}
// * * * * * * * * * * * * * * * * * * * * * * * * * * * * * * * * * * * * * //

dimensions      [0 2 -2 0 0 0 0];

internalField   nonuniform List<scalar> 
11644
(
0.0808076
0.0810239
0.081459
0.0821186
0.0830104
0.0841428
0.0855232
0.0871567
0.0890421
0.0911687
0.0935111
0.0960238
0.0986365
0.10125
0.103727
0.105923
0.107636
0.108689
0.108927
0.108224
0.106547
0.103924
0.100472
0.0963657
0.0918118
0.087023
0.082194
0.0774877
0.0730288
0.0689039
0.0651671
0.0618441
0.0589434
0.0564596
0.0543788
0.052683
0.0513535
0.050373
0.0497275
0.0494068
0.0804835
0.0806951
0.0811212
0.0817685
0.0826462
0.0837653
0.0851366
0.0867696
0.088669
0.0908312
0.0932391
0.0958549
0.0986147
0.101425
0.104135
0.106577
0.108591
0.109893
0.110298
0.109662
0.107935
0.105149
0.101445
0.0970372
0.092172
0.0870972
0.0820289
0.0771392
0.0725513
0.0683458
0.064567
0.0612321
0.0583394
0.0558753
0.0538199
0.0521506
0.0508455
0.0498851
0.0492538
0.0489403
0.0797252
0.0799255
0.0803296
0.0809464
0.0817888
0.0828729
0.0842178
0.0858433
0.0877679
0.0900052
0.0925581
0.0954102
0.0985158
0.101796
0.105083
0.108187
0.110873
0.112816
0.113678
0.113224
0.111372
0.10816
0.103807
0.0986291
0.0929891
0.0872106
0.0815621
0.0762345
0.0713473
0.0669611
0.063096
0.0597438
0.0568789
0.0544692
0.0524803
0.0508789
0.0496355
0.0487253
0.048129
0.0478333
0.0785548
0.0787362
0.0791033
0.0796678
0.0804478
0.0814665
0.0827541
0.0843462
0.0862833
0.0886075
0.0913562
0.0945527
0.0981903
0.102218
0.106477
0.110745
0.114657
0.11775
0.119465
0.119366
0.117279
0.113261
0.107693
0.101105
0.0940825
0.0870909
0.0804851
0.0744751
0.0691501
0.0645293
0.0605802
0.0572463
0.0544642
0.0521718
0.0503125
0.0488369
0.0477042
0.0468824
0.0463473
0.0460824
0.077041
0.0771937
0.0775038
0.0779861
0.078663
0.0795657
0.0807362
0.0822285
0.0841101
0.0864616
0.0893744
0.0929427
0.0972324
0.10227
0.107939
0.113996
0.119892
0.125016
0.128291
0.128897
0.126423
0.120969
0.113277
0.104293
0.0951002
0.0862799
0.0783339
0.071447
0.0656457
0.0608346
0.0568905
0.0536833
0.0510952
0.049024
0.0473855
0.0461121
0.045151
0.0444629
0.0440188
0.0437997
0.0752454
0.0753567
0.0755838
0.0759429
0.0764592
0.0771687
0.0781233
0.0793938
0.0810757
0.0832941
0.0862075
0.0900137
0.0949319
0.101125
0.108685
0.117468
0.126592
0.13502
0.141055
0.143012
0.139943
0.132043
0.120794
0.107913
0.0952973
0.0838395
0.0742078
0.0664492
0.0603044
0.055519
0.0518112
0.0489482
0.0467439
0.0450525
0.043763
0.0427922
0.0420784
0.0415779
0.0412595
0.0411033
0.0732348
0.0732906
0.0734053
0.0735936
0.0738791
0.0742971
0.0749014
0.0757709
0.0770205
0.078816
0.081387
0.085072
0.0903194
0.0976945
0.107566
0.119761
0.128627
0.142364
0.153764
0.159958
0.15825
0.148512
0.133043
0.115278
0.0933891
0.0783751
0.0668754
0.0583726
0.0523809
0.0480972
0.045059
0.0428987
0.0413632
0.0402722
0.0394991
0.0389552
0.0385786
0.0383276
0.0381738
0.0380992
0.0710996
0.0710871
0.0710618
0.0710331
0.0710164
0.0710365
0.0711353
0.0713802
0.0718792
0.0728065
0.0744228
0.0771141
0.081798
0.0885937
0.0993453
0.114042
0.134093
0.157248
0.17959
0.193749
0.192381
0.174534
0.146667
0.117461
0.0924929
0.0729373
0.0595715
0.0458063
0.0408651
0.0381032
0.0364354
0.0354926
0.0350006
0.0347796
0.0347153
0.0347338
0.034788
0.0348487
0.0348972
0.0349223
0.0689567
0.0688676
0.0686837
0.0684043
0.0680292
0.0675601
0.0670078
0.0663988
0.0657891
0.0652934
0.0651131
0.0655016
0.0675561
0.0750903
0.0846797
0.101473
0.125848
0.161828
0.204379
0.239086
0.24509
0.214513
0.164005
0.115418
0.0788857
0.05027
0.0385699
0.0265721
0.0251669
0.0254176
0.0260375
0.026947
0.0279121
0.0288366
0.0296618
0.0303612
0.0309227
0.0313429
0.0316217
0.0317593
0.0669405
0.066775
0.0664304
0.0658934
0.0651413
0.0641414
0.0628542
0.0612336
0.0592312
0.056815
0.053986
0.0507286
0.0476126
0.0521976
0.0549741
0.0691989
0.0955721
0.144763
0.226497
0.320086
0.351068
0.276607
0.16368
0.0814455
0.0323274
0.00781859
0.00547894
0.00146352
0.00611163
0.0107623
0.0145608
0.0178927
0.0206359
0.0229031
0.0247261
0.0261686
0.0272688
0.0280647
0.0285812
0.028834
0.0651901
0.064959
0.0644758
0.0637137
0.0626256
0.0611404
0.0591596
0.0565472
0.0531117
0.0485993
0.0426846
0.0347703
0.0245614
0.0217533
0.00948855
0.00789103
0.013433
0.0409228
0.14785
0.395108
0.556218
0.278874
0.0247719
-0.0588068
-0.0678399
-0.0576888
-0.0383076
-0.0262459
-0.0139903
-0.00391631
0.00345448
0.00944423
0.0139962
0.0176172
0.0204004
0.0225494
0.0241488
0.0252893
0.0260206
0.0263776
0.0638312
0.0635576
0.0629845
0.0620748
0.0607632
0.0589486
0.0564851
0.0531593
0.0486611
0.0425127
0.0340888
0.02217
0.00543801
-0.00772963
-0.039176
-0.0710344
-0.121825
-0.206228
-0.434957
-0.776086
-0.36043
-0.205553
-0.127391
-0.0814306
-0.0498446
-0.0304598
-0.0155857
-0.00516104
0.00301933
0.00901958
0.0137047
0.0172235
0.019908
0.0218796
0.0232754
0.0241643
0.0245979
0.0629548
0.062671
0.0620775
0.0611338
0.0597711
0.0578787
0.0553043
0.0518045
0.0470567
0.0404931
0.0314305
0.0185373
-0.000134039
-0.021234
-0.0625473
-0.119734
-0.219883
-0.398246
-0.660284
-1.03227
-0.514146
-0.277945
-0.163443
-0.104629
-0.0608193
-0.0376093
-0.021059
-0.00909055
-2.8424e-05
0.00665926
0.0118013
0.0156534
0.0185728
0.0207108
0.0222198
0.0231791
0.023647
0.0625966
0.0623373
0.0617985
0.0609442
0.0597206
0.0580305
0.055771
0.0527322
0.048715
0.0432614
0.0359928
0.0260606
0.0121904
-0.00793475
-0.0390692
-0.0923448
-0.191882
-0.417259
-0.719284
-0.614963
-0.408186
-0.252771
-0.151627
-0.0992789
-0.0549678
-0.0335577
-0.0186216
-0.00736467
0.00104193
0.00737978
0.0122388
0.0159153
0.0187067
0.0207616
0.0222152
0.0231418
0.0235944
0.0627262
0.0625198
0.0620968
0.061432
0.0605
0.0592214
0.0575978
0.0554997
0.0529192
0.0496779
0.0459028
0.0415806
0.037057
0.0260755
0.0209224
0.00786562
-0.00139727
-0.0135505
-0.412869
-1.04215
-1.11423
-0.837153
-0.486798
-0.308235
-0.190431
-0.111291
-0.0725556
-0.0351487
-0.0196269
-0.00884736
-0.000348685
0.00604089
0.011042
0.0149253
0.0179397
0.0202579
0.0219918
0.0232293
0.0240247
0.0244149
0.0632521
0.0631124
0.0628388
0.0624097
0.0618709
0.0610191
0.0601443
0.0590745
0.0579958
0.0568698
0.0562852
0.0560775
0.0590865
0.058229
0.0699673
0.0992211
0.154487
0.229528
-0.0692379
-0.697328
-0.806245
-0.554697
-0.341955
-0.204025
-0.119885
-0.0596519
-0.0348285
-0.00827244
-0.000184676
0.00543055
0.0101581
0.0137863
0.0168453
0.0193182
0.0213432
0.0229521
0.0241965
0.0251029
0.0256957
0.0259888
0.0640462
0.0639755
0.0638393
0.0636349
0.0633792
0.0630493
0.0627371
0.0624357
0.0623216
0.0622814
0.0632034
0.063878
0.0673912
0.0735514
0.0764835
0.0818518
0.0775283
0.0288165
-0.123629
-0.363364
-0.485768
-0.420048
-0.266658
-0.133041
-0.0374783
-0.0053229
0.0173035
0.0191676
0.0201494
0.0208857
0.0217847
0.0225801
0.0236202
0.0245818
0.025535
0.0263581
0.0270533
0.0275835
0.0279439
0.0281252
0.0649683
0.0649555
0.0649376
0.0649145
0.0649037
0.0649025
0.0649571
0.0650504
0.0652551
0.0653914
0.0657366
0.0652233
0.063502
0.0606041
0.0581203
0.025882
-0.0367955
-0.186884
-0.308169
-0.50295
-0.649284
-0.57902
-0.327692
-0.102596
0.0205298
0.0426193
0.0490858
0.0441283
0.0375978
0.0352783
0.0324801
0.0308534
0.0302155
0.0298518
0.0298942
0.0300028
0.0302064
0.0303843
0.0305278
0.0306026
0.0658949
0.0659282
0.0660033
0.0661179
0.0662857
0.0664961
0.0667634
0.0670431
0.0672879
0.0672846
0.06682
0.0650401
0.0606953
0.0512113
0.0421155
0.00181246
-0.072422
-0.282237
-0.522588
-0.768965
-1.00571
-0.95246
-0.544761
-0.127065
0.0518854
0.0743727
0.0707247
0.0590285
0.0501802
0.0444103
0.0401669
0.037362
0.0356299
0.0344886
0.0338729
0.0334994
0.0333263
0.0332433
0.0332147
0.0332067
0.0667279
0.066798
0.0669463
0.0671693
0.0674746
0.0678502
0.0682845
0.0687388
0.0690899
0.0691883
0.0686126
0.06675
0.0623191
0.0531219
0.0389991
0.00160309
-0.0599582
-0.181115
-0.361039
-0.564768
-0.693669
-0.624605
-0.357609
-0.0892313
0.0459896
0.0669513
0.0687798
0.0595539
0.053412
0.0482367
0.0442931
0.041466
0.0394991
0.0381149
0.0372098
0.0365975
0.0362111
0.035972
0.0358344
0.035773
0.0673939
0.0674944
0.0677027
0.0680174
0.0684418
0.0689725
0.0695842
0.0702614
0.0708596
0.0712666
0.0710515
0.0696237
0.0655337
0.0573075
0.0412818
0.0082636
-0.0445175
-0.133117
-0.24175
-0.333996
-0.360871
-0.297012
-0.175596
-0.0629666
0.00460643
0.0339589
0.0469901
0.0501157
0.0495341
0.0472687
0.0452127
0.0433635
0.0418756
0.0407129
0.0398474
0.0392154
0.0387682
0.0384706
0.0382849
0.0381983
0.0678407
0.0679663
0.0682231
0.0686156
0.0691438
0.0698193
0.0706112
0.0715245
0.07244
0.0732032
0.0735457
0.0725698
0.0694058
0.060775
0.0441513
0.00943047
-0.04998
-0.142202
-0.241639
-0.302825
-0.290472
-0.214807
-0.124074
-0.0560088
-0.0164095
0.00815467
0.030767
0.0411719
0.0443031
0.0450261
0.0448763
0.044144
0.0433645
0.0426115
0.0419501
0.041423
0.0410133
0.0407225
0.0405321
0.0404402
0.0680322
0.0681762
0.0684679
0.0689194
0.0695297
0.070324
0.0712799
0.0724009
0.0736486
0.0747648
0.075668
0.075211
0.0723014
0.0639562
0.0365143
-0.0251016
-0.14043
-0.304228
-0.446183
-0.48324
-0.399029
-0.250398
-0.128845
-0.0535353
-0.0288897
0.0011434
0.0250942
0.0364633
0.0413659
0.0438314
0.0447785
0.0448731
0.0446437
0.0442521
0.0437573
0.0433695
0.0430206
0.0427656
0.0425861
0.0424995
0.0679449
0.0680981
0.0684075
0.0688902
0.0695522
0.0704233
0.0715092
0.0727696
0.0743554
0.0758073
0.0772808
0.0775428
0.0750435
0.0669385
0.0303466
-0.0639859
-0.233628
-0.450362
-0.615318
-0.638159
-0.511881
-0.323004
-0.177666
-0.0891925
-0.0518798
-0.00851964
0.0203018
0.0339609
0.040149
0.0439051
0.0453237
0.0459716
0.0460288
0.0458335
0.0455128
0.0451889
0.0448823
0.0446456
0.0444753
0.0443917
0.0675673
0.0677181
0.0680227
0.0685003
0.069165
0.0700495
0.0711911
0.072608
0.0743955
0.0764436
0.0787847
0.0807539
0.0811228
0.0750892
0.0442817
-0.0499779
-0.211605
-0.406783
-0.545828
-0.562491
-0.457668
-0.304537
-0.182341
-0.101012
-0.0457405
-0.00272051
0.0222267
0.0350602
0.0415337
0.0453503
0.0468651
0.0476036
0.0477063
0.0475489
0.0472554
0.0469363
0.0466302
0.0463879
0.0462126
0.046126
0.0669025
0.0670366
0.0673087
0.0677344
0.0683315
0.0691328
0.0701813
0.0715251
0.0732509
0.0753716
0.0779426
0.0803824
0.082042
0.0792334
0.0577781
-0.00574745
-0.117727
-0.253923
-0.353479
-0.372204
-0.311999
-0.216865
-0.131129
-0.0648468
-0.0167389
0.0154492
0.0318583
0.0410957
0.0458929
0.0484984
0.0494988
0.0498491
0.0497257
0.0494155
0.0490214
0.0486262
0.0482714
0.0479909
0.0477938
0.0476958
0.0659782
0.0660819
0.0662912
0.0666147
0.0670624
0.067652
0.0684023
0.0693313
0.0704571
0.071718
0.0730365
0.0735543
0.0721928
0.0672559
0.0510363
0.004315
-0.077356
-0.175338
-0.251208
-0.273799
-0.241256
-0.175453
-0.103604
-0.0417521
0.00215944
0.0284624
0.041398
0.0482566
0.0513536
0.0526125
0.0527878
0.0525011
0.0519634
0.0513575
0.0507635
0.0502256
0.0497777
0.0494316
0.049197
0.0490798
0.0648523
0.0649161
0.0650422
0.0652276
0.0654681
0.06575
0.066053
0.0663199
0.0664611
0.0662409
0.0652519
0.0623641
0.055057
0.0423573
0.020721
-0.0281144
-0.10381
-0.189257
-0.259494
-0.290319
-0.273131
-0.216283
-0.139404
-0.0642622
-0.00673751
0.0292951
0.0468429
0.053946
0.0563009
0.056648
0.0560684
0.0551508
0.0541512
0.0532008
0.0523642
0.0516542
0.0510905
0.0506659
0.0503853
0.0502452
0.0636056
0.0636289
0.0636709
0.0637167
0.0637482
0.0637201
0.063577
0.0631908
0.0623769
0.0607647
0.0576681
0.05175
0.0399536
0.0196625
-0.0105488
-0.0657724
-0.147481
-0.239771
-0.32001
-0.366347
-0.364055
-0.313569
-0.228189
-0.130588
-0.0443009
0.0153533
0.0468239
0.0581244
0.0606276
0.0602333
0.0589715
0.0574769
0.0560261
0.0547488
0.0536802
0.0528075
0.0521338
0.0516363
0.0513128
0.0511514
0.0623199
0.0623114
0.0622898
0.0622291
0.0621082
0.0618563
0.0614085
0.060596
0.0591963
0.0567963
0.0526522
0.0454339
0.0327031
0.0104412
-0.023262
-0.0761169
-0.154322
-0.248401
-0.335572
-0.395755
-0.410395
-0.370717
-0.287549
-0.180342
-0.0756904
0.00255141
0.046804
0.0626302
0.0646421
0.0633183
0.0612573
0.059206
0.0573687
0.0558225
0.0545713
0.053581
0.0528283
0.052283
0.0519307
0.0517558
0.061058
0.061034
0.060981
0.0608728
0.0606862
0.0603519
0.0598052
0.0588889
0.0573962
0.0549743
0.0509694
0.0444016
0.0333766
0.0147692
-0.0146552
-0.0575287
-0.118957
-0.196491
-0.274719
-0.334375
-0.357492
-0.334212
-0.266845
-0.170415
-0.0707168
0.00634549
0.0507308
0.0662714
0.0673988
0.0651255
0.0624165
0.0599504
0.0578808
0.0562137
0.0548958
0.0538736
0.0531051
0.0525543
0.0521999
0.0520244
0.0598472
0.0598247
0.0597757
0.0596786
0.059515
0.0592282
0.0587695
0.0580124
0.0567983
0.0548601
0.0516642
0.046533
0.0379794
0.024051
0.00129142
-0.0318791
-0.0771734
-0.133653
-0.191867
-0.23759
-0.256853
-0.241221
-0.1908
-0.117251
-0.040998
0.0180346
0.0516759
0.0637056
0.0651788
0.0634994
0.0612194
0.059033
0.0571942
0.0557104
0.0545316
0.0536148
0.0529225
0.0524253
0.0521042
0.0519448
0.0586829
0.0586758
0.058659
0.058619
0.0585453
0.0583998
0.0581531
0.057714
0.0569698
0.0557112
0.053485
0.0496905
0.0428668
0.030931
0.0104952
-0.0198654
-0.0595641
-0.105421
-0.150048
-0.183319
-0.195757
-0.182215
-0.143637
-0.0892488
-0.0333678
0.0109867
0.0381353
0.0505285
0.0556429
0.0573225
0.0571003
0.056201
0.0552123
0.054291
0.0534887
0.0528277
0.0523067
0.0519224
0.0516693
0.0515422
0.0575355
0.0575521
0.0575846
0.0576268
0.0576807
0.0577262
0.0577508
0.0576964
0.0574814
0.0569297
0.0556254
0.0525956
0.0453475
0.0304037
0.00517166
-0.0310645
-0.0752476
-0.120912
-0.16037
-0.186316
-0.193505
-0.180155
-0.148614
-0.10558
-0.059696
-0.018545
0.0125251
0.0318361
0.0428631
0.0489081
0.0514141
0.0523123
0.0524741
0.0523043
0.0520003
0.0516735
0.0513748
0.0511355
0.0509694
0.0508836
0.0563589
0.0564007
0.0564848
0.0566152
0.0568009
0.0570415
0.0573404
0.0576628
0.0579466
0.0580253
0.0578412
0.054343
0.0439829
0.022078
-0.0129477
-0.0593353
-0.110441
-0.158052
-0.195034
-0.216535
-0.220022
-0.205251
-0.174679
-0.133052
-0.0866374
-0.0420742
-0.00557357
0.0191942
0.0336582
0.0419092
0.04654
0.0488214
0.0498711
0.0503109
0.0504315
0.0503973
0.0502994
0.0501934
0.0501081
0.0500612
0.0550988
0.0551599
0.0552842
0.0554824
0.0557725
0.0561704
0.056703
0.0573698
0.0581552
0.0588797
0.0590588
0.0551729
0.0420203
0.0157545
-0.0247418
-0.0761194
-0.129642
-0.176272
-0.209466
-0.226017
-0.225035
-0.207014
-0.174477
-0.131631
-0.0846236
-0.0408378
-0.00642072
0.0168409
0.0312362
0.0394054
0.0440409
0.0466111
0.048011
0.0487267
0.0490736
0.0492059
0.0492327
0.0492127
0.0491814
0.0491602
0.0537033
0.0537709
0.0539082
0.0541293
0.0544564
0.0549146
0.0555435
0.0563662
0.0573921
0.0583849
0.0587092
0.0549584
0.0426231
0.0177134
-0.0205876
-0.0682298
-0.116641
-0.157365
-0.184717
-0.195899
-0.190381
-0.169508
-0.136538
-0.0965374
-0.0558896
-0.0207198
0.00557266
0.0230064
0.0338421
0.0400847
0.043758
0.0458548
0.0470659
0.0477132
0.0480538
0.0482046
0.048258
0.0482628
0.0482504
0.0482405
0.0521434
0.0521995
0.0523118
0.0524909
0.0527523
0.0531114
0.0535917
0.0541939
0.0548946
0.0553133
0.0544822
0.0506253
0.0404934
0.0200386
-0.0118334
-0.0516342
-0.0919615
-0.125417
-0.146911
-0.153898
-0.146166
-0.125518
-0.0955747
-0.0613669
-0.0284479
-0.00131846
0.0181976
0.0307092
0.0381085
0.0422961
0.0447135
0.0460414
0.0467805
0.047147
0.0473202
0.0473757
0.0473758
0.0473528
0.0473269
0.0473117
0.0504338
0.050462
0.0505137
0.0505887
0.0506836
0.0507809
0.0508518
0.0508099
0.0504894
0.0492839
0.0456306
0.0391888
0.0282045
0.00904592
-0.0191321
-0.0532203
-0.0870985
-0.114607
-0.131442
-0.135495
-0.126744
-0.106987
-0.0795168
-0.0486291
-0.0189322
0.00579715
0.0238186
0.0353593
0.0416578
0.04464
0.0460142
0.0465975
0.0468028
0.0468115
0.0467389
0.0466373
0.0465368
0.0464525
0.0463917
0.0463607
0.0486386
0.0486315
0.0486081
0.048555
0.0484444
0.0482204
0.0477864
0.0469564
0.045349
0.0422315
0.0355651
0.0247328
0.00898074
-0.0142385
-0.0438207
-0.0764402
-0.107032
-0.130653
-0.144005
-0.145651
-0.135782
-0.116027
-0.089127
-0.0585084
-0.0278683
-0.000677537
0.0205329
0.0348847
0.0429608
0.0462476
0.0470882
0.0470867
0.0468121
0.0464804
0.046142
0.0458769
0.045664
0.0455089
0.0454062
0.0453555
0.0468472
0.0468108
0.046727
0.0465766
0.0463109
0.0458564
0.0450768
0.0437479
0.0413248
0.0369268
0.0290262
0.0154301
-0.00195679
-0.0294318
-0.0614229
-0.094468
-0.124072
-0.146099
-0.157875
-0.158445
-0.148204
-0.128667
-0.102137
-0.0714651
-0.0398085
-0.0104294
0.0138357
0.0313909
0.042294
0.0465117
0.0476108
0.0471873
0.046528
0.0459169
0.0453872
0.0449799
0.0446727
0.0444585
0.0443212
0.0442539
0.0451333
0.045083
0.0449687
0.0447984
0.044481
0.0439704
0.0431301
0.0417598
0.0394283
0.0355169
0.0287805
0.0173616
-6.16612e-05
-0.0248803
-0.0551822
-0.0870352
-0.115872
-0.137773
-0.150174
-0.152108
-0.14388
-0.126688
-0.102457
-0.0736341
-0.0430246
-0.0137673
0.010876
0.0289181
0.0401899
0.0457726
0.0472478
0.046602
0.0457161
0.0449329
0.0442962
0.0438229
0.0434747
0.0432366
0.0430861
0.0430122
0.0435257
0.0434845
0.0433947
0.0432444
0.0429945
0.0426009
0.0419702
0.0409706
0.0393404
0.0366924
0.0322631
0.0247407
0.0125838
-0.00546093
-0.0290447
-0.055787
-0.0819393
-0.103796
-0.118513
-0.124469
-0.121227
-0.109336
-0.090137
-0.0656646
-0.0385354
-0.011852
0.0109525
0.0275346
0.0376434
0.042793
0.0446748
0.0445775
0.0439315
0.04326
0.0427089
0.0422993
0.0419983
0.0417927
0.0416629
0.0415984
0.0420033
0.0419832
0.0419401
0.0418681
0.0417509
0.0415696
0.041277
0.0408121
0.0400278
0.038708
0.0363933
0.0322013
0.024738
0.0125935
-0.00472569
-0.0261511
-0.0491817
-0.0708239
-0.0882997
-0.0994327
-0.102827
-0.0979546
-0.085195
-0.0658677
-0.0423023
-0.0176723
0.00426172
0.0205515
0.0306436
0.0361841
0.0392562
0.0406808
0.0408995
0.0407508
0.0405523
0.0403751
0.0402278
0.0401209
0.0400499
0.0400125
0.0405205
0.0405266
0.04054
0.0405632
0.040597
0.0406442
0.0406919
0.0407216
0.0406405
0.0402866
0.0391663
0.0362703
0.0303497
0.0203405
0.00571783
-0.0130155
-0.0343142
-0.0561271
-0.0761879
-0.092194
-0.102048
-0.104135
-0.0976893
-0.0830984
-0.0621134
-0.037835
-0.014359
0.00454042
0.0175354
0.025859
0.0316846
0.0354185
0.0369392
0.0376465
0.0379958
0.0381722
0.0382532
0.0382893
0.0383024
0.038304
0.039026
0.0390554
0.0391179
0.039222
0.039382
0.0396138
0.0399263
0.0403245
0.0407075
0.0407914
0.039636
0.0361956
0.0295831
0.019191
0.00485092
-0.0130761
-0.0336856
-0.0557205
-0.07746
-0.0967077
-0.111009
-0.118013
-0.116066
-0.104846
-0.0854773
-0.06088
-0.0353069
-0.0129539
0.00416332
0.0162894
0.0249733
0.0304401
0.0330753
0.0345907
0.0354544
0.035966
0.0362628
0.0364339
0.0365269
0.036566
0.0374702
0.0375129
0.0376029
0.037752
0.0379827
0.0383158
0.0387741
0.0393591
0.0399675
0.0399504
0.0380198
0.0337723
0.0266214
0.0161025
0.00212128
-0.0150658
-0.0347014
-0.0559309
-0.0773118
-0.0968357
-0.112104
-0.120615
-0.120324
-0.11079
-0.0925508
-0.0685794
-0.04295
-0.0196815
-0.00105773
0.0124341
0.0218223
0.0274059
0.0303732
0.0322676
0.0333803
0.0340501
0.0344566
0.0346997
0.0348365
0.0348975
0.0358148
0.0358559
0.0359413
0.036083
0.0363045
0.0366243
0.03707
0.0376049
0.0380429
0.0374279
0.0350545
0.030773
0.0237629
0.0135567
0.000106531
-0.0160692
-0.0340839
-0.0528883
-0.0710721
-0.0869058
-0.0984408
-0.103787
-0.101619
-0.0916412
-0.0748558
-0.0537124
-0.0315544
-0.0116431
0.00412552
0.0153369
0.0226849
0.0269535
0.0294682
0.0310066
0.0319706
0.0325647
0.0329414
0.0331699
0.0332951
0.0333591
0.0340429
0.0340645
0.0341068
0.0341765
0.0342875
0.0344404
0.0346416
0.0347579
0.0344305
0.0329931
0.0301789
0.0255083
0.0178006
0.00658668
-0.00777479
-0.0239817
-0.0404351
-0.0555688
-0.0679586
-0.0764272
-0.0800436
-0.0782121
-0.0708516
-0.0585655
-0.0426923
-0.0252835
-0.00871235
0.00505007
0.0151596
0.0218678
0.0259628
0.0282863
0.0296942
0.030552
0.0311079
0.0314582
0.0316879
0.0318302
0.0319144
0.031954
0.0321764
0.0321624
0.0321278
0.0320662
0.0319708
0.0318061
0.0315213
0.0308781
0.0292208
0.026302
0.0219974
0.0152927
0.00474853
-0.00991615
-0.0274351
-0.0452623
-0.0607522
-0.0717963
-0.0772018
-0.0766683
-0.0706702
-0.0602296
-0.0466398
-0.0313043
-0.0156819
-0.0012314
0.01075
0.0194814
0.0249678
0.0279409
0.0293465
0.0299628
0.0302648
0.0304032
0.0304892
0.0305391
0.0305776
0.0306024
0.0306196
0.030628
0.0302861
0.0302302
0.0301057
0.0298902
0.0295481
0.0290048
0.028119
0.0265938
0.0233814
0.0183609
0.0114705
0.00130549
-0.0135131
-0.0327867
-0.0540684
-0.0736721
-0.0882061
-0.0953673
-0.0944211
-0.0859721
-0.0717926
-0.0542388
-0.0356431
-0.0179003
-0.00231257
0.0103879
0.0198829
0.0262134
0.0297848
0.0312648
0.0314175
0.0310056
0.03051
0.0300994
0.0298065
0.0295999
0.0294681
0.0293842
0.0293372
0.0293159
0.0284749
0.0283858
0.0281912
0.0278557
0.0273194
0.0264835
0.0251435
0.0229828
0.0188541
0.0122057
0.00295252
-0.0101343
-0.0279031
-0.0497129
-0.0725189
-0.0921912
-0.105145
-0.109246
-0.104168
-0.0911423
-0.0727022
-0.0518526
-0.0313597
-0.0131816
0.00166187
0.0129775
0.0210839
0.0265103
0.0297603
0.0312926
0.0315479
0.0310095
0.03001
0.0293341
0.0288303
0.028476
0.0282392
0.0280881
0.028
0.027959
0.0268337
0.0267335
0.0265171
0.0261466
0.0255507
0.0246112
0.0232129
0.0209474
0.0170149
0.0103888
0.000802543
-0.0126135
-0.0301177
-0.0508484
-0.0719854
-0.0898151
-0.101069
-0.103914
-0.0982144
-0.0852323
-0.0674876
-0.0478126
-0.0287489
-0.0120406
0.00148146
0.011718
0.019009
0.0238972
0.0269812
0.0287543
0.0295806
0.0295005
0.0287312
0.0280015
0.0274502
0.0270694
0.0268143
0.0266534
0.026559
0.0265147
0.0253978
0.0253117
0.025129
0.024821
0.0243396
0.0236032
0.0224939
0.0207363
0.0178864
0.0130486
0.00568207
-0.00476921
-0.0184302
-0.0345493
-0.0512441
-0.0659067
-0.0761257
-0.0804318
-0.0785239
-0.0711519
-0.0597719
-0.0460623
-0.0316512
-0.0178531
-0.00555092
0.00474503
0.0127683
0.0184823
0.022179
0.0243611
0.025718
0.0264152
0.0263174
0.0259397
0.0255826
0.0253298
0.0251598
0.0250552
0.0249944
0.0249654
0.0241362
0.0240833
0.0239732
0.0237938
0.0235254
0.0231347
0.0225661
0.0216914
0.0203161
0.0179393
0.0140709
0.00821922
3.37004e-05
-0.0102935
-0.0219629
-0.0336829
-0.0441305
-0.0522866
-0.0574943
-0.0594331
-0.0580662
-0.05351
-0.0459824
-0.0359811
-0.0243826
-0.0124259
-0.00147398
0.00733099
0.0135529
0.0174857
0.0200078
0.0218315
0.0228114
0.0231673
0.0232469
0.0232779
0.023295
0.0233108
0.0233209
0.0233246
0.0229712
0.0229577
0.0229324
0.0228974
0.0228551
0.0228248
0.0228046
0.022772
0.0226808
0.0223443
0.0214133
0.0193621
0.0156173
0.00983934
0.00198028
-0.00775374
-0.0190128
-0.0312754
-0.0437525
-0.0552637
-0.0643191
-0.0693691
-0.0691781
-0.0633533
-0.0524738
-0.038222
-0.0230543
-0.00947941
0.000931622
0.00805713
0.0127787
0.0162702
0.0186601
0.0199795
0.0206405
0.0210566
0.0213237
0.0214971
0.0216
0.0216467
0.0218204
0.0218418
0.0218897
0.0219724
0.0220818
0.0223244
0.022702
0.0232424
0.0239414
0.0247068
0.025195
0.0249348
0.023418
0.020169
0.0146772
0.006418
-0.00494616
-0.0193308
-0.0361617
-0.0538638
-0.0701751
-0.082505
-0.0883038
-0.0864198
-0.0770063
-0.0617507
-0.0436529
-0.0261447
-0.0118351
-0.00145461
0.00572169
0.0109818
0.0147482
0.0169305
0.0181433
0.0189241
0.0194266
0.0197464
0.019936
0.0200228
0.0206172
0.0206611
0.0207611
0.0209536
0.0209871
0.0214166
0.0219935
0.022777
0.0237049
0.0245673
0.025075
0.0250385
0.0241825
0.0220887
0.0181282
0.0114613
0.00134108
-0.0125117
-0.0302386
-0.0497394
-0.0687943
-0.0847669
-0.0932165
-0.0937922
-0.0861546
-0.0717963
-0.0536061
-0.0351629
-0.0193919
-0.00737035
0.00134435
0.00767688
0.0120993
0.01465
0.0161825
0.0171621
0.0178007
0.0182025
0.0184423
0.018553
0.0193173
0.0193536
0.0194315
0.0195615
0.0197442
0.0200886
0.0205995
0.0212735
0.021889
0.0221487
0.0220606
0.0216617
0.0207463
0.0188479
0.0152563
0.00923425
0.00022792
-0.0120055
-0.0271315
-0.0437931
-0.0599739
-0.0732092
-0.0809114
-0.0818113
-0.0757007
-0.0636963
-0.0482115
-0.0322279
-0.0181465
-0.00699085
0.00132426
0.0072836
0.0112408
0.0135412
0.0150194
0.0159487
0.0165736
0.0169583
0.0171917
0.017305
0.0179345
0.017948
0.0179771
0.0180306
0.0181241
0.0182864
0.0185129
0.0187053
0.0185594
0.0179646
0.0170953
0.0157473
0.0134496
0.00974338
0.00434051
-0.00277134
-0.0113966
-0.0211627
-0.0314751
-0.041454
-0.0500265
-0.0560064
-0.0583491
-0.0564934
-0.0504845
-0.041117
-0.0298825
-0.0185684
-0.00859208
-0.000626463
0.00527099
0.00939956
0.0120177
0.0135919
0.0146249
0.0152901
0.0157392
0.0160255
0.0162006
0.0162838
0.0165035
0.0164819
0.0164352
0.0163624
0.0162618
0.0161225
0.0158694
0.0152933
0.0141322
0.0123864
0.0100542
0.00645303
0.000950708
-0.00665343
-0.0158477
-0.0255258
-0.0343305
-0.0410803
-0.0451207
-0.046285
-0.0448558
-0.041307
-0.0360738
-0.0295735
-0.0222874
-0.0147183
-0.00741577
-0.000931475
0.00432514
0.00822236
0.0108981
0.0126475
0.0136681
0.0142819
0.0146943
0.0149712
0.0151671
0.0152987
0.0153823
0.0154234
0.0150864
0.0150245
0.0148909
0.0146709
0.0143385
0.0138419
0.0130412
0.0115838
0.00925107
0.00600899
0.00152308
-0.00520153
-0.014766
-0.0269517
-0.0402135
-0.0521921
-0.0605238
-0.0636867
-0.0613175
-0.054152
-0.0437583
-0.0319106
-0.0201478
-0.00955364
-0.000808745
0.00581339
0.010407
0.013348
0.0149669
0.0156104
0.0156548
0.0154588
0.0151843
0.0149612
0.01481
0.0147155
0.0146658
0.0146415
0.0146324
0.0146307
0.0137672
0.0136715
0.0134656
0.0131214
0.0125944
0.0117887
0.0105413
0.00833875
0.0049863
0.00035418
-0.00612397
-0.015509
-0.028222
-0.0434864
-0.0589431
-0.0715299
-0.0784487
-0.0782153
-0.0708395
-0.0578628
-0.0417754
-0.0251656
-0.010155
0.00201051
0.0109029
0.0165973
0.019381
0.0204326
0.0202418
0.0193171
0.0180819
0.0168819
0.0158871
0.0151499
0.0146326
0.0142859
0.0140637
0.0139274
0.0138508
0.0138172
0.0126263
0.0125143
0.012275
0.0118716
0.0112545
0.0102992
0.00886178
0.00637387
0.00254186
-0.00281553
-0.0102499
-0.0206068
-0.0340991
-0.0495993
-0.0644996
-0.075907
-0.0812242
-0.0789692
-0.0694312
-0.0545716
-0.0371055
-0.0198073
-0.00483094
0.00672394
0.0146618
0.0193855
0.019857
0.0205259
0.0200452
0.0190359
0.0178414
0.0166281
0.0155172
0.0146273
0.013983
0.0135431
0.0132546
0.0130738
0.01297
0.012923
0.0117085
0.0116036
0.0113818
0.011007
0.0104357
0.00955353
0.00823469
0.00607043
0.00259934
-0.00236328
-0.00922092
-0.0183941
-0.0299024
-0.0427526
-0.0549126
-0.0639623
-0.067953
-0.0659817
-0.0583962
-0.0467014
-0.032914
-0.0190506
-0.00677279
0.00294764
0.00982683
0.0140088
0.0157899
0.0163459
0.0161788
0.0157566
0.0152833
0.0147331
0.0140499
0.0133558
0.0128221
0.0124511
0.0122077
0.0120557
0.0119683
0.0119283
0.0110071
0.0109312
0.0107718
0.0105086
0.0101058
0.0095019
0.00858772
0.00716819
0.0048349
0.00139103
-0.00340572
-0.00971336
-0.0174513
-0.0260378
-0.034354
-0.0410603
-0.0450937
-0.0460141
-0.0439468
-0.0394093
-0.0331712
-0.0259802
-0.0184281
-0.0111095
-0.0045236
0.000977839
0.00514832
0.00797092
0.00962577
0.010522
0.0110688
0.0114507
0.0115656
0.0114183
0.0112154
0.0110573
0.0109555
0.0108949
0.0108618
0.0108467
0.0104504
0.0104158
0.0103456
0.0102355
0.0100726
0.00984276
0.00949933
0.00898751
0.0080908
0.00668115
0.00461495
0.00176169
-0.00191816
-0.00632932
-0.0112585
-0.0164621
-0.0217667
-0.026965
-0.0317267
-0.035693
-0.0383586
-0.0391007
-0.0373681
-0.0330447
-0.0265325
-0.0188014
-0.0111082
-0.00452238
0.000366414
0.00363809
0.00577364
0.00732886
0.00842269
0.00902786
0.00931917
0.00947348
0.00957994
0.00965347
0.00969998
0.00972158
0.0099475
0.00995384
0.00997177
0.0100109
0.010079
0.0102012
0.0103831
0.0106624
0.0109939
0.0113427
0.0116159
0.0116091
0.0110786
0.00968729
0.00694684
0.00236324
-0.00431526
-0.0128942
-0.0228974
-0.0335785
-0.043638
-0.051462
-0.055428
-0.0545377
-0.0488652
-0.0395407
-0.0286264
-0.0182857
-0.00994587
-0.00393406
0.000153257
0.0030735
0.00520093
0.00658953
0.00739696
0.00788593
0.00821413
0.00842978
0.00856018
0.00862093
0.00941271
0.00944882
0.0095299
0.00967335
0.00990168
0.0102584
0.010782
0.0115417
0.0125821
0.0139216
0.0154884
0.0170285
0.0181538
0.0182842
0.0166827
0.0127515
0.00609708
-0.00349658
-0.0158485
-0.0300976
-0.0445831
-0.0570299
-0.0651316
-0.0672472
-0.0630783
-0.0536299
-0.0411377
-0.028671
-0.0180632
-0.0100504
-0.00440483
-0.00036106
0.00257042
0.00457079
0.00576299
0.00651623
0.00701483
0.0073407
0.00753508
0.00762634
0.00879009
0.00883816
0.00894367
0.00912577
0.00941275
0.00984909
0.0104839
0.0113711
0.0125384
0.0139741
0.0156329
0.0173314
0.0187156
0.0192909
0.0185323
0.0156847
0.00994456
0.00100707
-0.0110231
-0.0253881
-0.0404456
-0.0538973
-0.0633982
-0.0670767
-0.0644795
-0.0564112
-0.0437726
-0.031964
-0.0212517
-0.0127791
-0.00658953
-0.00209038
0.00115368
0.00336924
0.00468534
0.00554894
0.00611319
0.00648401
0.00670329
0.00680728
0.00806307
0.0081042
0.00819355
0.00834695
0.00858913
0.00895577
0.00948247
0.0101785
0.0109584
0.0117869
0.0126962
0.0136504
0.0144636
0.0146793
0.0136587
0.0108264
0.00580142
-0.00161702
-0.0113121
-0.0225478
-0.034064
-0.0442766
-0.0515282
-0.0544368
-0.052509
-0.0462511
-0.0370938
-0.0273727
-0.018486
-0.0112412
-0.00574136
-0.00168611
0.00121313
0.00312609
0.0042755
0.00506074
0.00556522
0.00590261
0.00609998
0.00619544
0.00724806
0.00726629
0.00730617
0.00737658
0.00749086
0.00766416
0.00789706
0.00810857
0.00816115
0.00806885
0.00789888
0.00753777
0.00665979
0.00484898
0.00189515
-0.00211136
-0.00699207
-0.012538
-0.0183619
-0.0239619
-0.0289505
-0.032856
-0.0350612
-0.0351114
-0.0328415
-0.0284397
-0.0226223
-0.0164537
-0.0107453
-0.00596634
-0.00223879
0.000524777
0.00246648
0.00369649
0.00446712
0.00499388
0.0053389
0.00556928
0.00570681
0.00577352
0.00638988