/*--------------------------------*- C++ -*----------------------------------*\
| =========                 |                                                 |
| \\      /  F ield         | OpenFOAM: The Open Source CFD Toolbox           |
|  \\    /   O peration     | Version:  5.0                                   |
|   \\  /    A nd           | Web:      www.OpenFOAM.org                      |
|    \\/     M anipulation  |                                                 |
\*---------------------------------------------------------------------------*/
FoamFile
{
    version     2.0;
    format      ascii;
    class       surfaceScalarField;
    location    "50";
    object      phi;
}
// * * * * * * * * * * * * * * * * * * * * * * * * * * * * * * * * * * * * * //

dimensions      [0 3 -1 0 0 0 0];

internalField   nonuniform List<scalar> 
23266
(
-1.15668e-06
0.00625116
-2.32218e-06
0.00625117
-3.50605e-06
0.00625118
-4.71289e-06
0.00625121
-5.94045e-06
0.00625123
-7.17714e-06
0.00625124
-8.39852e-06
0.00625122
-9.56327e-06
0.00625116
-1.06091e-05
0.00625105
-1.14487e-05
0.00625084
-1.19682e-05
0.00625052
-1.20298e-05
0.00625006
-1.14747e-05
0.00624944
-1.01495e-05
0.00624867
-7.94277e-06
0.00624779
-4.72977e-06
0.00624679
-5.62736e-07
0.00624583
4.38858e-06
0.00624505
9.87087e-06
0.00624452
1.54657e-05
0.00624441
2.07227e-05
0.00624474
2.52258e-05
0.0062455
2.8663e-05
0.00624656
3.08723e-05
0.00624779
3.18416e-05
0.00624903
3.16791e-05
0.00625016
3.05747e-05
0.0062511
2.87543e-05
0.00625182
2.64421e-05
0.00625231
2.3834e-05
0.00625261
2.10897e-05
0.00625274
1.83371e-05
0.00625275
1.56525e-05
0.00625268
1.30791e-05
0.00625257
1.0636e-05
0.00625244
8.32393e-06
0.00625231
6.12989e-06
0.00625219
4.03176e-06
0.0062521
2.00033e-06
0.00625203
0.006252
-3.2236e-06
0.00625438
-6.4512e-06
0.00625439
-9.68549e-06
0.00625442
-1.29167e-05
0.00625444
-1.61161e-05
0.00625443
-1.9229e-05
0.00625435
-2.21641e-05
0.00625416
-2.47833e-05
0.00625378
-2.68896e-05
0.00625315
-2.82169e-05
0.00625217
-2.8425e-05
0.00625073
-2.71037e-05
0.00624874
-2.37987e-05
0.00624614
-1.80626e-05
0.00624294
-9.54017e-06
0.00623927
2.0174e-06
0.00623523
1.63721e-05
0.00623148
3.30831e-05
0.00622834
5.10969e-05
0.0062265
6.90418e-05
0.00622646
8.54539e-05
0.00622833
9.89719e-05
0.00623198
0.000108643
0.00623689
0.000114038
0.0062424
0.000115237
0.00624783
0.000112745
0.00625265
0.000107305
0.00625654
9.97363e-05
0.00625939
9.08037e-05
0.00626124
8.11555e-05
0.00626226
7.13094e-05
0.00626259
6.16211e-05
0.00626244
5.23136e-05
0.00626199
4.35067e-05
0.00626138
3.52387e-05
0.00626071
2.7488e-05
0.00626006
2.01904e-05
0.00625949
1.32537e-05
0.00625903
6.5658e-06
0.00625872
0.00625857
-5.22979e-06
0.00625961
-1.04466e-05
0.00625961
-1.56358e-05
0.00625961
-2.07638e-05
0.00625957
-2.57678e-05
0.00625943
-3.05451e-05
0.00625913
-3.49372e-05
0.00625855
-3.87104e-05
0.00625756
-4.15355e-05
0.00625598
-4.29678e-05
0.0062536
-4.24308e-05
0.00625019
-3.9219e-05
0.00624553
-3.25189e-05
0.00623944
-2.14685e-05
0.00623189
-5.3655e-06
0.00622317
1.6187e-05
0.00621368
4.3003e-05
0.00620466
7.41949e-05
0.00619715
0.000107808
0.00619289
0.000141114
0.00619315
0.000171131
0.00619831
0.000195112
0.006208
0.000211278
0.00622073
0.000218949
0.00623473
0.000218605
0.00624818
0.000211437
0.00625982
0.000199064
0.00626892
0.000183153
0.0062753
0.000165204
0.00627919
0.000146441
0.00628102
0.000127738
0.00628129
0.000109673
0.00628051
9.2586e-05
0.00627908
7.66298e-05
0.00627734
6.18169e-05
0.00627552
4.80618e-05
0.00627382
3.52117e-05
0.00627234
2.30707e-05
0.00627118
1.14146e-05
0.00627038
0.00626998
-7.46835e-06
0.00626708
-1.49188e-05
0.00626706
-2.23339e-05
0.00626702
-2.96717e-05
0.0062669
-3.6855e-05
0.00626661
-4.37575e-05
0.00626603
-5.01814e-05
0.00626497
-5.58313e-05
0.00626321
-6.02795e-05
0.00626043
-6.29243e-05
0.00625624
-6.29416e-05
0.00625021
-5.92576e-05
0.00624184
-5.05777e-05
0.00623076
-3.5449e-05
0.00621676
-1.23271e-05
0.00620005
1.97691e-05
0.00618158
6.0834e-05
0.0061636
0.000109971
0.00614801
0.000163957
0.00613891
0.000217991
0.00613912
0.00026652
0.00614978
0.000304438
0.00617008
0.00032865
0.00619651
0.000338262
0.00622511
0.000334603
0.00625184
0.000320138
0.00627429
0.000297974
0.00629108
0.000271094
0.00630218
0.000241977
0.00630831
0.000212431
0.00631056
0.000183691
0.00631003
0.0001565
0.0063077
0.000131234
0.00630435
0.000107995
0.00630057
8.67024e-05
0.00629682
6.71482e-05
0.00629337
4.90471e-05
0.00629044
3.20658e-05
0.00628816
1.5843e-05
0.0062866
0.00628582
-1.01968e-05
0.00627728
-2.04076e-05
0.00627727
-3.06508e-05
0.00627727
-4.09184e-05
0.00627717
-5.11671e-05
0.00627686
-6.13011e-05
0.00627616
-7.11465e-05
0.00627482
-8.04154e-05
0.00627248
-8.86564e-05
0.00626867
-9.51888e-05
0.00626278
-9.90146e-05
0.00625403
-9.86831e-05
0.00624151
-9.21635e-05
0.00622424
-7.68741e-05
0.00620147
-5.01247e-05
0.0061733
-8.42532e-06
0.00613988
4.82445e-05
0.00610693
0.000119529
0.00607672
0.000201187
0.00605725
0.000285079
0.00605523
0.00036071
0.00607415
0.000418601
0.00611219
0.000453676
0.00616144
0.000464473
0.00621432
0.00045507
0.00626124
0.000429793
0.00629956
0.000394306
0.00632657
0.000353573
0.00634291
0.000311265
0.00635062
0.000269847
0.00635198
0.00023074
0.00634914
0.000194665
0.00634377
0.000161862
0.00633715
0.000132249
0.00633019
0.000105545
0.00632352
8.13515e-05
0.00631757
5.9204e-05
0.00631259
3.86049e-05
0.00630876
1.90428e-05
0.00630616
0.00630487
-1.35512e-05
0.00629083
-2.72005e-05
0.00629092
-4.10549e-05
0.00629112
-5.52001e-05
0.00629132
-6.96936e-05
0.00629136
-8.45501e-05
0.00629102
-9.97149e-05
0.00628998
-0.000115023
0.00628778
-0.000130135
0.00628378
-0.00014443
0.00627707
-0.000156857
0.00626646
-0.000165605
0.00625026
-0.000167949
0.00622658
-0.000160302
0.00619382
-0.000136162
0.00614916
-9.16478e-05
0.00609537
-2.15371e-05
0.00302286
0.00301396
7.84889e-05
0.00299121
0.00298548
0.000200937
0.00296872
0.00296608
0.000331831
0.00296147
0.00296286
0.00045093
0.00297457
0.00298048
0.000540091
0.00300661
0.00301642
0.000589363
0.00305026
0.00306191
0.000598938
0.00309675
0.00310799
0.000578059
0.00628212
0.000535015
0.00634261
0.000480263
0.00638132
0.000421769
0.00640141
0.000364441
0.00640795
0.00031062
0.0064058
0.000261682
0.00639808
0.000217958
0.0063875
0.000179271
0.00637584
0.000145151
0.00636431
0.000114987
0.00635369
8.81084e-05
0.00634444
6.38352e-05
0.00633686
4.14939e-05
0.0063311
2.0429e-05
0.00632723
0.0063253
-1.74757e-05
0.0063083
-3.51866e-05
0.00630863
-5.33823e-05
0.00630932
-7.23019e-05
0.00631024
-9.21753e-05
0.00631123
-0.000113215
0.00631206
-0.000135598
0.00631237
-0.000159434
0.00631162
-0.000184707
0.00630905
-0.000211166
0.00630353
-0.000238208
0.0062935
-0.000264632
0.00627668
-0.000286942
0.00624889
-0.000300203
0.00310742
0.00309966
-0.000292868
0.00307608
0.00306574
-0.000108068
0.00303477
0.00302162
-0.000145824
0.00300093
-8.61362e-05
6.051e-05
0.00296384
-3.31373e-05
-3.17341e-06
0.00292971
4.21863e-05
-8.6639e-05
0.00291446
0.000133649
-0.000179481
0.00292767
0.000226384
-0.000264282
0.00296877
0.000302119
-0.000325445
0.00302685
0.000348854
-0.000356483
0.00308713
0.000366109
0.000712722
0.00315936
0.00317459
-0.000399366
-0.000365186
0.000636754
0.00320487
0.0032137
0.000553303
0.0032304
0.00323437
0.000471651
0.00648306
0.000395702
0.00648389
0.00032929
0.00647222
0.000271869
0.0064555
0.00022266
0.00643671
0.000180601
0.00641789
0.00014457
0.00640034
0.000113484
0.00638477
8.63388e-05
0.00637159
6.22208e-05
0.00636098
4.02957e-05
0.00635302
1.9796e-05
0.00634772
0.00634509
-2.16612e-05
0.00632996
-4.37349e-05
0.00633071
-6.66516e-05
0.00633223
-9.08495e-05
0.00633443
-0.000116787
0.00633717
-0.000144945
0.00634022
-0.000175833
0.00634325
-0.000209979
0.00634577
-0.000247918
0.00634699
-0.000290136
0.00634575
-0.000336987
0.00634035
-0.000388712
0.00632841
-0.000207285
0.00630374
-0.000236271
0.00311403
-0.000213891
0.000218232
0.0030849
-0.000227047
0.00303793
-0.0002307
0.000227544
0.000221001
0.00297479
-0.000205363
-0.00299043
0.000181481
0.00289729
-0.000146305
-0.00293247
9.87175e-05
0.00281977
-3.77895e-05
-0.0028807
-3.35577e-05
0.00277276
0.000114142
-0.00285335
-0.00019652
0.00278747
0.000276293
-0.00286724
-0.000346316
0.00286622
0.000403028
-0.00292293
-0.000443102
0.00297881
0.000467006
-0.00300272
-0.000475261
0.00308835
0.000471047
-0.00308413
-0.000457268
0.00317595
0.000440675
-0.000411298
0.00322856
0.000387608
-0.000356047
0.00325562
0.000330829
0.000494675
0.00659953
-0.000307987
-0.000303158
0.000398966
0.0065796
0.000321494
0.00654969
0.000258411
0.00651858
0.000207059
0.00648806
0.000164995
0.00645996
0.000130221
0.00643511
0.000101096
0.0064139
7.62712e-05
0.00639641
5.46308e-05
0.00638262
3.52346e-05
0.00637242
1.72696e-05
0.00636569
0.00636236
-2.55318e-05
0.0063555
-5.16678e-05
0.00635684
-7.90329e-05
0.0063596
-0.00010828
0.00636368
-0.000140117
0.006369
-0.000175324
0.00637543
-0.000214783
0.00638271
-0.00025951
0.00639049
-0.000310706
0.00639819
-0.000369804
0.00640485
-0.000438587
0.00640914
-0.000518868
0.00640869
-0.000291645
0.00639781
-0.000321299
-0.00313472
0.00315157
-0.000308493
0.00312327
-0.000353381
-0.00310022
0.00033033
-0.00304722
0.000375805
0.00153076
0.00153617
-0.000188752
-0.000206765
-0.00148668
0.000189617
0.00148926
-0.000192191
0.000181687
-0.00143437
0.00142988
-0.0001772
0.000135251
-0.00137555
0.0013576
-0.000117302
3.36632e-05
-0.00133321
0.0012994
1.45003e-07
-0.000110451
-0.00133649
0.00129777
0.000149171
-0.000243373
-0.00139132
0.00136314
0.000271551
-0.000315354
-0.00147216
0.00146155
0.000325962
-0.000322181
-0.00154699
0.00154982
0.00031935
-0.000289942
-0.00160049
0.00160882
0.000281616
-0.000497868
0.00331798
0.000445073
-0.00326518
-0.000396252
-0.00329091
0.0033355
0.000351658
0.000472907
0.00674296
-0.000305563
-0.000310773
0.000364077
0.00668843
0.000281712
0.00663205
0.000218788
0.00658151
0.000170499
0.00653635
0.000132845
0.00649761
0.000103051
0.00646491
7.89626e-05
0.00643798
5.90127e-05
0.00641636
4.19912e-05
0.00639964
2.69674e-05
0.00638744
1.31872e-05
0.00637947
0.00637555
-2.8322e-05
0.00638382
-5.7424e-05
0.00638594
-8.8104e-05
0.00639028
-0.000121208
0.00639679
-0.000157667
0.00640546
-0.000198527
0.00641629
-0.000245002
0.00642919
-0.000298527
0.00644402
-0.000360903
0.00646056
-0.000434442
0.00647839
-0.000522284
0.00649698
-0.000628668
0.00651507
-0.000368982
0.00652865
-0.000390517
-0.00318547
0.00321856
-0.000402074
-0.0031583
0.00320489
-0.0004894
0.000442811
-0.00155587
0.000263546
0.00156622
-0.000273889
-0.000755982
0.000153574
0.000758144
-0.000155735
-0.000715054
0.000172745
0.000716319
-0.000174009
-0.000650803
0.000165833
0.000645942
-0.000160972
8.80829e-05
-0.000579317
0.000562864
-7.163e-05
-7.19143e-05
-0.000559987
0.000538115
9.37861e-05
-0.000220485
-0.000624198
0.000612581
0.000232102
-0.000267396
-0.000720134
0.000721098
0.000266432
-0.000791877
-0.000238129
0.000798071
0.000231934
-0.000186889
-0.00166308
0.00169042
0.000351124
-0.000191577
-0.000278942
-0.00338807
0.00347567
0.000473915
-0.000282569
-0.000400327
-0.00339024
0.00345246
0.0003381
0.000386691
0.00689687
-0.000258166
-0.000282434
0.000279101
0.00679602
0.000204534
0.00670662
0.000151382
0.00663466
0.000113612
0.00657412
8.58099e-05
0.00652541
6.5096e-05
0.00648562
4.90753e-05
0.00645401
3.62998e-05
0.00642914
2.56657e-05
0.00641028
1.64287e-05
0.00639668
8.02201e-06
0.00638788
0.00638357
-2.92529e-05
0.00641307
-5.94107e-05
0.0064161
-9.13893e-05
0.00642226
-0.000126168
0.00643156
-0.000164833
0.00644413
-0.000208603
0.00646005
-0.00025889
0.00647947
-0.000317361
0.00650249
-0.000386031
0.00652923
-0.000467561
0.00655992
-0.000565248
0.00659467
-0.000683616
0.00663344
-0.000413199
0.00667568
-0.000417451
-0.00326449
0.00331061
-0.000459311
-0.0032625
0.00332734
-0.000578875
0.000514028
-0.00162158
0.000325426
0.00164359
-0.000347438
-0.000797439
0.000213718
0.000805371
-0.00022165
-0.000757853
0.00029402
0.000770381
-0.000306548
-0.000326
0.000195192
0.000328878
-0.00019807
-0.000202247
0.00018689
0.000194828
-0.000179471
-0.00011626
-6.07909e-05
9.53463e-05
8.17044e-05
-0.000288219
-0.00024831
0.000243863
0.000292666
-0.000257446
-0.000388295
0.000392895
0.000252846
-0.000344731
-0.000881079
0.000900594
0.000325217
-0.00180476
-0.000214357
0.00185344
0.00038098
-0.000215298
-0.000264075
-0.00357798
0.00368739
0.000407546
-0.000252881
-0.000321928
-0.0035199
0.00358793
0.000253891
0.000211681
0.00701934
-0.000140986
-0.000193168
0.000135515
0.00687219
8.78806e-05
0.00675426
5.80349e-05
0.0066645
3.93997e-05
0.00659275
2.75229e-05
0.00653729
1.98127e-05
0.00649333
1.45252e-05
0.00645929
1.06553e-05
0.00643301
7.56125e-06
0.00641337
4.88304e-06
0.00639936
2.40471e-06
0.00639036
0.00638598
-2.77512e-05
0.00644082
-5.64502e-05
0.0064448
-8.7048e-05
0.00645285
-0.000120574
0.00646509
-0.000158159
0.00648171
-0.000201084
0.00650298
-0.000250755
0.00652915
-0.000308843
0.00656058
-0.000377064
0.00659745
-0.000457606
0.00664046
-0.000552422
0.00668948
-0.000663371
0.00674439
-0.000404478
0.00680704
-0.000390249
-0.00335789
0.00340376
-0.000450353
-0.00339259
0.00345065
-0.000558889
0.000500831
-0.00171719
0.000319279
0.00174186
-0.000343943
-0.000875462
0.000219098
0.000886314
-0.000229949
-0.000451488
0.000166458
0.000457045
-0.000172015
-0.000481654
0.000314872
0.000506605
-0.000170531
-0.000169292
-0.000384058
-0.000602511
0.000625934
0.000360635
-0.000160002
-0.00108703
0.000287936
-0.000156177
0.000556376
0.000558899
-0.00201056
-0.000153695
0.00205696
0.000249857
-0.000142556
-0.000142187
-0.00378937
0.00386665
0.00017247
-0.000107559
-0.000115008
-0.00364662
0.00368992
7.17083e-05
-5.14141e-05
0.00705242
4.73043e-05
-2.89688e-05
-5.93856e-05
0.00688016
-5.87491e-05
0.00675362
-5.17616e-05
0.00665752
-4.33837e-05
0.00658437
-3.46398e-05
0.00652855
-2.67614e-05
0.00648545
-1.99625e-05
0.00645249
-1.43509e-05
0.0064274
-9.77794e-06
0.0064088
-6.0384e-06
0.00639562
-2.86892e-06
0.00638719
0.00638311
-2.36185e-05
0.00646444
-4.81266e-05
0.00646931
-7.44094e-05
0.00647914
-0.00010346
0.00649414
-0.000136334
0.00651459
-0.000174312
0.00654096
-0.00021866
0.00657349
-0.000271027
0.00661294
-0.000332683
0.00665911
-0.000405247
0.00671302
-0.000488921
0.00677316
-0.000582771
0.00683824
-0.000352839
0.00690635
-0.000329249
-0.00343764
0.00346835
-0.000383553
-0.00349362
0.00351855
-0.000436081
0.000411152
-0.00178971
0.000238653
0.00180011
-0.000249051
-0.000935058
0.000142874
0.000939562
-0.000147379
-0.000506183
8.98199e-05
0.000507203
-9.08396e-05
3.81669e-06
1.11139e-06
-4.92808e-06
-2.1968e-05
-7.34988e-06
2.68567e-05
2.46117e-06
4.94272e-08
-0.000613134
0.000613278
-1.93893e-07
-0.00213787
2.22988e-05
0.00214177
-6.6577e-05
4.03786e-05
8.35836e-05
-0.00390469
0.00389615
-0.000204081
0.000129041
0.000194098
-0.00370631
0.00369762
-0.000185404
-0.000349389
0.00695561
0.000262533
0.000183662
-0.000269958
0.00680073
-0.000208282
0.00669194
-0.000158632
0.00660787
-0.000120235
0.00654598
-9.00463e-05
0.00649836
-6.67638e-05
0.00646217
-4.86665e-05
0.0064344
-3.46228e-05
0.00641335
-2.35483e-05
0.00639772
-1.45844e-05
0.00638665
-6.95989e-06
0.00637956
0.00637615
-1.70864e-05
0.00648153
-3.48915e-05
0.00648711
-5.41291e-05
0.00649837
-7.5657e-05
0.00651567
-0.000100368
0.0065393
-0.000129495
0.00657009
-0.000164185
0.00660818
-0.000206255
0.00665501
-0.000256987
0.00670984
-0.000318559
0.00677459
-0.000391309
0.00684591
-0.000476623
0.00692355
-0.000290961
0.00699637
-0.000275675
-0.00348531
0.00350452
-0.000310171
-0.00352575
0.0035232
-0.000317505
0.000320052
-0.00179213
0.00015139
0.00178265
-0.000141906
-0.000927004
4.37189e-05
0.00092114
-3.78547e-05
-0.00101361
-2.44945e-05
0.00100526
3.28489e-05
-7.02841e-05
-3.06292e-05
7.24385e-05
2.84748e-05
-0.000681701
0.000213911
0.000664164
-0.000196374
0.000286262
-0.00116233
0.00115016
-0.000274094
-0.00209257
0.000206841
0.00205985
-0.000396135
0.000222008
0.000320389
-0.00384166
0.00374598
-0.000583392
0.000358679
0.0005024
-0.00365365
0.00358605
-0.000434796
-0.000602534
0.00673826
0.000438019
0.000381862
-0.000441491
0.00663969
-0.000324416
0.00657487
-0.000237535
0.00652098
-0.000174019
0.00648246
-0.000126833
0.00645117
-9.19997e-05
0.00642734
-6.5944e-05
0.00640834
-4.63318e-05
0.00639374
-3.12374e-05
0.00638263
-1.92388e-05
0.00637466
-9.15521e-06
0.00636948
0.00636699
-8.76687e-06
0.00649029
-1.79575e-05
0.0064963
-2.80234e-05
0.00650844
-3.9533e-05
0.00652718
-5.31814e-05
0.00655295
-6.99863e-05
0.00658689
-9.10823e-05
0.00662928
-0.000118605
0.00668254
-0.000154433
0.00674567
-0.000203178
0.00682334
-0.000267526
0.00691026
-0.000359607
0.00701564
-0.000245182
0.00711491
-0.000232974
-0.00351919
0.00355145
-0.000277441
-0.00352473
0.00354993
-0.000331501
0.0003063
-0.00174186
0.00016353
0.00173284
-0.000154505
-0.000838292
3.94938e-05
0.000824512
-2.57141e-05
-0.000756857
-0.000162076
0.000704138
0.000214795
0.000190878
-0.000843438
-0.000229482
0.000882043
0.000116524
-0.000777581
-0.000156755
0.000715505
0.000102307
-0.000161302
-0.000234139
0.000173524
0.000221917
-0.00028375
0.000228835
0.000805445
-0.000439625
-0.000310904
-0.00115269
0.00066373
0.00112461
-0.00063565
-0.00104079
0.000475242
0.00102134
-0.000455797
-0.00192331
0.000340175
0.00186649
-0.000633218
0.000349858
-0.00361497
0.000490923
0.00345551
-0.000844163
0.000512696
0.000709555
-0.00348953
0.00337583
-0.000595855
-0.000727226
0.00644462
0.000518671
0.000502199
-0.000517916
0.00643038
-0.00037018
0.00642713
-0.000264244
0.00641505
-0.000189035
0.00640725
-0.000134881
0.00639702
-9.59869e-05
0.00638844
-6.76874e-05
0.00638004
-4.69059e-05
0.00637296
-3.12842e-05
0.00636701
-1.91173e-05
0.00636249
-9.05692e-06
0.00635942
0.00635793
4.44492e-07
0.00648985
8.77516e-07
0.00649587
1.21767e-06
0.0065081
1.34701e-06
0.00652705
9.0716e-07
0.00655339
-5.70426e-07
0.00658837
-4.40674e-06
0.00663312
-1.17273e-05
0.00668986
-2.64875e-05
0.00676043
-5.16516e-05
0.0068485
-9.82871e-05
0.00695689
-0.000173979
0.00709133
-0.000175613
0.00725408
-0.000137532
-0.00358893
0.00365538
-0.000242064
-0.00361076
0.00370798
-0.000412676
0.000315453
-0.00177514
0.000542666
0.00371659
-0.00176037
-0.000347062
-0.000376689
-0.00163662
0.000455148
0.00171247
-0.000530997
-0.000721193
0.000511716
0.000742432
-0.000532954
9.73711e-05
0.00116687
0.000224443
-0.00148869
-0.000565537
0.00231704
0.000765113
-0.00251662
-0.00151665
0.00278439
0.00144534
-0.00271308
-0.001804
0.00217545
0.00164685
-0.0020183
-0.00179133
0.00159893
0.00166735
-0.00147495
-0.00172416
0.00114778
0.00162948
-0.0010531
0.000806389
-0.00167089
0.00160025
-0.000735747
-0.00327566
0.00110713
0.00308211
-0.00091359
0.000750995
-0.00324771
0.00311342
-0.000616703
-0.000670649
0.00614442
0.000469101
0.00050175
-0.000465448
0.00622518
-0.000323555
0.00628524
-0.000225621
0.00631711
-0.000157648
0.00633928
-0.000110049
0.00634942
-7.67217e-05
0.00635512
-5.3073e-05
0.00635639
-3.61627e-05
0.00635605
-2.37784e-05
0.00635462
-1.43762e-05
0.00635309
-6.76874e-06
0.00635181
0.00635117
9.46469e-06
0.00648038
1.94067e-05
0.00648593
3.02489e-05
0.00649726
4.24271e-05
0.00651487
5.6224e-05
0.00653959
7.18995e-05
0.00657269
8.92237e-05
0.00661579
0.0001077
0.00667138
0.000125306
0.00674282
0.000139446
0.00683436
0.00014175
0.00695459
0.000124921
0.00710816
5.96245e-05
0.00731938
-0.000123406
0.00763938
1.10978e-05
-0.00371533
-0.00375211
-0.00381917
0.00394566
-0.000249895
-0.00396503
0.000406333
0.004194
-0.000635307
-0.00198774
0.000518162
0.00210004
-0.000630471
-0.00114324
0.000978122
0.00128111
-0.001116
-0.000907684
0.00152234
0.00103682
-0.00165147
-0.0010314
0.00197835
0.00110657
-0.00205353
-0.00122288
0.00215053
0.0012097
-0.00213736
-0.00131295
0.00197255
0.00122621
-0.00188581
-0.00132193
0.00157397
0.00120967
-0.00146171
-0.00133854
0.00113185
0.00123556
-0.00102888
0.000748814
-0.0027626
0.00246764
-0.00117589
0.000722032
-0.00288437
0.000938956
0.00269151
-0.000746105
-0.000654843
0.00562406
0.000454901
0.000577733
-0.00298917
-0.00301268
-0.000425152
0.00591473
-0.000283386
0.00608341
-0.000187683
0.00618954
-0.000126189
0.00625562
-8.4463e-05
0.00629755
-5.69485e-05
0.0063219
-3.81447e-05
0.00633631
-2.55176e-05
0.00634377
-1.6783e-05
0.00634732
-1.07292e-05
0.00634857
-6.33179e-06
0.00634869
-2.94444e-06
0.00634842
0.00634822
1.71263e-05
0.00646326
3.52406e-05
0.00646781
5.53099e-05
0.00647719
7.84189e-05
0.00649176
0.000105667
0.00651234
0.000138429
0.00653993
0.000177861
0.00657636
0.00022577
0.00662347
0.000282945
0.00668565
0.000351689
0.00676562
0.000431305
0.00687497
0.000524317
0.00701515
0.000630293
0.0072134
0.000288959
0.00751773
0.000462984
-0.00398873
0.00401724
0.000260442
-0.00433427
-0.00024022
0.00435725
0.00021724
-0.00240559
-3.32111e-05
0.00248084
-4.20385e-05
-0.00174073
0.000550743
0.00192521
-0.000735226
-0.00141336
0.0012457
0.0015756
-0.00140794
-0.00136969
0.00182814
0.00148351
-0.00194196
-0.00122655
0.00218078
0.00126091
-0.00221514
-0.000969782
0.00214375
0.000885577
-0.00205955
-0.000810462
0.00165855
0.000644835
-0.00149292
-0.000879499
0.000991318
0.000729762
-0.000841582
0.000489866
-0.00217623
0.00189748
-0.000630909
0.000419792
-0.00252192
0.000439614
0.00239045
-0.000308148
-6.62263e-05
0.00550627
-3.96392e-06
0.000187984
-1.90818e-05
0.00586758
2.0523e-07
0.00606412
9.98138e-06
0.00617976
1.21099e-05
0.00625349
1.28431e-05
0.00629682
1.1271e-05
0.00632348
9.689e-06
0.00633789
7.70451e-06
0.00634575
5.95327e-06
0.00634907
4.26433e-06
0.00635026
2.75355e-06
0.0063502
1.33363e-06
0.00634984
0.00634955
2.22995e-05
0.00644096
4.60078e-05
0.00644411
7.25637e-05
0.00645063
0.000103637
0.00646069
0.000141128
0.00647485
0.000187522
0.00649354
0.000245612
0.00651827
0.000319527
0.00654956
0.000413765
0.00659141
0.00053542
0.00664396
0.000692979
0.00671741
0.000897554
0.00681057
0.00116695
0.006944
0.000712311
0.0071392
0.000833175
-0.00393754
0.00384109
0.000808759
-0.0042664
-0.000941545
0.00409534
0.00111261
-0.00234898
-0.000630745
0.00228192
0.00069781
-0.00244652
-0.000936918
0.00247772
0.000905714
-0.00201531
-0.000547931
0.00213884
0.00042441
-0.00181181
-0.000173917
0.00186457
0.000121158
-0.0014228
8.34499e-07
0.00145769
-3.57171e-05
-0.000793947
0.000126015
0.000817766
-0.000149834
-0.000299588
0.000188652
0.00029698
-0.000186044
-0.000331596
0.000121828
0.000294589
-8.48214e-05
-6.26091e-05
-0.00165844
0.00159585
0.000352343
-0.00022715
-0.00232585
-0.000380077
0.00234278
0.000363144
0.000618074
0.00577557
-0.000546818
-0.00034056
0.000435576
0.00605008
0.000304374
0.00619532
0.000214098
0.00627004
0.000150554
0.00631704
0.000106599
0.00634077
7.51165e-05
0.00635496
5.29951e-05
0.00636002
3.69787e-05
0.00636177
2.54317e-05
0.00636061
1.68212e-05
0.00635887
1.02196e-05
0.0063568
4.80886e-06
0.00635525
0.00635436
2.41342e-05
0.00641682
4.9889e-05
0.00641835
7.8954e-05
0.00642157
0.000113349
0.00642629
0.000155471
0.00643273
0.000208558
0.00644045
0.000276547
0.00645028
0.000365196
0.00646091
0.000481691
0.00647492
0.000636274
0.00648938
0.000843639
0.00651005
0.00112036
0.00653385
0.00149706
0.00656729
0.000982411
0.00661681
0.00103704
-0.00367657
0.00351569
0.0011433
-0.00387567
-0.00134526
0.00363483
0.00158609
-0.00203273
-0.000922274
0.0019571
0.000997902
-0.00211941
-0.00127645
0.00200352
0.00139234
-0.00213923
-0.00180232
0.00200791
0.00193365
-0.00190736
-0.00222154
0.00184878
0.00228012
-0.00149718
-0.00236584
0.00149747
0.00236556
-0.000973914
-0.00226106
0.00104784
0.00218713
-0.00056124
-0.00184866
0.000704922
0.00170498
-0.000523523
-0.00124882
0.000665041
0.0011073
-0.000777609
-0.00177523
0.0020744
0.00131095
-0.000832508
-0.00245633
-0.00110202
0.00262009
0.000938262
0.00110478
0.00632321
-0.00086833
-0.000784083
0.000748911
0.00640595
0.000513442
0.00643079
0.000351867
0.00643161
0.000241889
0.00642702
0.000166392
0.00641627
0.000114341
0.00640701
7.83833e-05
0.00639597
5.33189e-05
0.00638683
3.57402e-05
0.00637819
2.31407e-05
0.00637147
1.38141e-05
0.00636613
6.43498e-06
0.00636263
0.0063608
2.23168e-05
0.00639451
4.61667e-05
0.0063945
7.31667e-05
0.00639457
0.000105307
0.00639415
0.000144984
0.00639305
0.000195532
0.0063899
0.000261184
0.00638463
0.000348023
0.00637407
0.000464488
0.00635845
0.000621512
0.00633236
0.000837228
0.00629433
0.00113025
0.00624084
0.00153734
0.0061602
0.00106244
0.00605608
0.00103562
-0.00333054
0.00314523
0.00124774
-0.00338741
-0.00146379
0.00313721
0.00171399
-0.00172426
-0.000997806
0.00165077
0.00107129
-0.00173921
-0.0013035
0.00166068
0.00138203
-0.00171022
-0.0016038
0.00164316
0.00167086
-0.00162126
-0.00183599
0.00158
0.00187724
-0.00145804
-0.00194064
0.00146038
0.0019383
-0.00124649
-0.00185021
0.00130238
0.00179432
-0.0010827
-0.00156489
0.00117449
0.00147311
-0.00104708
-0.00118242
0.00114266
0.00108684
-0.000838217
-0.00235896
0.00258281
0.00142627
-0.000811902
-0.00280327
-0.00124513
0.00297104
0.00107736
0.0011881
0.00691293
-0.000870509
-0.000907314
0.000799037
0.00679501
0.000544041
0.00668579
0.000369683
0.00660597
0.000251287
0.00654541
0.000169888
0.00649767
0.000114608
0.00646229
7.67716e-05
0.00643381
5.10053e-05
0.0064126
3.33224e-05
0.00639588
2.10788e-05
0.00638371
1.23255e-05
0.00637488
5.66965e-06
0.00636929
0.00636647
1.72446e-05
0.00637726
3.56099e-05
0.00637614
5.63056e-05
0.00637387
8.08322e-05
0.00636963
0.000111075
0.00636281
0.000149614
0.00635136
0.000200085
0.00633416
0.000267319
0.00630684
0.000359185
0.00626658
0.000485033
0.00620651
0.000661812
0.00611755
0.000909756
0.00599289
0.00125966
0.00581029
0.00178569
0.00553006
0.00134737
0.00506324
-0.00295117
-0.00292325
0.0012495
-0.00288139
0.00261184
0.00161693
-0.00285862
-0.0019224
0.0025321
0.00224892
-0.00287044
-0.00259315
0.00253445
0.00292914
-0.00293569
-0.00323607
0.00269557
0.0034762
-0.00301622
-0.00363542
0.00296493
0.00368671
-0.00303521
-0.00363494
0.00319274
0.00347741
-0.00295085
-0.00323775
0.00325162
0.00293697
-0.00281948
-0.0026087
0.00315052
0.00227766
-0.00274732
-0.00196563
0.00302424
0.00168872
-0.0027725
-0.00145841
0.00296101
0.0012699
0.00134451
0.00724205
-0.00316124
-0.00334826
-0.000994753
-0.00108231
0.000872581
0.00738486
0.000587086
0.0070805
0.000393836
0.00687904
0.000263345
0.00673646
0.000174721
0.00663403
0.000114586
0.0065578
7.45731e-05
0.0065023
4.76648e-05
0.00646072
3.00608e-05
0.0064302
1.84546e-05
0.00640748
1.09839e-05
0.00639118
6.043e-06
0.00637982
2.6756e-06
0.00637266
0.00636914
1.00256e-05
0.00636724
2.04945e-05
0.00636567
3.19462e-05
0.00636242
4.49747e-05
0.0063566
6.05218e-05
0.00634726
7.96113e-05
0.00633227
0.000104358
0.00630941
0.000136995
0.0062742
0.000182279
0.0062213
0.000246651
0.00614213
0.000340518
0.00602368
0.00048416
0.00584925
0.000720901
0.00557355
0.00117518
0.00507578
0.0020394
0.00419901
0.0033197
0.003258
-0.00231236
-0.00222593
0.00464903
0.00288963
-0.0021277
-0.00209126
0.0056255
0.00340426
-0.00216777
-0.00221296
0.00602028
0.00470595
-0.0024847
-0.00261603
0.00578708
0.00633703
-0.00297594
-0.0031279
0.00505122
0.00765479
-0.00341463
-0.0035043
0.00405697
0.00817207
-0.00359439
-0.00358342
0.0030703
0.00790408
-0.00349235
-0.00342506
0.00210179
0.00746522
-0.00328218
-0.00321454
0.00108076
0.00750017
-0.00319896
-0.00328017
0.000487659
0.00783515
0.000294613
0.00757791
0.000188873
0.00718624
0.000115128
0.00695278
6.70876e-05
0.0067845
3.67564e-05
0.00666437
1.73891e-05
0.00657717
6.0951e-06
0.0065136
-4.59643e-07
0.00646727
-3.49446e-06
0.00643324
-4.59414e-06
0.00640858
-4.28373e-06
0.00639087
-3.22858e-06
0.00637877
-1.70048e-06
0.00637113
0.00636744
2.27629e-06
0.00636496
4.19579e-06
0.00636375
5.50711e-06
0.00636111
5.66944e-06
0.00635644
4.39953e-06
0.00634853
7.33983e-07
0.00633594
-5.70063e-06
0.00631584
-1.62662e-05
0.00628476
-3.14195e-05
0.00623645
-5.20649e-05
0.00616278
-7.99576e-05
0.00605158
-0.000107142
0.00587644
-7.84194e-05
0.00554482
0.000138978
0.00485838
0.000529541
0.00380845
0.000850492
0.00293705
0.000957483
0.00278264
0.000912642
0.0034491
0.000814911
0.00480368
0.000725557
0.00642638
0.00065594
0.0077244
0.000563759
0.00826425
0.000329141
0.0081387
-0.000137076
0.00793144
-0.000564354
0.00792745
-0.000558154
0.00782895
-0.00039052
0.00741027
-0.000285234
0.00708096
-0.00021255
0.0068801
-0.000160431
0.00673238
-0.000121173
0.00662511
-9.22431e-05
0.00654824
-6.98857e-05
0.00649124
-5.29108e-05
0.0064503
-3.94478e-05
0.00641977
-2.88157e-05
0.00639795
-2.00586e-05
0.00638212
-1.26726e-05
0.00637138
-6.11565e-06
0.00636457
0.00636133
-4.22826e-06
0.00636919
-9.50756e-06
0.00636903
-1.68713e-05
0.00636847
-2.78093e-05
0.00636737
-4.39763e-05
0.0063647
-6.81354e-05
0.0063601
-0.000103429
0.00635114
-0.00015525
0.00633658
-0.00023024
0.00631144
-0.000339594
0.00627214
-0.000501373
0.00621336
-0.000727506
0.00610257
-0.00098243
0.00579975
-0.00125874
0.00513469
-0.00174846
0.00429817
-0.00253913
0.00372771
-0.00339865
0.00364216
-0.00407167
0.00412213
-0.00437628
0.00510829
-0.00422657
0.00627668
-0.00371175
0.00720958
-0.00309015
0.00764265
-0.00263018
0.00767872
-0.00232373
0.00762498
-0.00191987
0.00752359
-0.00137893
0.00728802
-0.000961521
0.00699286
-0.000685688
0.00680512
-0.000489603
0.00668401
-0.000351535
0.00659431
-0.000252414
0.00652599
-0.000181802
0.00647763
-0.00013071
0.00644015
-9.38333e-05
0.00641342
-6.67315e-05
0.00639267
-4.66633e-05
0.00637788
-3.1356e-05
0.00636681
-1.92761e-05
0.0063593
-9.15178e-06
0.00635445
0.00635218
-8.04399e-06
0.00637723
-1.75411e-05
0.00637852
-3.00162e-05
0.00638095
-4.75102e-05
0.00638487
-7.25798e-05
0.00638977
-0.00010907
0.00639659
-0.000162068
0.00640414
-0.000239518
0.00641403
-0.000352336
0.00642426
-0.0005182
0.006438
-0.000764971
0.00646013
-0.0011255
0.00646309
-0.00161767
0.00629192
-0.0023417
0.00585873
-0.00344941
0.00540588
-0.00479173
0.00507004
-0.00603541
0.00488584
-0.00691967
0.00500639
-0.00725321
0.00544183
-0.00697503
0.0059985
-0.00621672
0.00645128
-0.00524873
0.00667466
-0.00429102
0.00672102
-0.00336909
0.00670305
-0.00248901
0.00664351
-0.00176017
0.00655918
-0.00125515
0.00648784
-0.000895512
0.00644548