/*--------------------------------*- C++ -*----------------------------------*\
| =========                 |                                                 |
| \\      /  F ield         | OpenFOAM: The Open Source CFD Toolbox           |
|  \\    /   O peration     | Version:  5.0                                   |
|   \\  /    A nd           | Web:      www.OpenFOAM.org                      |
|    \\/     M anipulation  |                                                 |
\*---------------------------------------------------------------------------*/
FoamFile
{
    version     2.0;
    format      ascii;
    class       volVectorField;
    location    "50";
    object      U;
}
// * * * * * * * * * * * * * * * * * * * * * * * * * * * * * * * * * * * * * //

dimensions      [0 1 -1 0 0 0 0];

internalField   nonuniform List<vector> 
11644
(
(1.00005 -6.79966e-05 0)
(1.00005 -0.000204556 0)
(1.00005 -0.000342723 0)
(1.00005 -0.000483291 0)
(1.00005 -0.000626437 0)
(1.00005 -0.000771402 0)
(1.00006 -0.00091619 0)
(1.00006 -0.00105707 0)
(1.00005 -0.00118806 0)
(1.00005 -0.00130057 0)
(1.00004 -0.00138263 0)
(1.00003 -0.0014199 0)
(1.00001 -0.00139432 0)
(0.999979 -0.00128667 0)
(0.999948 -0.00108304 0)
(0.999909 -0.000766368 0)
(0.99987 -0.000336393 0)
(0.999839 0.000207131 0)
(0.999814 0.000835192 0)
(0.999804 0.00149121 2.12194e-31)
(0.999809 0.00213504 -2.12193e-31)
(0.99983 0.00271533 0)
(0.999863 0.00318613 0)
(0.999904 0.0035191 0)
(0.999946 0.00370454 0)
(0.999986 0.00374887 0)
(1.00002 0.00367047 0)
(1.00004 0.00349475 0)
(1.00006 0.00324873 0)
(1.00007 0.00295773 0)
(1.00008 0.00264318 0)
(1.00008 0.00232032 0)
(1.00008 0.00199995 0)
(1.00008 0.00169008 0)
(1.00008 0.00139459 0)
(1.00007 0.00111467 0)
(1.00007 0.000849567 0)
(1.00007 0.000597192 0)
(1.00006 0.000354483 0)
(1.00006 0.000117558 0)
(1.00037 -0.000189634 0)
(1.00038 -0.000569336 0)
(1.00038 -0.000949817 0)
(1.00039 -0.00133067 0)
(1.00039 -0.00170992 0)
(1.00039 -0.00208278 0)
(1.00039 -0.00244095 0)
(1.00036 -0.00277122 0)
(1.00032 -0.00305431 0)
(1.00025 -0.00326318 0)
(1.00015 -0.00336216 0)
(0.999991 -0.00330799 0)
(0.999783 -0.00304731 0)
(0.999522 -0.00252527 0)
(0.999219 -0.00170202 0)
(0.998879 -0.000524394 0)
(0.998557 0.0010145 0)
(0.99828 0.00287064 0)
(0.998104 0.0049446 0)
(0.998076 0.0070846 -8.59935e-31)
(0.998206 0.00913476 8.5993e-31)
(0.998486 0.0109209 0)
(0.998874 0.0122999 0)
(0.999316 0.0131889 0)
(0.999752 0.0135689 0)
(1.00014 0.0134776 0)
(1.00046 0.0129933 0)
(1.00069 0.0122108 0)
(1.00085 0.0112259 0)
(1.00093 0.0101232 0)
(1.00097 0.00897048 0)
(1.00096 0.00781613 0)
(1.00093 0.00669472 0)
(1.00089 0.00562721 0)
(1.00084 0.00462225 0)
(1.00079 0.00368053 0)
(1.00075 0.00279667 0)
(1.00071 0.00196136 0)
(1.00069 0.00116217 0)
(1.00068 0.000384926 0)
(1.00103 -0.000307909 0)
(1.00103 -0.000923423 0)
(1.00103 -0.00153688 0)
(1.00104 -0.0021454 0)
(1.00103 -0.00274395 0)
(1.00101 -0.00332292 0)
(1.00096 -0.00386735 0)
(1.00087 -0.00435451 0)
(1.00072 -0.00475212 0)
(1.00049 -0.00501474 0)
(1.00015 -0.00508326 0)
(0.999671 -0.00488222 0)
(0.999046 -0.00432153 0)
(0.998272 -0.00329619 0)
(0.997367 -0.00173142 0)
(0.996368 0.000483232 0)
(0.995423 0.00336235 0)
(0.994636 0.00681868 0)
(0.994176 0.0106963 0)
(0.994174 0.0146896 -1.77517e-30)
(0.994666 0.0184766 1.77515e-30)
(0.995616 0.0217056 0)
(0.996884 0.0240953 0)
(0.998289 0.0254992 0)
(0.99966 0.0259082 0)
(1.00085 0.0254327 0)
(1.00179 0.024244 0)
(1.00246 0.0225455 0)
(1.00288 0.0205252 0)
(1.00309 0.0183454 0)
(1.00314 0.0161254 0)
(1.00308 0.0139506 0)
(1.00295 0.0118759 0)
(1.00278 0.00992944 0)
(1.0026 0.00811961 0)
(1.00244 0.00644142 0)
(1.00229 0.00488007 0)
(1.00218 0.00341489 0)
(1.0021 0.00202015 0)
(1.00206 0.000668358 0)
(1.00203 -0.000439683 0)
(1.00203 -0.00131883 0)
(1.00203 -0.0021953 0)
(1.00202 -0.00306547 0)
(1.00199 -0.00392348 0)
(1.00192 -0.00475744 0)
(1.0018 -0.00554893 0)
(1.00159 -0.00626942 0)
(1.00126 -0.00687722 0)
(1.00076 -0.00731187 0)
(1.00005 -0.00749158 0)
(0.999062 -0.00730519 0)
(0.99776 -0.00661358 0)
(0.996119 -0.00524623 0)
(0.994201 -0.00305568 0)
(0.992094 0.00018787 0)
(0.990038 0.0045147 0)
(0.98826 0.00989239 0)
(0.987235 0.0160814 0)
(0.987262 0.0225458 0)
(0.988457 0.0286948 0)
(0.990725 0.0338787 0)
(0.993699 0.0375827 0)
(0.996939 0.0395626 0)
(0.999951 0.03987 0)
(1.00252 0.0387315 0)
(1.00449 0.0365112 0)
(1.00583 0.0335647 0)
(1.00661 0.030227 0)
(1.00693 0.0267379 0)
(1.00692 0.0232825 0)
(1.00669 0.0199758 0)
(1.00634 0.016882 0)
(1.00593 0.0140268 0)
(1.00551 0.0114096 0)
(1.00512 0.00901202 0)
(1.00479 0.00680393 0)
(1.00453 0.00474886 0)
(1.00435 0.00280421 0)
(1.00426 0.000926699 0)
(1.00342 -0.000599688 0)
(1.00342 -0.00180121 0)
(1.00341 -0.00300592 0)
(1.00339 -0.00421417 0)
(1.00334 -0.00542468 0)
(1.00323 -0.00662918 0)
(1.00303 -0.00781286 0)
(1.0027 -0.00894955 0)
(1.00217 -0.00999727 0)
(1.00137 -0.0108907 0)
(1.00021 -0.0115321 0)
(0.998577 -0.011776 0)
(0.996379 -0.0114345 0)
(0.993575 -0.010204 0)
(0.990113 -0.00782168 0)
(0.986137 -0.00389026 0)
(0.982228 0.00194459 0)
(0.97884 0.00952508 0)
(0.976767 0.0187482 0)
(0.976719 0.0286988 -4.036e-30)
(0.978989 0.0383031 4.03589e-30)
(0.983399 0.0463431 0)
(0.989139 0.0518792 0)
(0.995289 0.0545674 0)
(1.00102 0.0545198 0)
(1.0057 0.0523814 0)
(1.00908 0.0486736 0)
(1.0112 0.0441134 0)
(1.0123 0.0391412 0)
(1.01262 0.0341643 0)
(1.01239 0.0293944 0)
(1.01181 0.0249551 0)
(1.01105 0.0208978 0)
(1.01023 0.0172282 0)
(1.00942 0.0139221 0)
(1.0087 0.0109378 0)
(1.00809 0.00822309 0)
(1.00761 0.00572146 0)
(1.00729 0.00337134 0)
(1.00713 0.00111274 0)
(1.00529 -0.000795647 0)
(1.0053 -0.0023947 0)
(1.0053 -0.00401192 0)
(1.0053 -0.00565817 0)
(1.00526 -0.00734417 0)
(1.00516 -0.00907378 0)
(1.00494 -0.0108461 0)
(1.00455 -0.0126495 0)
(1.0039 -0.0144566 0)
(1.00287 -0.0162143 0)
(1.00131 -0.0178301 0)
(0.999017 -0.0191413 0)
(0.99578 -0.0198643 0)
(0.991315 -0.0196579 0)
(0.985754 -0.017994 0)
(0.979127 -0.0138732 0)
(0.971971 -0.00753866 0)
(0.965013 0.00257435 0)
(0.96036 0.0160779 0)
(0.959505 0.0313959 -8.94593e-30)
(0.963422 0.0465664 8.94551e-30)
(0.971635 0.0591625 0)
(0.982354 0.0674888 0)
(0.993724 0.0707206 0)
(1.00319 0.0699171 0)
(1.0108 0.0658792 0)
(1.01597 0.0600142 0)
(1.01903 0.0531162 0)
(1.02023 0.0462405 0)
(1.02023 0.0396294 0)
(1.01946 0.0335558 0)
(1.01825 0.0280963 0)
(1.01684 0.0232517 0)
(1.01541 0.0189793 0)
(1.01406 0.0152119 0)
(1.01287 0.0118724 0)
(1.01188 0.0088798 0)
(1.01113 0.00615508 0)
(1.01062 0.00361775 0)
(1.01036 0.00119243 0)
(1.00775 -0.00102415 0)
(1.00778 -0.00308929 0)
(1.00783 -0.0051968 0)
(1.0079 -0.00737458 0)
(1.00796 -0.00965318 0)
(1.00796 -0.0120576 0)
(1.00786 -0.0146124 0)
(1.00757 -0.0173359 0)
(1.00699 -0.0202359 0)
(1.00594 -0.0233003 0)
(1.00422 -0.0264893 0)
(1.00151 -0.0296885 0)
(0.99738 -0.0327305 0)
(0.991725 -0.0348885 0)
(0.983054 -0.0356449 0)
(0.97218 -0.0334377 0)
(0.964778 -0.021542 0)
(0.953958 -0.0104 0)
(0.94491 0.00638619 0)
(0.941075 0.0272734 -1.31419e-24)
(0.944853 0.0492427 0)
(0.955989 0.067929 1.14653e-23)
(0.971717 0.0802167 0)
(0.988473 0.0853772 0)
(1.00874 0.087255 0)
(1.02023 0.0800618 0)
(1.02713 0.0699821 0)
(1.03001 0.0604045 0)
(1.03074 0.0508229 0)
(1.02981 0.0424509 0)
(1.02799 0.0351621 0)
(1.02574 0.0289049 0)
(1.02337 0.0235582 0)
(1.0211 0.0189894 0)
(1.01904 0.0150658 0)
(1.01727 0.0116641 0)
(1.01583 0.00867033 0)
(1.01474 0.00598322 0)
(1.01401 0.00350655 0)
(1.01365 0.00115403 0)
(1.01087 -0.00126711 0)
(1.01095 -0.00383003 0)
(1.01111 -0.00646632 0)
(1.01133 -0.00922566 0)
(1.0116 -0.0121644 0)
(1.01186 -0.0153359 0)
(1.01206 -0.0187998 0)
(1.01213 -0.022618 0)
(1.01192 -0.0268553 0)
(1.01126 -0.0315698 0)
(1.00988 -0.036826 0)
(1.00739 -0.042698 0)
(1.00301 -0.0485613 0)
(0.995711 -0.049703 0)
(0.986166 -0.0528542 0)
(0.97236 -0.0544185 0)
(0.953999 -0.0506065 0)
(0.933051 -0.0387478 0)
(0.913008 -0.0158196 0)
(0.901705 0.0179586 1.5792e-24)
(0.906367 0.0566019 0)
(0.927319 0.0892242 -1.48815e-24)
(0.957315 0.107917 0)
(0.987167 0.111692 0)
(1.01154 0.105523 0)
(1.02773 0.0933787 0)
(1.03654 0.0797373 0)
(1.04539 0.063855 0)
(1.0443 0.052175 0)
(1.04129 0.0419858 0)
(1.03767 0.0337867 0)
(1.03386 0.0271166 0)
(1.03019 0.0216723 0)
(1.02685 0.017197 0)
(1.02394 0.0134752 0)
(1.0215 0.0103333 0)
(1.01956 0.00762648 0)
(1.01811 0.00523658 0)
(1.01715 0.00305921 0)
(1.01667 0.00100515 0)
(1.01467 -0.00149097 0)
(1.01483 -0.00451467 0)
(1.01515 -0.00764504 0)
(1.01563 -0.0109551 0)
(1.01623 -0.014529 0)
(1.01693 -0.0184514 0)
(1.01768 -0.0228209 0)
(1.01841 -0.0277486 0)
(1.01899 -0.0333674 0)
(1.01926 -0.0398221 0)
(1.01895 -0.0472972 0)
(1.01766 -0.0561891 0)
(1.01438 -0.0659055 0)
(1.00519 -0.070924 0)
(0.995047 -0.0808764 0)
(0.97775 -0.0907072 0)
(0.953206 -0.0901793 0)
(0.917905 -0.0845194 0)
(0.876458 -0.0587176 3.46343e-24)
(0.844286 -0.0061107 0)
(0.843688 0.0633509 -2.00206e-24)
(0.88071 0.122713 0)
(0.937106 0.151476 -2.1736e-23)
(0.989171 0.150775 0)
(1.02551 0.133826 0)
(1.05229 0.110631 0)
(1.05954 0.0871882 0)
(1.066 0.0624788 0)
(1.06073 0.048659 0)
(1.05421 0.037309 0)
(1.0479 0.0290021 0)
(1.04198 0.0225622 0)
(1.0367 0.0175932 0)
(1.03213 0.0136899 0)
(1.02829 0.0105681 0)
(1.02517 0.00801492 0)
(1.02272 0.00586911 0)
(1.02092 0.00400895 0)
(1.01974 0.00233473 0)
(1.01916 0.00076591 0)
(1.01903 -0.00165143 0)
(1.0193 -0.00500783 0)
(1.01985 -0.00850075 0)
(1.02067 -0.0122242 0)
(1.02176 -0.0162873 0)
(1.02308 -0.020802 0)
(1.02462 -0.0259014 0)
(1.02633 -0.0317389 0)
(1.02814 -0.0385082 0)
(1.02992 -0.0464298 0)
(1.03149 -0.0558122 0)
(1.03256 -0.0672801 0)
(1.0322 -0.0805263 0)
(1.02393 -0.0911713 0)
(1.01708 -0.109801 0)
(0.998543 -0.127279 0)
(0.968816 -0.146085 0)
(0.91589 -0.163381 0)
(0.829758 -0.154003 3.05104e-23)
(0.731404 -0.0748787 0)
(0.703666 0.0782209 7.01854e-23)
(0.791755 0.212945 7.11407e-23)
(0.922107 0.251316 -2.09666e-23)
(1.0173 0.221234 0)
(1.07239 0.171286 0)
(1.09668 0.12058 0)
(1.0941 0.0858465 0)
(1.09046 0.0523855 0)
(1.07857 0.038328 0)
(1.06718 0.0275529 0)
(1.0575 0.020454 0)
(1.04911 0.0152123 0)
(1.04212 0.0114742 0)
(1.03631 0.00869845 0)
(1.0316 0.00659261 0)
(1.02786 0.00493792 0)
(1.02499 0.00358843 0)
(1.02291 0.00244055 0)
(1.02156 0.00141865 0)
(1.02089 0.000465065 0)
(1.02373 -0.00170354 0)
(1.02414 -0.00517217 0)
(1.02496 -0.00879793 0)
(1.02621 -0.0126897 0)
(1.02788 -0.0169731 0)
(1.02998 -0.0217782 0)
(1.03251 -0.0272597 0)
(1.03547 -0.0335923 0)
(1.03883 -0.0409985 0)
(1.04257 -0.0497263 0)
(1.04666 -0.060109 0)
(1.05097 -0.0727977 0)
(1.05509 -0.0876037 0)
(1.05141 -0.103294 0)
(1.05353 -0.12817 0)
(1.04432 -0.159643 0)
(1.02544 -0.206174 3.50769e-25)
(0.977287 -0.282423 -7.2944e-24)
(0.835552 -0.368948 -1.45223e-22)
(0.506266 -0.340465 -6.46894e-21)
(0.272385 0.130731 0)
(0.626911 0.540289 -9.19021e-22)
(0.995599 0.478916 3.35938e-23)
(1.13941 0.314956 -4.78784e-24)
(1.16973 0.189964 6.22681e-25)
(1.16159 0.106874 0)
(1.13706 0.0664317 0)
(1.11433 0.0296284 0)
(1.09444 0.0197431 0)
(1.07772 0.0122565 0)
(1.06466 0.00825345 0)
(1.05395 0.00541911 0)
(1.04552 0.00378253 0)
(1.03873 0.00267156 0)
(1.0334 0.00195969 0)
(1.02925 0.00144187 0)
(1.02613 0.00105041 0)
(1.02389 0.000719603 0)
(1.02245 0.000423158 0)
(1.02174 0.000139588 0)
(1.0284 -0.00161433 0)
(1.02896 -0.00490673 0)
(1.03009 -0.00836287 0)
(1.03181 -0.0120969 0)
(1.03414 -0.0162396 0)
(1.0371 -0.0209266 0)
(1.04073 -0.0263186 0)
(1.04505 -0.0325873 0)
(1.05011 -0.0399412 0)
(1.05596 -0.0486018 0)
(1.06263 -0.0587656 0)
(1.07014 -0.0708804 0)
(1.07869 -0.0845915 0)
(1.08184 -0.101317 0)
(1.09517 -0.12394 0)
(1.10694 -0.157718 0)
(1.12746 -0.213331 -3.68579e-24)
(1.16146 -0.320339 1.06326e-22)
(1.24402 -0.595332 -8.58461e-21)
(1.55076 0.679969 3.16675e-21)
(1.40858 0.283251 1.20552e-23)
(1.3023 0.127532 0)
(1.22676 0.0478346 0)
(1.17507 0.0209847 0)
(1.12921 -0.00589827 0)
(1.10273 -0.00647979 0)
(1.08238 -0.00754617 0)
(1.06707 -0.00646821 0)
(1.05511 -0.00574624 0)
(1.04598 -0.00456158 0)
(1.03883 -0.00362434 0)
(1.03335 -0.00271981 0)
(1.02915 -0.00200118 0)
(1.02602 -0.00139735 0)
(1.02381 -0.000915929 0)
(1.02238 -0.000513476 0)
(1.02169 -0.000165394 0)
(1.03263 -0.00137254 0)
(1.03334 -0.00417653 0)
(1.03478 -0.0071336 0)
(1.03697 -0.010352 0)
(1.03995 -0.0139555 0)
(1.04378 -0.0180751 0)
(1.0485 -0.0228649 0)
(1.05419 -0.0284911 0)
(1.06087 -0.0351252 0)
(1.06868 -0.0429739 0)
(1.07752 -0.0520658 0)
(1.08731 -0.0625611 0)
(1.09826 -0.074105 0)
(1.10557 -0.0869607 0)
(1.12328 -0.0993449 0)
(1.14943 -0.115566 0)
(1.20003 -0.13787 0)
(1.29444 -0.17033 2.05405e-22)
(-0.0294165 -0.00491547 1.91358e-19)
(0.13342 0.0278448 -7.24742e-20)
(1.56784 -0.000198888 0)
(1.37146 -0.0302001 0)
(1.25223 -0.049144 0)
(1.18708 -0.0445722 0)
(1.12611 -0.0468195 0)
(1.09815 -0.0357598 0)
(1.0781 -0.0281266 0)
(1.06292 -0.0211632 0)
(1.05158 -0.0162973 0)
(1.04296 -0.0121423 0)
(1.03637 -0.00911345 0)
(1.03135 -0.006667 0)
(1.02755 -0.00482215 0)
(1.02474 -0.00335724 0)
(1.02275 -0.00220273 0)
(1.02148 -0.00124191 0)
(1.02087 -0.000401384 0)
(1.03598 -0.000991706 0)
(1.03683 -0.00302249 0)
(1.03854 -0.00517548 0)
(1.04115 -0.00754388 0)
(1.04472 -0.0102276 0)
(1.04934 -0.0133549 0)
(1.05506 -0.0170523 0)
(1.06203 -0.0215213 0)
(1.0702 -0.0268858 0)
(1.07978 -0.0334783 0)
(1.0904 -0.0412579 0)
(1.10184 -0.0505364 0)
(1.11324 -0.0617427 0)
(1.11878 -0.0706997 0)
(1.12887 -0.0754613 0)
(1.14465 -0.0682499 0)
(1.1833 -0.0376604 0)
(1.29245 0.0258002 3.28485e-24)
(0.182567 0.0542553 0)
(1.71418 -0.376685 1.22868e-21)
(1.47981 -0.263446 0)
(1.32999 -0.193613 0)
(1.21765 -0.147259 0)
(1.1609 -0.109489 0)
(1.10094 -0.0814902 0)
(1.07882 -0.0601546 0)
(1.06374 -0.0442486 0)
(1.05189 -0.0322946 0)
(1.04332 -0.0237882 0)
(1.03665 -0.0172944 0)
(1.03162 -0.0126317 0)
(1.02772 -0.0090858 0)
(1.02477 -0.00647199 0)
(1.02257 -0.00446296 0)
(1.02101 -0.0029071 0)
(1.02 -0.00163304 0)
(1.01952 -0.000526942 0)
(1.03812 -0.000507039 0)
(1.03906 -0.00155276 0)
(1.04096 -0.00266531 0)
(1.0439 -0.00392082 0)
(1.04791 -0.00536364 0)
(1.05318 -0.00713923 0)
(1.05971 -0.00929167 0)
(1.06784 -0.0121403 0)
(1.07739 -0.0157049 0)
(1.08888 -0.0206868 0)
(1.10154 -0.027048 0)
(1.11595 -0.0360527 0)
(1.12902 -0.0486706 0)
(1.13076 -0.061162 0)
(1.13057 -0.0753035 0)
(1.11125 -0.0728813 0)
(1.06399 -0.0280263 0)
(0.935049 0.175116 -3.44474e-25)
(-0.273162 0.81568 -4.23818e-23)
(-0.24432 0.70025 -6.64789e-23)
(0.428941 0.428341 -6.95743e-23)
(0.892521 -0.306456 -8.74826e-22)
(1.4576 -0.610377 -2.57804e-22)
(1.32004 -0.437943 1.02185e-23)
(1.21359 -0.311023 0)
(1.13355 -0.216054 0)
(1.10024 -0.152455 0)
(1.05763 -0.0994571 0)
(1.04758 -0.071628 0)
(1.04147 -0.0507423 0)
(1.03571 -0.0363694 0)
(1.0317 -0.0259888 0)
(1.02817 -0.0185619 0)
(1.02545 -0.0132481 0)
(1.02317 -0.00938379 0)
(1.02139 -0.00657649 0)
(1.02 -0.00448428 0)
(1.01898 -0.00289258 0)
(1.01831 -0.00161565 0)
(1.01799 -0.000519905 0)
(1.03881 2.90419e-05 0)
(1.03979 7.58094e-05 0)
(1.04178 0.000134001 0)
(1.04486 0.000151961 0)
(1.04911 0.000173378 0)
(1.05474 2.60069e-05 0)
(1.06185 -0.000159201 0)
(1.07083 -0.000892036 0)
(1.08169 -0.00185233 0)
(1.09516 -0.00443181 0)
(1.11083 -0.00767404 0)
(1.13011 -0.0157045 0)
(1.1503 -0.024842 0)
(1.15831 -0.0490823 0)
(1.16863 -0.0844811 0)
(1.15444 -0.14678 0)
(1.06757 -0.231053 0)
(0.446018 -0.232925 0)
(0.0435259 -0.629234 -1.65615e-25)
(0.445086 -1.1422 -4.81417e-23)
(0.975891 -1.30428 0)
(1.09909 -0.984586 0)
(1.10605 -0.722349 -1.0087e-22)
(1.07344 -0.517097 0)
(1.04754 -0.362615 0)
(1.01804 -0.236373 0)
(1.01882 -0.159489 0)
(1.00682 -0.092492 0)
(1.0119 -0.0653462 0)
(1.01659 -0.0445432 0)
(1.01818 -0.0314666 0)
(1.01943 -0.0217558 0)
(1.01947 -0.0153007 0)
(1.01929 -0.0106364 0)
(1.01876 -0.00741322 0)
(1.01819 -0.00509137 0)
(1.01763 -0.00342355 0)
(1.01716 -0.002179 0)
(1.01682 -0.00120754 0)
(1.01666 -0.000387192 0)
(1.03799 0.000552114 0)
(1.03893 0.00167395 0)
(1.04086 0.00289688 0)
(1.04386 0.00421882 0)
(1.04804 0.00577394 0)
(1.05363 0.00744533 0)
(1.06084 0.00949276 0)
(1.07007 0.0114679 0)
(1.08173 0.0139271 0)
(1.0965 0.0154096 0)
(1.11527 0.0176172 0)
(1.13903 0.0153734 0)
(1.1698 0.0142545 0)
(1.21628 0.00036609 0)
(1.24335 -0.0443201 0)
(1.30772 -0.116531 0)
(1.30572 -0.277901 0)
(0.776115 -0.491077 0)
(0.626134 -0.747866 0)
(0.681986 -0.951409 0)
(0.776836 -1.01142 1.98155e-24)
(0.811693 -0.908828 -5.54449e-23)
(0.810456 -0.714172 0)
(0.824649 -0.507818 0)
(0.837183 -0.309083 0)
(0.891585 -0.195826 0)
(0.92432 -0.0950422 0)
(0.960817 -0.0593262 0)
(0.981524 -0.0408674 0)
(0.995794 -0.0259816 0)
(1.0042 -0.0180505 0)
(1.00983 -0.01171 0)
(1.0129 -0.00809329 0)
(1.01476 -0.00532312 0)
(1.01561 -0.00362522 0)
(1.01598 -0.00237972 0)
(1.01605 -0.00156065 0)
(1.01598 -0.00096259 0)
(1.01589 -0.000525094 0)
(1.01584 -0.00016722 0)
(1.03578 0.000994485 0)
(1.03661 0.00303309 0)
(1.03831 0.0052632 0)
(1.04095 0.00774872 0)
(1.04467 0.0107139 0)
(1.04967 0.0141466 0)
(1.05624 0.0184491 0)
(1.06474 0.0234133 0)
(1.07585 0.0297805 0)
(1.09015 0.03681 0)
(1.10944 0.0462112 0)
(1.13418 0.0554606 0)
(1.16938 0.0682125 0)
(1.22356 0.0812903 0)
(1.28583 0.0624444 0)
(1.40085 0.0551514 0)
(1.57177 0.000765577 0)
(1.16961 -0.303325 0)
(0.954343 -0.624935 0)
(0.908985 -0.889204 0)
(0.791662 -1.03778 0)
(0.591338 -0.991947 0)
(0.46749 -0.741796 0)
(0.516711 -0.429715 0)
(0.65168 -0.177116 0)
(0.782303 -0.0857042 0)
(0.87795 -0.0118894 0)
(0.934367 -0.00344252 0)
(0.966358 -0.00116018 0)
(0.985837 0.00125543 0)
(0.998248 0.00110951 0)
(1.00588 0.00176155 0)
(1.01049 0.00131785 0)
(1.01316 0.00132019 0)
(1.01463 0.000992971 0)
(1.01535 0.000822359 0)
(1.01566 0.000593834 0)
(1.01573 0.000414425 0)
(1.01573 0.000238943 0)
(1.01571 7.66976e-05 0)
(1.0325 0.00129186 0)
(1.03313 0.00395232 0)
(1.03443 0.00687734 0)
(1.03645 0.0101955 0)
(1.03931 0.0142012 0)
(1.04313 0.0190129 0)
(1.0482 0.0251369 0)
(1.05473 0.032702 0)
(1.06344 0.0425568 0)
(1.07463 0.0549339 0)
(1.09017 0.0712938 0)
(1.11013 0.0921451 0)
(1.13878 0.119675 0)
(1.18181 0.155648 0)
(1.24747 0.175435 0)
(1.34332 0.240551 0)
(1.48152 0.305919 0)
(1.59737 0.441844 0)
(1.33157 0.226913 0)
(1.17978 0.0679012 0)
(0.924838 -0.00918343 0)
(0.513422 -0.0650809 0)
(0.181849 -0.0885082 0)
(0.189375 -0.0492375 0)
(0.50147 0.0749135 0)
(0.739602 0.0891273 0)
(0.886376 0.0835117 0)
(0.94343 0.0606612 0)
(0.97473 0.0420488 0)
(0.991949 0.0298375 0)
(1.00306 0.0206542 0)
(1.00929 0.014879 0)
(1.01316 0.0103118 0)
(1.0151 0.0073956 0)
(1.01613 0.00513205 0)
(1.01646 0.00358833 0)
(1.01653 0.00241971 0)
(1.01643 0.00155028 0)
(1.01631 0.000862407 0)
(1.01624 0.000272877 0)
(1.02864 0.00139615 0)
(1.02902 0.00427954 0)
(1.0298 0.00746174 0)
(1.031 0.0111157 0)
(1.03268 0.0155617 0)
(1.03484 0.0210332 0)
(1.03769 0.0280558 0)
(1.04117 0.0370771 0)
(1.04586 0.048907 0)
(1.05154 0.0646004 0)
(1.05962 0.0853157 0)
(1.0697 0.113607 0)
(1.08417 0.150563 0)
(1.10475 0.203 0)
(1.15074 0.246788 0)
(1.20299 0.342628 0)
(1.2755 0.449948 0)
(1.31516 0.626146 0)
(1.32914 0.880472 0)
(1.2106 1.06097 0)
(0.962466 1.11486 0)
(0.648143 1.0493 0)
(0.404945 0.838087 0)
(0.379128 0.553059 0)
(0.611091 0.335187 0)
(0.808548 0.239061 0)
(0.958992 0.152581 0)
(0.990474 0.105209 0)
(1.00648 0.0714664 0)
(1.01368 0.0491404 0)
(1.01795 0.0337076 0)
(1.01952 0.0232794 0)
(1.02031 0.0159526 0)
(1.02007 0.0109914 0)
(1.01964 0.00749992 0)
(1.01896 0.00507089 0)
(1.01835 0.00335877 0)
(1.0178 0.00210041 0)
(1.01742 0.00115678 0)
(1.01721 0.000361658 0)
(1.02477 0.00129011 0)
(1.02489 0.00395813 0)
(1.02513 0.00690399 0)
(1.02545 0.0103119 0)
(1.02584 0.0144643 0)
(1.02616 0.0196646 0)
(1.02647 0.0263428 0)
(1.02641 0.0351731 0)
(1.02625 0.0467632 0)
(1.02526 0.0626748 0)
(1.0239 0.0837852 0)
(1.02156 0.11361 0)
(1.01792 0.152847 0)
(1.01351 0.210276 0)
(1.03461 0.270589 0)
(1.04432 0.371885 0)
(1.07852 0.486598 0)
(1.08764 0.632006 0)
(1.0723 0.771001 0)
(1.0221 0.874576 0)
(0.93137 0.914199 -1.37525e-33)
(0.81486 0.859094 0)
(0.723659 0.71555 0)
(0.702758 0.533426 0)
(0.796074 0.359471 0)
(0.927283 0.272413 0)
(1.06011 0.167173 0)
(1.05707 0.111694 0)
(1.04977 0.0758085 0)
(1.04328 0.0517613 0)
(1.03797 0.0352322 0)
(1.03323 0.0238171 0)
(1.02966 0.0161608 0)
(1.02649 0.0108182 0)
(1.02406 0.00726213 0)
(1.02203 0.00475735 0)
(1.02051 0.00309204 0)
(1.01937 0.00187893 0)
(1.01864 0.00102454 0)
(1.01827 0.000312942 0)
(1.02149 0.000996935 0)
(1.02138 0.00305852 0)
(1.02116 0.00531641 0)
(1.02071 0.0079324 0)
(1.01998 0.0110777 0)
(1.01866 0.0150704 0)
(1.01668 0.0201244 0)
(1.01338 0.0269952 0)
(1.00858 0.0359682 0)
(1.00124 0.0486131 0)
(0.990511 0.0657864 0)
(0.975672 0.0901238 0)
(0.953833 0.124718 0)
(0.924263 0.172352 0)
(0.877186 0.250495 0)
(0.874374 0.348525 0)
(0.86726 0.489198 0)
(0.872736 0.649944 0)
(0.907805 0.793153 0)
(0.959874 0.867458 0)
(0.994625 0.84303 2.85889e-34)
(0.987227 0.729885 0)
(0.950867 0.574378 0)
(0.923061 0.426933 0)
(0.918211 0.317334 0)
(1.09845 0.196448 0)
(1.15235 0.121991 0)
(1.11672 0.0822262 0)
(1.08894 0.0552197 0)
(1.07004 0.0371097 0)
(1.05614 0.0247698 0)
(1.04568 0.016217 0)
(1.03804 0.0107189 0)
(1.03218 0.00680542 0)
(1.02787 0.00439893 0)
(1.0246 0.00267948 0)
(1.02225 0.00166031 0)
(1.02058 0.000928593 0)
(1.01953 0.000493133 0)
(1.01901 0.000137727 0)
(1.01925 0.00058053 0)
(1.019 0.00177722 0)
(1.0185 0.00303963 0)
(1.01759 0.00447714 0)
(1.01615 0.00609403 0)
(1.01381 0.00815152 0)
(1.0103 0.0105784 0)
(1.00487 0.0139803 0)
(0.996815 0.0183209 0)
(0.984886 0.0245824 0)
(0.967096 0.0336826 0)
(0.941798 0.0466905 0)
(0.904262 0.0677748 0)
(0.844001 0.103416 0)
(0.737514 0.175123 0)
(0.599282 0.308035 0)
(0.516077 0.470924 0)
(0.56529 0.614012 0)
(0.742714 0.699386 0)
(0.978159 0.71419 -8.49483e-34)
(1.17419 0.655726 8.49358e-34)
(1.25335 0.542658 0)
(1.20973 0.415136 0)
(1.1224 0.306501 0)
(1.12509 0.18269 0)
(1.22197 0.0734572 0)
(1.21119 0.0417082 0)
(1.14951 0.026983 0)
(1.11218 0.0170709 0)
(1.08557 0.00989997 0)
(1.06656 0.00580665 0)
(1.05268 0.00279309 0)
(1.04258 0.00128578 0)
(1.03516 0.000141357 0)
(1.02973 -0.000257987 0)
(1.02575 -0.000563868 0)
(1.02291 -0.000526403 0)
(1.02095 -0.000477062 0)
(1.01972 -0.000286503 0)
(1.01912 -0.000111856 0)
(1.01827 0.000134873 0)
(1.01802 0.000400486 0)
(1.01748 0.000583993 0)
(1.01653 0.000712076 0)
(1.01499 0.000618838 0)
(1.01254 0.000414533 0)
(1.00875 -0.000242801 0)
(1.00294 -0.00111688 0)
(0.994092 -0.00266101 0)
(0.98079 -0.00476052 0)
(0.960739 -0.00733976 0)
(0.930549 -0.0112704 0)
(0.880232 -0.0135218 0)
(0.780654 -0.00412489 0)
(0.607705 0.0377784 0)
(0.439548 0.0880283 0)
(0.399324 0.10988 0)
(0.511727 0.110638 0)
(0.748336 0.099843 0)
(1.03448 0.0911912 -1.38625e-34)
(1.26317 0.0831754 1.38575e-34)
(1.35195 0.0750809 0)
(1.31082 0.0587015 0)
(1.25726 0.0182063 0)
(1.26973 -0.0521912 0)
(1.28114 -0.0788599 0)
(1.21252 -0.0530238 0)
(1.14936 -0.0397073 0)
(1.11248 -0.0280663 0)
(1.08531 -0.0219141 0)
(1.06593 -0.0160987 0)
(1.05196 -0.0124796 0)
(1.04172 -0.00930923 0)
(1.03434 -0.00717976 0)
(1.02889 -0.00530217 0)
(1.02498 -0.00399037 0)
(1.02216 -0.00280642 0)
(1.02025 -0.0019116 0)
(1.01905 -0.00107674 0)
(1.01847 -0.000360547 0)
(1.01851 -0.000236601 0)
(1.01837 -0.000759686 0)
(1.01806 -0.00148338 0)
(1.01752 -0.00249243 0)
(1.01654 -0.00406411 0)
(1.01496 -0.00629933 0)
(1.01234 -0.00974934 0)
(1.00825 -0.0146231 0)
(1.00171 -0.0218947 0)
(0.991639 -0.0323043 0)
(0.976444 -0.0474179 0)
(0.951149 -0.0702692 0)
(0.896286 -0.100011 0)
(0.777377 -0.129007 0)
(0.61459 -0.1634 0)
(0.504627 -0.246519 0)
(0.497549 -0.355612 0)
(0.601504 -0.453162 0)
(0.802007 -0.513016 0)
(1.03675 -0.516324 0)
(1.2211 -0.46979 0)
(1.2998 -0.395478 0)
(1.29597 -0.329768 0)
(1.2827 -0.291469 0)
(1.27009 -0.256912 0)
(1.2265 -0.194003 0)
(1.15983 -0.131894 0)
(1.11677 -0.0953066 0)
(1.08937 -0.0667733 0)
(1.0691 -0.048579 0)
(1.05415 -0.0344605 0)
(1.04349 -0.0250088 0)
(1.03548 -0.0178721 0)
(1.02976 -0.0129316 0)
(1.02544 -0.00918242 0)
(1.02237 -0.00653554 0)
(1.02012 -0.00446034 0)
(1.0186 -0.00291976 0)
(1.01762 -0.00162271 0)
(1.01717 -0.000529358 0)
(1.01961 -0.000451286 0)
(1.01969 -0.00144276 0)
(1.01982 -0.0026898 0)
(1.02001 -0.00437913 0)
(1.02013 -0.00681135 0)
(1.02022 -0.01028 0)
(1.01997 -0.0154004 0)
(1.0194 -0.0227556 0)
(1.0179 -0.0335961 0)
(1.01539 -0.0492978 0)
(1.01182 -0.0724251 0)
(1.00164 -0.107308 0)
(0.959715 -0.156722 0)
(0.866353 -0.221813 0)
(0.763109 -0.325662 0)
(0.695163 -0.483911 0)
(0.677989 -0.647849 0)
(0.730396 -0.780695 0)
(0.847362 -0.854527 0)
(0.987042 -0.852037 0)
(1.10004 -0.782538 0)
(1.15784 -0.673769 0)
(1.17144 -0.558681 0)
(1.16585 -0.450364 0)
(1.14322 -0.342739 0)
(1.1092 -0.243654 0)
(1.07982 -0.172175 0)
(1.06209 -0.123833 0)
(1.0502 -0.0874354 0)
(1.04144 -0.0621793 0)
(1.03439 -0.0437438 0)
(1.02947 -0.0309437 0)
(1.02544 -0.0217205 0)
(1.02258 -0.0152644 0)
(1.02024 -0.0106142 0)
(1.01858 -0.00733251 0)
(1.01728 -0.00490844 0)
(1.01639 -0.00313779 0)
(1.01581 -0.00172459 0)
(1.01554 -0.000554966 0)
(1.02107 -0.000470221 0)
(1.0214 -0.00151768 0)
(1.02204 -0.00279549 0)
(1.02309 -0.00454549 0)
(1.02453 -0.00699382 0)
(1.02659 -0.0105373 0)
(1.02921 -0.0156573 0)
(1.03287 -0.02311 0)
(1.03754 -0.0339537 0)
(1.04425 -0.0497577 0)
(1.05464 -0.0727448 0)
(1.06541 -0.106665 0)
(1.05196 -0.158762 0)
(1.00647 -0.236575 0)
(0.965592 -0.35489 0)
(0.926109 -0.519195 0)
(0.884647 -0.691673 0)
(0.871264 -0.833918 0)
(0.893658 -0.917239 0)
(0.932363 -0.926007 -1.23933e-34)
(0.965351 -0.866579 1.23944e-34)
(0.981001 -0.758687 0)
(0.983387 -0.625231 0)
(0.982809 -0.484066 0)
(0.98486 -0.351277 0)
(0.9908 -0.245478 0)
(0.996905 -0.17246 0)
(1.00097 -0.122164 0)
(1.00564 -0.0856468 0)
(1.00963 -0.0594353 0)
(1.0119 -0.0411631 0)
(1.01358 -0.0283093 0)
(1.01426 -0.0194296 0)
(1.01471 -0.0132073 0)
(1.01469 -0.00893386 0)
(1.01464 -0.00594881 0)
(1.01443 -0.00387064 0)
(1.01427 -0.00239574 0)
(1.01412 -0.00129219 0)
(1.01407 -0.000408443 0)
(1.02231 -0.000309892 0)
(1.02285 -0.00102932 0)
(1.02393 -0.00187822 0)
(1.02571 -0.00309444 0)
(1.02827 -0.00474387 0)
(1.03199 -0.00722218 0)
(1.03705 -0.0106896 0)
(1.04428 -0.0158754 0)
(1.0541 -0.0231872 0)
(1.06829 -0.0339699 0)
(1.08925 -0.0491392 0)
(1.1184 -0.0703751 0)
(1.13706 -0.104921 0)
(1.13435 -0.165472 0)
(1.14178 -0.251077 0)
(1.1413 -0.367204 0)
(1.09576 -0.509415 0)
(1.0302 -0.646 0)
(0.970687 -0.746318 0)
(0.917388 -0.791426 0)
(0.865995 -0.778346 0)
(0.819468 -0.713996 0)
(0.787886 -0.609728 0)
(0.783701 -0.481017 0)
(0.812142 -0.347519 0)
(0.863359 -0.229889 0)
(0.91206 -0.144261 0)
(0.943602 -0.0927907 0)
(0.964905 -0.0617931 0)
(0.980883 -0.0406099 0)
(0.992119 -0.026764 0)
(0.999934 -0.0172177 0)
(1.00494 -0.0111013 0)
(1.00834 -0.0068986 0)
(1.01038 -0.0042741 0)
(1.01171 -0.00251296 0)
(1.01244 -0.00145197 0)
(1.01289 -0.000773486 0)
(1.01311 -0.000374386 0)
(1.01323 -0.000105715 0)
(1.0229 -3.89307e-05 0)
(1.02354 -0.000187128 0)
(1.02486 -0.000317236 0)
(1.02701 -0.000611131 0)
(1.03016 -0.000933304 0)
(1.03472 -0.00159195 0)
(1.04104 -0.00233986 0)
(1.05001 -0.00373402 0)
(1.06236 -0.00532419 0)
(1.07996 -0.00802237 0)
(1.10493 -0.0110121 0)
(1.14166 -0.0146244 0)
(1.18264 -0.0197837 0)
(1.20988 -0.041459 0)
(1.23881 -0.0770312 0)
(1.27435 -0.118774 0)
(1.26312 -0.1856 0)
(1.19226 -0.273992 0)
(1.09167 -0.361903 0)
(0.978083 -0.429104 0)
(0.859596 -0.464634 0)
(0.748069 -0.465663 0)
(0.660654 -0.431969 0)
(0.61892 -0.365792 0)
(0.636471 -0.275716 0)
(0.710607 -0.176879 0)
(0.810364 -0.0898298 0)
(0.889826 -0.0378477 0)
(0.935361 -0.0169432 0)
(0.962252 -0.00742976 0)
(0.980214 -0.00254706 0)
(0.992338 0.000510789 0)
(1.00024 0.00178454 0)
(1.00545 0.00247524 0)
(1.00871 0.00246371 0)
(1.01081 0.00229749 0)
(1.01205 0.00186753 0)
(1.01281 0.00140396 0)
(1.01321 0.000846446 0)
(1.01341 0.000291618 0)
(1.02264 0.000240678 0)
(1.02325 0.000698509 0)
(1.02453 0.00131952 0)
(1.02659 0.00202279 0)
(1.02964 0.00310885 0)
(1.03399 0.00443244 0)
(1.04007 0.00657028 0)
(1.04853 0.00925525 0)
(1.06023 0.0136208 0)
(1.07651 0.0193051 0)
(1.09903 0.0284641 0)
(1.13141 0.0413914 0)
(1.17482 0.0624951 0)
(1.21674 0.0838121 0)
(1.25009 0.0987152 0)
(1.29149 0.119679 0)
(1.31434 0.137299 0)
(1.27946 0.133014 0)
(1.19168 0.105946 0)
(1.06826 0.0663946 0)
(0.92581 0.0255987 0)
(0.781466 -0.0105053 0)
(0.655787 -0.0372113 0)
(0.572888 -0.0492634 0)
(0.55483 -0.0429203 0)
(0.610438 -0.0198809 0)
(0.724935 0.014832 0)
(0.846437 0.0413812 0)
(0.92456 0.0441556 0)
(0.961856 0.0355479 0)
(0.981537 0.0272287 0)
(0.994117 0.0213467 0)
(1.00229 0.0164813 0)
(1.00743 0.0128252 0)
(1.0106 0.00974105 0)
(1.01251 0.00737061 0)
(1.01364 0.00531865 0)
(1.01427 0.00363079 0)
(1.01461 0.00208829 0)
(1.01477 0.000690995 0)
(1.02164 0.000426392 0)
(1.0221 0.00130483 0)
(1.02308 0.00244961 0)
(1.02462 0.00389373 0)
(1.02693 0.00602313 0)
(1.0301 0.00888574 0)
(1.03458 0.0132162 0)
(1.04058 0.0190923 0)
(1.04893 0.0279418 0)
(1.06012 0.040011 0)
(1.07542 0.0578901 0)
(1.09619 0.0826028 0)
(1.12544 0.119047 0)
(1.16221 0.168076 0)
(1.19265 0.221662 0)
(1.22166 0.282573 0)
(1.24736 0.353953 0)
(1.24245 0.420491 0)
(1.19282 0.46613 0)
(1.10103 0.484661 0)
(0.980027 0.477812 0)
(0.847523 0.44909 0)
(0.725313 0.402034 0)
(0.636211 0.341879 0)
(0.602559 0.276974 0)
(0.634827 0.214396 0)
(0.728124 0.164395 0)
(0.850411 0.133114 0)
(0.944237 0.105107 0)
(0.985583 0.0763655 0)
(0.999611 0.0543612 0)
(1.00693 0.0395976 0)
(1.01179 0.0289546 0)
(1.01457 0.0213485 0)
(1.01608 0.0156075 0)
(1.01679 0.0113674 0)
(1.0171 0.00800134 0)
(1.01718 0.00533407 0)
(1.01718 0.00303427 0)
(1.01717 0.000990988 0)
(1.0203 0.00044158 0)
(1.02052 0.00138678 0)
(1.02103 0.00263402 0)
(1.02177 0.00430849 0)
(1.02288 0.00679162 0)
(1.02427 0.0102982 0)
(1.02625 0.0155461 0)
(1.0286 0.0229281 0)
(1.03192 0.0338149 0)
(1.0359 0.0490276 0)
(1.04134 0.0709417 0)
(1.04835 0.101225 0)
(1.05858 0.142916 0)
(1.07634 0.201017 0)
(1.09449 0.274661 0)
(1.10876 0.358624 0)
(1.12125 0.453665 0)
(1.12325 0.552505 0)
(1.10245 0.640303 0)