/*--------------------------------*- C++ -*----------------------------------*\
| =========                 |                                                 |
| \\      /  F ield         | OpenFOAM: The Open Source CFD Toolbox           |
|  \\    /   O peration     | Version:  5.0                                   |
|   \\  /    A nd           | Web:      www.OpenFOAM.org                      |
|    \\/     M anipulation  |                                                 |
\*---------------------------------------------------------------------------*/
FoamFile
{
    version     2.0;
    format      ascii;
    class       volScalarField;
    location    "0";
    object      epsilon;
}
// * * * * * * * * * * * * * * * * * * * * * * * * * * * * * * * * * * * * * //

dimensions      [0 2 -3 0 0 0 0];

internalField   nonuniform List<scalar> 
12225
(
285.525
270.7
257.922
243.803
232.47
223.074
216.822
212.694
212.741
213.942
217.252
220.844
228.173
232.548
241.607
245.753
257.31
263.752
52.4927
91.8826
106.972
114.749
124.838
136.782
152.678
169.901
191.08
210.924
235.169
255.459
280.949
299.265
324.567
339.092
364.287
373.082
20.5284
34.8733
44.6742
50.471
55.3926
59.6097
64.6583
69.6458
76.3058
83.184
91.416
99.3102
108.14
116.905
125.49
135.187
142.468
153.532
16.0023
19.487
24.0809
27.5649
30.4951
32.8708
35.1526
37.2948
39.4987
41.918
44.3307
47.1993
49.6719
53.0291
55.3961
59.2095
61.3973
65.5896
15.0386
15.7129
17.3989
19.0792
20.6387
22.0266
23.2451
24.4314
25.4428
26.5943
27.5215
28.7564
29.6291
30.981
31.8075
33.2554
34.0655
35.6271
14.7898
14.8259
15.2496
15.8679
16.5674
17.2873
17.9234
18.5842
19.1187
19.7337
20.1926
20.798
21.2072
21.8205
22.1958
22.8212
23.174
23.8504
14.7658
14.6147
14.6411
14.7259
14.9351
15.2201
15.4915
15.8089
16.0708
16.3824
16.6179
16.9198
17.1304
17.4261
17.6147
17.9102
18.0791
18.4027
14.7686
14.5866
14.466
14.3802
14.3678
14.3897
14.4394
14.5334
14.6185
14.7366
14.8308
14.9563
15.0475
15.1758
15.2605
15.3909
15.4688
15.618
14.768
14.591
14.4349
14.2963
14.1851
14.1044
14.0399
14.0067
13.9815
13.9785
13.9809
13.9916
14.004
14.0294
14.0469
14.0791
14.1027
14.1449
14.7665
14.594
14.432
14.282
14.143
14.0219
13.9116
13.8194
13.737
13.6698
13.6102
13.5633
13.5181
13.4871
13.4516
13.4341
13.402
13.4005
14.7659
14.5945
14.4321
14.2803
14.1361
14.0032
13.8782
13.7644
13.6582
13.5629
13.4736
13.3952
13.3199
13.2561
13.1916
13.1408
13.0838
13.0451
14.7657
14.5943
14.4321
14.2798
14.1353
13.9998
13.8715
13.7518
13.6385
13.5337
13.4341
13.343
13.2557
13.1771
13.1003
13.0328
12.9647
12.9074
14.7657
14.5941
14.432
14.2794
14.1349
13.9989
13.8699
13.7485
13.6332
13.525
13.422
13.3257
13.2338
13.1484
13.0663
12.9906
12.9172
12.8503
14.7657
14.5939
14.4318
14.279
14.1346
13.9983
13.8691
13.7472
13.6315
13.5223
13.4184
13.3204
13.227
13.139
13.055
12.9759
12.9003
12.8291
14.7657
14.5938
14.4317
14.2787
14.1342
13.9977
13.8686
13.7464
13.6307
13.5211
13.4171
13.3185
13.2249
13.136
13.0516
12.9714
12.8951
12.8227
14.7657
14.5937
14.4315
14.2785
14.1339
13.9973
13.8681
13.7458
13.63
13.5202
13.4161
13.3174
13.2236
13.1346
13.05
12.9696
12.8931
12.8204
14.7657
14.5937
14.4315
14.2783
14.1337
13.997
13.8677
13.7453
13.6294
13.5195
13.4154
13.3165
13.2227
13.1336
13.0489
12.9684
12.8918
12.819
14.7657
14.5937
14.4314
14.2782
14.1335
13.9968
13.8674
13.7449
13.629
13.5191
13.4148
13.3159
13.222
13.1328
13.0481
12.9675
12.8908
12.8179
14.7657
14.5937
14.4314
14.2782
14.1335
13.9967
13.8673
13.7448
13.6288
13.5188
13.4146
13.3156
13.2217
13.1325
13.0477
12.967
12.8903
12.8174
14.7657
14.5937
14.4314
14.2782
14.1336
13.9968
13.8674
13.745
13.629
13.519
13.4148
13.3158
13.2219
13.1327
13.0479
12.9673
12.8906
12.8177
14.7657
14.5937
14.4315
14.2784
14.1337
13.997
13.8677
13.7453
13.6294
13.5195
13.4154
13.3166
13.2229
13.1338
13.0493
12.9689
12.8926
12.8199
14.7657
14.5937
14.4316
14.2785
14.1341
13.9974
13.8685
13.7464
13.6311
13.522
13.419
13.3213
13.2292
13.1418
13.0594
12.981
12.9073
12.8368
14.7658
14.5937
14.4318
14.2788
14.1353
14.0002
13.8742
13.756
13.6463
13.5434
13.4484
13.3591
13.277
13.1992
13.1282
13.0601
12.9988
12.9386
14.7656
14.5927
14.4328
14.2844
14.1515
14.0321
13.9289
13.8374
13.7592
13.6893
13.6306
13.5769
13.5327
13.4905
13.4574
13.423
13.3988
13.3693
14.7593
14.5926
14.4604
14.3601
14.3028
14.2766
14.2805
14.2921
14.321
14.3531
14.3959
14.4346
14.4825
14.5217
14.572
14.609
14.6617
14.694
14.7203
14.6897
14.7546
14.9171
15.1828
15.4612
15.7477
16.0121
16.2724
16.5039
16.7362
16.9388
17.1509
17.3311
17.5312
17.6939
17.8891
18.0363
14.7406
15.5138
16.5479
17.6843
18.7046
19.5677
20.3373
20.997
21.6196
22.1663
22.7192
23.2112
23.7404
24.2049
24.7334
25.1834
25.7259
26.1669
15.9817
20.9897
25.0225
27.7594
29.784
31.3581
32.7769
34.0579
35.3597
36.6168
37.9762
39.2981
40.7629
42.1473
43.7198
45.176
46.8864
48.3615
29.8998
47.2155
54.8679
58.6723
61.6131
64.4315
67.5808
70.9782
74.74
78.7166
82.9884
87.3485
91.9101
96.4564
101.107
105.631
110.184
114.586
165.791
160.073
154.898
149.564
144.479
139.678
135.615
132.109
129.271
126.975
125.321
124.046
123.341
122.831
122.828
122.985
123.272
123.83
0.1506
0.19408
0.363852
0.513465
0.655182
0.815608
1.00257
1.22693
1.49499
1.806
2.15372
2.52941
2.9241
3.32963
3.73899
4.14606
4.54549
4.93247
5.30268
5.65229
5.9781
6.2778
6.5504
6.79678
7.02033
7.22753
7.39096
7.54745
7.80112
8.04615
8.32707
8.58847
9.07389
39.9004
41.7805
43.2032
43.9236
44.5006
44.4567
43.3249
42.6293
41.8283
41.2152
45.6259
48.2471
51.9977
55.4348
59.2844
63.1767
67.3038
71.5682
76.0254
80.6498
85.4602
90.4511
95.6306
100.999
106.561
112.318
118.273
124.429
130.787
137.349
144.116
151.088
158.267
165.65
173.239
181.03
189.024
197.216
205.604
214.184
222.953
231.903
241.032
250.33
259.793
269.412
279.179
289.085
299.12
309.274
319.535
329.891
340.331
350.838
361.399
371.998
382.616
393.233
403.828
414.375
424.85
435.225
445.479
455.601
465.616
475.59
485.382
495.051
504.554
513.891
523.04
531.988
540.718
549.217
557.467
565.455
573.167
580.588
587.705
594.506
600.979
607.111
612.893
618.314
623.365
628.037
632.323
636.217
639.711
642.802
645.486
647.758
649.616
651.054
652.06
652.711
652.992
652.774
652.098
650.988
649.574
647.825
645.609
643.031
640.075
636.757
633.087
629.076
624.736
620.088
615.133
609.884
604.355
598.559
592.511
586.226
579.718
573.002
566.095
559.011
551.766
544.375
536.855
529.219
521.483
513.664
505.779
497.85
489.917
482.12
475.79
472.466
469.651
466.854
464.03
461.177
458.297
455.392
452.459
449.49
446.466
443.348
440.056
436.426
432.022
425.895
400.838
0.778198
0.485395
0.492494
0.556751
0.655713
0.784631
0.945858
1.14198
1.37364
1.63877
1.93311
2.25133
2.58804
2.9383
3.29785
3.66311
4.03119
4.39998
4.76823
5.13576
5.5038
5.87537
6.25577
6.65324
7.0797
7.55246
8.09842
8.76731
9.62052
10.7296
12.2196
14.2799
17.226
20.7868
22.142
22.4543
22.4953
22.6641
23.0481
23.6675
24.6353
25.9075
27.0482
28.8782
30.5285
32.3097
34.0957
35.9664
37.8848
39.8754
41.9289
44.0532
46.2464
48.5118
50.8495
53.2611
55.7471
58.3085
60.9459
63.6597
66.4503
69.3178
72.2624
75.284
78.3821
81.5565
84.8065
88.1312
91.5298
95.0009
98.5433
102.155
105.835
109.581
113.39
117.261
121.19
125.174
129.211
133.298
137.429
141.602
145.813
150.056
154.328
158.622
162.934
167.258
171.586
175.913
180.23
184.531
188.808
193.055
197.268
201.448
205.608
209.775
213.996
218.147
222.25
226.291
230.267
234.172
237.998
241.741
245.394
248.951
252.407
255.756
258.992
262.11
265.106
267.973
270.708
273.307
275.764
278.076
280.24
282.252
284.109
285.809
287.35
288.729
289.945
290.996
291.881
292.601
293.163
293.557
293.765
293.797
293.665
293.394
292.973
292.378
291.628
290.724
289.668
288.464
287.117
285.63
284.009
282.256
280.376
278.375
276.256
274.025
271.689
269.251
266.719
264.098
261.393
258.611
255.758
252.84
249.863
246.833
243.756
240.639
237.492
234.33
231.208
228.389
226.157
224.098
222.067
220.035
217.999
215.958
213.914
211.868
209.822
207.776
205.729
203.683
201.62
199.607
197.584
194.166
1.67187
0.867135
0.782959
0.816715
0.900755
1.02321
1.18197
1.37652
1.60556
1.8662
2.15433
2.46537
2.79496
3.13938
3.4957
3.8618
4.23636
4.6189
5.00992
5.41103
5.8253
6.25753
6.71474
7.20664
7.74615
8.34956
9.03458
9.81555
10.7069
11.7221
12.871
14.1423
15.4804
16.7313
17.5504
18.2033
18.874
19.6475
20.543
21.5579
22.6831
23.8745
25.1603
26.5472
27.9549
29.4174
30.9262
32.49
34.106
35.7769
37.5021
39.2829
41.1195
43.0129
44.9634
46.9717
49.0381
51.1632
53.3473
55.5908
57.8935
60.2557
62.6773
65.1582
67.698
70.2966
72.9533
75.6676
78.4388
81.266
84.1481
87.0841
90.0725
93.1119
96.2007
99.3371
102.519
105.744
109.011
112.316
115.656
119.03
122.433
125.863
129.316
132.787
136.274
139.772
143.277
146.785
150.291
153.791
157.283
160.763
164.232
167.689
171.138
174.585
178.016
181.406
184.754
188.055
191.304
194.495
197.624
200.685
203.673
206.584
209.413
212.156
214.807
217.362
219.818
222.17
224.414
226.546
228.564
230.464
232.242
233.897
235.426
236.827
238.098
239.236
240.242
241.113
241.85
242.451
242.918
243.248
243.425
243.467
243.381
243.169
242.829
242.354
241.751
241.022
240.169
239.195
238.103
236.897
235.58
234.155
232.626
230.998
229.273
227.457
225.554
223.568
221.505
219.367
217.162
214.892
212.564
210.182
207.751
205.275
202.761
200.214
197.641
195.054
192.485
190.033
187.79
185.643
183.526
181.418
179.314
177.214
175.121
173.035
170.961
168.904
166.87
164.874
162.931
161.138
159.53
157.982
2.70844
1.29897
1.11376
1.11694
1.19396
1.31798
1.48127
1.68073
1.91389
2.17769
2.46847
2.78239
3.1159
3.46611
3.83094
4.20913
4.60024
5.00461
5.42339
5.85861
6.31323
6.79122
7.29757
7.83818
8.41953
9.04803
9.7293
10.4669
11.2616
12.1103
13.004
13.9252
14.8475
15.7407
16.5843
17.4345
18.3328
19.3017
20.3418
21.4514
22.625
23.8523
25.1323
26.4565
27.8198
29.2273
30.6807
32.1829
33.7349
35.3379
36.9925
38.6995
40.4595
42.2733
44.1412
46.064
48.042
50.0757
52.1657
54.3122
56.5156
58.776
61.0937
63.4687
65.9009
68.3902
70.9364
73.5391
76.1977
78.9117
81.6803
84.5026
87.3774
90.3035
93.2796
96.3041
99.3751
102.491
105.649
108.848
112.084
115.355
118.658
121.991
125.349
128.73
132.13
135.544
138.971
142.405
145.843
149.282
152.719
156.151
159.575
162.991
166.396
169.785
173.148
176.474
179.76
182.998
186.185
189.316
192.384
195.385
198.313
201.165
203.935
206.618
209.21
211.706
214.103
216.395
218.579
220.653
222.611
224.451
226.17
227.765
229.234
230.575
231.786
232.865
233.811
234.624
235.302
235.845
236.254
236.522
236.638
236.638
236.5
236.234
235.84
235.315
234.664
233.888
232.99
231.973
230.84
229.595
228.242
226.783
225.223
223.565
221.815
219.975
218.051
216.048
213.969
211.819
209.604
207.328
204.996
202.613
200.183
197.713
195.206
192.668
190.107
187.532
184.966
182.456
180.044
177.691
175.367
173.056
170.756
168.466
166.19
163.929
161.69
159.478
157.3
155.179
153.143
151.283
149.646
148.246
3.75967
1.74436
1.45287
1.42468
1.49129
1.61368
1.77871
1.98079
2.2164
2.48232
2.77523
3.09181
3.4291
3.7847
4.15695
4.54493
4.94844
5.36794
5.80449
6.25972
6.73581
7.23537
7.76142
8.31719
8.90584
9.53019
10.1923
10.8929
11.6313
12.405
13.2095
14.0389
14.8879
15.7544
16.6426
17.567
18.5387
19.5634
20.6411
21.7703
22.948
24.1709
25.4393
26.7575
28.1207
29.5296
30.9855
32.4903
34.0451
35.6514
37.3101
39.0221
40.7886
42.6104
44.4885
46.4233
48.4155
50.4657
52.5748
54.7433
56.9718
59.2608
61.6108
64.022
66.4947
69.029
71.625
74.2826
77.0015
79.7812
82.6213
85.521
88.4795
91.4956
94.5681
97.6955
100.876
104.108
107.389
110.718
114.09
117.505
120.958
124.447
127.968
131.518
135.093
138.689
142.303
145.93
149.566
153.208
156.851
160.491
164.125
167.747
171.351
174.932
178.482
181.995
185.463
188.883
192.247
195.55
198.787
201.951
205.038
208.041
210.955
213.776
216.498
219.117
221.627
224.024
226.305
228.465
230.5
232.407
234.183
235.825
237.331
238.698
239.924
241.009
241.95
242.747
243.399
243.906
244.268
244.47
244.529
244.455
244.236
243.877
243.38
242.746
241.977
241.076
240.046
238.891
237.614
236.219
234.71
233.091
231.366
229.54
227.617
225.602
223.5
221.316
219.056
216.723
214.324
211.863
209.346
206.778
204.165
201.511
198.822
196.104
193.364
190.611
187.86
185.139
182.47
179.841
177.238
174.652
172.083
169.53
166.998
164.491
162.014
159.576
157.19
154.879
152.677
150.662
148.871
147.281
4.7674
2.17838
1.78132
1.72119
1.77512
1.89314
2.05699
2.25877
2.49396
2.75912
3.05111
3.36701
3.70425
4.06077
4.43513
4.82652
5.23474
5.66014
6.10352
6.5661
7.04942
7.5553
8.08573
8.64282
9.22863
9.84501
10.4934
11.1748
11.8895
12.6372
13.4172
14.2287
15.072
15.9486
16.8619
17.8165
18.8159
19.8623
20.9561
22.0973
23.2855
24.5206
25.8033
27.1344
28.5139
29.9426
31.4215
32.9522
34.5359
36.174
37.8678
39.6185
41.4273
43.2951
45.2232
47.2128
49.2652
51.3816
53.5628
55.81
58.124
60.5058
62.956
65.4754
68.0645
70.7237
73.4534
76.2537
79.1246
82.066
85.0773
88.1581
91.3075
94.5246
97.8081
101.156
104.568
108.041
111.572
115.16
118.802
122.495
126.235
130.018
133.842
137.702
141.594
145.514
149.456
153.418
157.392
161.375
165.362
169.346
173.323
177.286
181.228
185.143
189.024
192.862
196.653
200.388
204.063
207.669
211.201
214.653
218.017
221.287
224.458
227.524
230.479
233.318
236.035
238.625
241.085
243.408
245.592
247.632
249.526
251.269
252.86
254.296
255.575
256.695
257.656
258.456
259.095
259.573
259.885
260.021
260.014
259.848
259.523
259.045
258.414
257.633
256.704
255.631
254.418
253.068
251.586
249.976
248.243
246.391
244.426
242.352
240.175
237.901
235.534
233.081
230.546
227.937
225.258
222.515
219.715
216.864
213.966
211.028
208.057
205.057
202.036
199.003
195.969
192.953
189.968
187.013
184.083
181.174
178.286
175.423
172.588
169.786
167.024
164.314
161.669
159.114
156.684
154.445
152.416
150.519
5.69388
2.58405
2.08579
1.99343
2.0329
2.14416
2.30411
2.5027
2.73447
2.99566
3.28322
3.59451
3.92726
4.27966
4.65046
5.03891
5.44481
5.86841
6.31038
6.7717
7.25361
7.75759
8.28525
8.83831
9.41855
10.0277
10.6674
11.3391
12.0438
12.7825
13.5562
14.3656
15.212
16.097
17.0227
17.991
19.0039
20.0627
21.1683
22.3215
23.5232
24.7741
26.0751
27.4274
28.8319
30.2897
31.8022
33.3709
34.9972
36.6829
38.4295
40.2386
42.1117
44.0504
46.0562
48.1309
50.2759
52.4928
54.7831
57.1481
59.5893
62.1078
64.7049
67.3815
70.1387
72.9771
75.8975
78.9002
81.9854
85.1532
88.4033
91.7353
95.1485
98.6418
102.214
105.864
109.589
113.387
117.256
121.193
125.195
129.258
133.379
137.554
141.778
146.046
150.354
154.697
159.069
163.464
167.877
172.301
176.731
181.158
185.578
189.98
194.36
198.707
203.015
207.276
211.483
215.627
219.701
223.698
227.61
231.429
235.149
238.762
242.262
245.642
248.895
252.015
254.996
257.833
260.521
263.053
265.427
267.638
269.682
271.555
273.256
274.78
276.128
277.295
278.283
279.09
279.715
280.159
280.408
280.479
280.38
280.102
279.649
279.023
278.228
277.265
276.14
274.855
273.415
271.825
270.089
268.214
266.204
264.065
261.803
259.423
256.932
254.335
251.64
248.853
245.979
243.026
240.001
236.909
233.757
230.553
227.303
224.012
220.689
217.339
213.969
210.588
207.206
203.836
200.488
197.166
193.869
190.597
187.354
184.141
180.965
177.832
174.749
171.729
168.788
165.95
163.248
160.738
158.42
156.171
6.51239
2.94847
2.35642
2.2322
2.25588
2.35828
2.51189
2.70468
2.93026
3.18455
3.46452
3.76772
4.09215
4.43622
4.79885
5.17941
5.57773
5.99408
6.42911
6.88375
7.35919
7.8568
8.37806
8.92418
9.4972
10.0989
10.7311
11.3954
12.0935
12.8268
13.5967
14.4047
15.2522
16.1406
17.0716
18.0467
19.0674
20.1352
21.2514
22.4172
23.6341
24.9031
26.2257
27.6035
29.0378
30.5303
32.0828
33.6972
35.3753
37.1192
38.9308
40.812
42.765
44.7918
46.8944
49.0749
51.3354
53.6779
56.1042
58.6164
61.2163
63.9055
66.6857
69.5584
72.5248
75.5861
78.7433
81.997
85.3478
88.7957
92.3409
95.9827
99.7207
103.554
107.48
111.499
115.607
119.803
124.083
128.444
132.883
137.395
141.977
146.622
151.327
156.086
160.892
165.74
170.623
175.534
180.467
185.413
190.366
195.316
200.256
205.176
210.069
214.925
219.736
224.491
229.184
233.804
238.343
242.793
247.145
251.391
255.521
259.529
263.406
267.144
270.737
274.178
277.459
280.575
283.519
286.286
288.872
291.272
293.481
295.496
297.313
298.932
300.348
301.562
302.571
303.376
303.976
304.368
304.544
304.528
304.311
303.897
303.286
302.483
301.49
300.312
298.952
297.416
295.709
293.836
291.803
289.617
287.283
284.809
282.2
279.464
276.607
273.638
270.562
267.387
264.122
260.772
257.346
253.851
250.294
246.684
243.027
239.331
235.603
231.85
228.08
224.3
220.521
216.751
213.002
209.277
205.581
201.915
198.283
194.69
191.142
187.647
184.214
180.854
177.586
174.433
171.425
168.608
165.966
163.346
7.20668
3.26329
2.58694
2.4319
2.43893
2.53072
2.67588
2.86061
3.07765
3.32264
3.5925
3.88495
4.19816
4.5308
4.88197
5.25121
5.63834
6.04352
6.46772
6.912
7.37761
7.86603
8.37904
8.91809
9.48434
10.0794
10.7051
11.3631
12.0552
12.7832
13.5486
14.3532
15.1985
16.0862
17.0178
17.9951
19.0196
20.0929
21.2169
22.3934
23.6243
24.9122
26.2592
27.6662
29.1347
30.6668
32.2651
33.9322
35.6704
37.4822
39.37
41.3364
43.3839
45.5151
47.7327
50.0392
52.4372
54.9293
57.5181
60.2059
62.9951
65.888
68.8867
71.993
75.2088
78.5355
81.9743
85.5263
89.1921
92.9721
96.8663
100.874
104.995
109.228
113.571
118.023
122.58
127.24
132
136.854
141.801
146.833
151.947
157.136
162.394
167.715
173.091
178.516
183.981
189.479
195
200.537
206.079
211.617
217.142
222.644
228.111
233.534
238.904
244.209
249.439
254.585
259.637
264.584
269.417
274.127
278.703
283.137
287.42
291.544
295.5
299.28
302.878
306.286
309.498
312.507
315.31
317.899
320.272
322.424
324.353
326.055
327.528
328.772
329.786
330.569
331.122
331.436
331.521
331.383
331.02
330.436
329.635
328.619
327.392
325.96
324.327
322.5
320.484
318.286
315.913
313.371
310.67
307.815
304.814
301.676
298.409
295.02
291.518
287.911
284.207
280.415
276.544
272.601
268.595
264.535
260.428
256.283
252.109
247.911
243.699
239.481
235.266
231.062
226.879
222.723
218.599
214.511
210.465
206.467
202.522
198.641
194.832
191.109
187.488
183.994
180.652
177.501
174.51
171.511
7.76804
3.52406
2.77464
2.58963
2.58027
2.66003
2.79499
2.96978
3.17643
3.41024
3.66814
3.94792
4.24794
4.56679
4.90427
5.26042
5.63584
6.031
6.44577
6.88087
7.33737
7.81655
8.3196
8.84806
9.40359
9.98822
10.6038
11.2523
11.9355
12.6554
13.4136
14.2122
15.053
15.9377
16.8684
17.8469
18.8752
19.9554
21.0897
22.2803
23.5292
24.8385
26.2104
27.6477
29.1539
30.7313
32.3828
34.1115
35.9203
37.8123
39.7904
41.8577
44.0175
46.2728
48.627
51.0832
53.6448
56.3148
59.0965
61.9928
65.0067
68.141
71.3982
74.7807
78.2907
81.93
85.7001
89.6022
93.6371
97.8053
102.107
106.541
111.106
115.803
120.627
125.577
130.65
135.842
141.149
146.566
152.089
157.71
163.424
169.225
175.104
181.053
187.065
193.131
199.241
205.386
211.555
217.738
223.925
230.104
236.264
242.394
248.482
254.515
260.483
266.375
272.177
277.88
283.471
288.94
294.276
299.468
304.505
309.378
314.076
318.591
322.912
327.033
330.944
334.638
338.109
341.35
344.355
347.118
349.636
351.905
353.921
355.682
357.186
358.431
359.419
360.148
360.618
360.825
360.78
360.482
359.935
359.143
358.11
356.84
355.338
353.61
351.661
349.5
347.132
344.566
341.81
338.871
335.758
332.48
329.045
325.464
321.743
317.894
313.925
309.845
305.664
301.391
297.036
292.608
288.116
283.57
278.978
274.351
269.695
265.021
260.335
255.647
250.966
246.3
241.658
237.048
232.475
227.945
223.465
219.04
214.68
210.393
206.19
202.084
198.093
194.237
190.54
187.034
183.679
180.299
8.19525
3.72932
2.919
2.70586
2.68059
2.74739
2.8708
3.0342
3.22903
3.45029
3.69472
3.9608
4.24763
4.5551
4.88153
5.22634
5.58925
5.97026
6.37041
6.79094
7.23306
7.69805
8.18735
8.70276
9.24622
9.81936
10.424
11.0621
11.7356
12.4466
13.1971
13.9893
14.8253
15.7074
16.6377
17.6187
18.6527
19.7423
20.8899
22.0984
23.3705
24.7091
26.117
27.5978
29.1538
30.787
32.5032
34.3075
36.2032
38.1938
40.2827
42.4739
44.771
47.178
49.6988
52.3373
55.0975
57.9832
60.9981
64.1459
67.4301
70.854
74.4205
78.1326
81.9925
86.0024
90.164
94.4786
98.9468
103.569
108.345
113.274
118.354
123.584
128.961
134.482
140.142
145.938
151.863
157.913
164.081
170.36
176.742
183.218
189.781
196.42
203.126
209.888
216.695
223.537
230.4
237.275
244.146
251.004
257.833
264.621
271.355
278.022
284.609
291.102
297.489
303.757
309.893
315.886
321.722
327.391
332.881
338.18
343.279
348.166
352.833
357.27
361.469
365.422
369.121
372.56
375.733
378.634
381.259
383.605
385.667
387.445
388.935
390.138
391.054
391.682
392.024
392.081
391.856
391.35
390.571
389.523
388.212
386.641
384.816
382.746
380.436
377.895
375.131
372.153
368.969
365.59
362.024
358.282
354.374
350.309
346.099
341.752
337.28
332.693
328.001
323.215
318.345
313.401
308.394
303.333
298.229
293.092
287.931
282.754
277.572
272.392
267.224
262.076
256.957
251.876
246.839
241.852
236.924
232.061
227.273
222.567
217.957
213.456
209.08
204.848
200.782
196.908
193.18
189.421
8.49341
3.88043
3.02166
2.78344
2.74262
2.79595
2.90686
3.05769
3.2399
3.44902
3.68261
3.93764
4.21224
4.5047
4.81502
5.14337
5.49007
5.85586
6.24168
6.64835
7.07698
7.5289
8.00561
8.50881
9.04031
9.60199
10.1958
10.8239
11.4885
12.1918
12.9363
13.7243
14.5585
15.4414
16.3758
17.3644
18.4104
19.5168
20.6866
21.923
23.2297
24.6108
26.0689
27.6064
29.2255
30.9352
32.7397
34.6435
36.6529
38.7719
41.0046
43.3552
45.8284
48.4288
51.1612
54.0301
57.0401
60.1957
63.5014
66.9612
70.5791
74.3588
78.3037
82.4167
86.7004
91.1569
95.7878
100.594
105.576
110.734
116.067
121.573
127.251
133.097
139.108
145.279
151.606
158.082
164.701
171.456
178.339
185.341
192.454
199.666
206.968
214.348
221.795
229.296
236.84
244.412
252
259.589
267.167
274.717
282.226
289.679
297.062
304.359
311.557
318.64
325.595
332.408
339.065
345.553
351.859
357.97
363.874
369.559
375.014
380.228
385.191
389.893
394.327
398.482
402.353
405.933
409.215
412.194
414.865
417.226
419.274
421.005
422.42
423.519
424.301
424.769
424.923
424.769
424.304
423.531
422.462
421.103
419.457
417.531
415.333
412.868
410.148
407.179
403.972
400.537
396.883
393.022
388.964
384.719
380.301
375.718
370.984
366.108
361.103
355.98
350.751
345.425
340.016
334.534
328.99
323.395
317.759
312.095
306.411
300.717
295.023
289.337
283.67
278.029
272.425
266.864
261.355
255.905
250.523
245.215
239.992
234.863
229.84
224.936
220.168
215.554
211.111
206.863
202.76
198.629
8.67454
3.98178
3.08623
2.82621
2.77048
2.81014
2.9088
3.04924
3.22122
3.41881
3.63795
3.87723
4.13564
4.41271
4.70835
5.02243
5.35523
5.70736
6.07968
6.47319
6.88909
7.32879
7.79388
8.28614
8.80749
9.35998
9.94582
10.5673
11.2271
11.9276
12.6718
13.4626
14.303
15.1961
16.1452
17.1537
18.2254
19.3648
20.5747
21.8587
23.2199
24.6597
26.185
27.8029
29.5208
31.3436
33.2764
35.3248
37.4949
39.7924
42.2224
44.7902
47.5013
50.361
53.3749
56.5482
59.886
63.3933
67.075
70.9355
74.979
79.2093
83.6298
88.2432
93.0519
98.0576
103.261
108.663
114.263
120.06
126.052
132.236
138.609
145.167
151.904
158.815
165.893
173.13
180.519
188.05
195.713
203.499
211.395
219.39
227.472
235.628
243.844
252.107
260.401
268.713
277.027
285.328
293.599
301.826
309.992
318.082
326.079
333.967
341.731
349.356
356.825
364.125
371.241
378.159
384.864
391.345
397.587
403.58
409.311
414.769
419.944
424.827
429.409
433.681
437.637
441.269
444.572
447.541
450.173
452.463
454.41
456.012
457.269
458.182
458.751
458.98
458.874
458.434
457.651
456.543
455.119
453.383
451.341
449
446.368
443.456
440.271
436.825
433.128
429.191
425.025
420.642
416.054
411.273
406.311
401.181
395.894
390.465
384.903
379.223
373.436
367.555
361.591
355.556
349.463
343.323
337.147
330.947
324.733
318.516
312.306
306.112
299.942
293.808
287.716
281.677
275.697
269.786
263.951
258.201
252.545
246.994
241.56
236.255
231.096
226.098
221.278
216.657
212.184
207.693
8.7336
4.03319
3.11504
2.83774
2.76962
2.79934
2.88776
3.01533
3.17296
3.35575
3.56095
3.78674
4.03189
4.29582
4.57838
4.87967
5.2001
5.54035
5.90132
6.28415
6.69017
7.12096
7.57828
8.06413
8.58072
9.13046
9.71581
10.3395
11.0044
11.7136
12.4708
13.2798
14.1443
15.0675
16.0533
17.1053
18.2269
19.419
20.6897
22.0451
23.4914
25.036
26.6843
28.4428
30.3185
32.3177
34.4469
36.7131
39.1237
41.684
44.4009
47.2809
50.3306
53.5561
56.9633
60.5578
64.3449
68.3298
72.5172
76.9114
81.5162
86.3349
91.3702
96.624
102.098
107.792
113.706
119.839
126.189
132.753
139.528
146.509
153.691
161.067
168.631
176.374
184.287
192.362
200.587
208.952
217.445
226.053
234.763
243.563
252.436
261.37
270.348
279.355
288.376
297.393
306.391
315.352
324.261
333.099
341.851
350.498
359.024
367.413
375.648
383.713
391.592
399.27
406.733
413.964
420.952
427.681
434.141
440.317
446.2
451.777
457.039
461.977
466.582
470.847
474.764
478.327
481.532
484.374
486.849
488.955
490.691
492.056
493.049
493.675
493.934
493.832
493.377
492.548
491.37
489.848
487.991
485.805
483.297
480.476
477.351
473.932
470.23
466.256
462.022
457.54
452.822
447.882
442.731
437.384
431.853
426.152
420.293
414.292
408.16
401.91
395.556
389.111
382.587
375.997
369.353
362.668
355.953
349.221
342.483
335.749
329.029
322.333
315.67
309.051
302.483
295.975
289.537
283.175
276.9
270.719
264.642
258.68
252.844
247.148
241.606
236.234
231.045
226.059
221.226
216.395
8.71537
4.04326
3.11465
2.82798
2.75027
2.76712
2.84201
2.95684
3.10236
3.27331
3.46673
3.68086
3.91471
4.1678
4.44008
4.73182
5.04361
5.37634
5.73111
6.10923
6.51228
6.9421
7.40078
7.89077
8.41496
8.97681
9.57873
10.2239
10.9157
11.6576
12.453
13.3038
14.2146
15.192
16.2417
17.3695
18.5815
19.8853
21.2862
22.7909
24.407
26.1426
28.0051
30.0021
32.1412
34.4304
36.8773
39.4898
42.2757
45.2426
48.3981
51.7504
55.3069
59.0739
63.0566
67.2601
71.6888
76.3471
81.2384
86.3659
91.7318
97.3378
103.185
109.272
115.6
122.165
128.966
135.998
143.258
150.739
158.436
166.342
174.448
182.746
191.225
199.876
208.688
217.648
226.745
235.964
245.293
254.717
264.222
273.791
283.411
293.063
302.733
312.404
322.058
331.678
341.248
350.75
360.166
369.479
378.671
387.726
396.627
405.355
413.896
422.232
430.349
438.23
445.862
453.23
460.32
467.119
473.616
479.798
485.655
491.175
496.35
501.172
505.631
509.722
513.437
516.773
519.724
522.288
524.46
526.241
527.628
528.624
529.225
529.444
529.281
528.741
527.808
526.504
524.835
522.809
520.436
517.722
514.675
511.305
507.623
503.64
499.368
494.819
490.005
484.94
479.637
474.109
468.371
462.436
456.319
450.033
443.593
437.013
430.306
423.487
416.568
409.564
402.487
395.351
388.168
380.951
373.713
366.466
359.22
351.988
344.778
337.602
330.467
323.385
316.363
309.41
302.535
295.747
289.053
282.463
275.986
269.634
263.417
257.349
251.442
245.713
240.171
234.838
229.663
224.517
8.65957
4.03384
3.09861
2.79935
2.70943
2.71529
2.77965
2.88417
3.01962
3.18102
3.36557
3.5717
3.79859
4.04595
4.31395
4.60316
4.91458
5.24983
5.61055
5.99815
6.41458
6.86219
7.34352
7.86115
8.41722
9.01286
9.65425
10.3465
11.0946
11.9038
12.7798
13.7294
14.7588
15.8742
17.0829
18.3926
19.8116
21.3491
23.0132
24.8129
26.7572
28.8557
31.1176
33.5521
36.1682
38.9747
41.9801
45.1915
48.615
52.2606
56.1375
60.2551
64.6248
69.2491
74.129
79.2662
84.6624
90.3185
96.235
102.411
108.847
115.538
122.484
129.679
137.118
144.797
152.709
160.846
169.2
177.763
186.525
195.476
204.605
213.9
223.349
232.94
242.659
252.493
262.428
272.45
282.542
292.691
302.88
313.094
323.317
333.531
343.722
353.871
363.962
373.979
383.903
393.718
403.408
412.954
422.341
431.551
440.568
449.376
457.96
466.303
474.391
482.21
489.745
496.985
503.915
510.524
516.8
522.734
528.314
533.531
538.377
542.846
546.928
550.62
553.916
556.811
559.302
561.388
563.065
564.336
565.195
565.654
565.694
565.374
564.628
563.487
561.961
560.055
557.777
555.137
552.145
548.805
545.13
541.13
536.816
532.201
527.297
522.117
516.674
510.982
505.055
498.908
492.555
486.01
479.289
472.406
465.376
458.213
450.931
443.545
436.069
428.515
420.898
413.231
405.527
397.799
390.059
382.319
374.592
366.887
359.215
351.586
344.009
336.493
329.047
321.679
314.397
307.211
300.129
293.159
286.311
279.596
273.025
266.609
260.362
254.298
248.427
242.77
237.275
231.845
8.54263
4.00041
3.06248
2.75587
2.65916
2.6583
2.7165
2.81581
2.94728
3.10626
3.29041
3.49893
3.73095
3.98649
4.26609
4.57062
4.90106
5.25793
5.64261
6.05905
6.51075
7.00137
7.53492
8.11591
8.74962
9.4428
10.2004
11.0289
11.9359
12.9293
14.0178
15.2109
16.5181
17.9491
19.5143
21.2245
23.0912
25.1258
27.3398
29.7445
32.3512
35.1706
38.213
41.4882
45.0055
48.7733
52.7986
57.0874
61.6452
66.4782
71.592
76.9935
82.6884
88.6694
94.9322
101.472
108.285
115.365
122.707
130.304
138.148
146.232
154.548
163.086
171.837
180.79
189.936
199.264
208.762
218.418
228.221
238.159
248.219
258.389
268.655
279.005
289.424
299.899
310.416
320.961
331.521
342.079
352.623
363.137
373.605
384.014
394.348
404.592
414.729
424.745
434.625
444.353
453.913
463.29
472.47
481.436
490.174
498.67
506.91
514.878
522.563
529.951
537.03
543.788
550.213
556.297
562.028
567.396
572.394
577.012
581.244
585.085
588.528
591.567
594.202
596.427
598.237
599.64
600.622
601.199
601.351
601.121
600.474
599.416
597.962
596.115
593.884
591.275
588.298
584.963
581.277
577.25
572.891
568.214
563.23
557.952
552.393
546.566
540.484
534.163
527.617
520.86
513.907
506.773
499.473
492.023
484.436
476.727
468.912
461.003
453.016
444.963
436.858
428.715
420.545
412.363
404.18
396.008
387.858
379.741
371.668
363.647
355.688
347.798
339.987
332.262
324.632
317.105
309.689
302.393
295.226
288.197
281.319
274.603
268.06
261.704
255.544
249.602
243.824
238.156
8.42597
3.94871
3.01811
2.71251
2.6159
2.61601
2.67751
2.78257
2.92238
3.09242
3.29013
3.51297
3.76252
4.04005
4.34722
4.68618
5.0597
5.47159
5.92609
6.42744
6.98113
7.59351
8.27184
9.02418
9.85961
10.7882
11.82
12.9663
14.2395
15.6528
17.2198
18.9548
20.8724
22.9873
25.3145
27.8687
30.6637
33.7127
37.0282
40.6221
44.5048
48.6841
53.1662
57.9565
63.0598
68.4783
74.2107
80.2548
86.6102
93.2752
100.245
107.529
115.09
122.916
130.995
139.315
147.865
156.632
165.602
174.764
184.104
193.612
203.274
213.078
223.014
233.069
243.231
253.49
263.834
274.252
284.733
295.266
305.84
316.444
327.067
337.698
348.326
358.939
369.526
380.077
390.578
401.02
411.389
421.674
431.863
441.943
451.902
461.727
471.406
480.924
490.269
499.43