/*--------------------------------*- C++ -*----------------------------------*\
| =========                 |                                                 |
| \\      /  F ield         | OpenFOAM: The Open Source CFD Toolbox           |
|  \\    /   O peration     | Version:  5.0                                   |
|   \\  /    A nd           | Web:      www.OpenFOAM.org                      |
|    \\/     M anipulation  |                                                 |
\*---------------------------------------------------------------------------*/
FoamFile
{
    version     2.0;
    format      ascii;
    class       surfaceScalarField;
    location    "0";
    object      phi;
}
// * * * * * * * * * * * * * * * * * * * * * * * * * * * * * * * * * * * * * //

dimensions      [0 3 -1 0 0 0 0];

internalField   nonuniform List<scalar> 
24170
(
3.12901e-06
5.93997e-08
3.04663e-06
8.23767e-08
2.97354e-06
7.30878e-08
2.90492e-06
6.8626e-08
2.8406e-06
6.43183e-08
2.78329e-06
5.73079e-08
2.73398e-06
4.93053e-08
2.69206e-06
4.19286e-08
2.65641e-06
3.5643e-08
2.62601e-06
3.04061e-08
2.59986e-06
2.61442e-08
2.57714e-06
2.27186e-08
2.5572e-06
1.99439e-08
2.53946e-06
1.77357e-08
2.52361e-06
1.58516e-08
2.50877e-06
1.48454e-08
2.49529e-06
1.34795e-08
1.73346e-08
2.47795e-06
3.45306e-06
2.35843e-08
3.45701e-06
7.8434e-08
3.45055e-06
7.95462e-08
3.4391e-06
8.00785e-08
3.42432e-06
7.90906e-08
3.40708e-06
7.45517e-08
3.38787e-06
6.85128e-08
3.36736e-06
6.24401e-08
3.34623e-06
5.67716e-08
3.32507e-06
5.15649e-08
3.30437e-06
4.68465e-08
3.2844e-06
4.26876e-08
3.26537e-06
3.89802e-08
3.24731e-06
3.57963e-08
3.23031e-06
3.28435e-08
3.21427e-06
3.08888e-08
3.19954e-06
2.82127e-08
2.90737e-08
3.1878e-06
3.66816e-06
1.79406e-08
3.6792e-06
6.73909e-08
3.68543e-06
7.33154e-08
3.68947e-06
7.60394e-08
3.69108e-06
7.7486e-08
3.69012e-06
7.55092e-08
3.687e-06
7.16381e-08
3.68217e-06
6.72663e-08
3.67604e-06
6.29044e-08
3.66892e-06
5.86795e-08
3.6611e-06
5.46632e-08
3.65284e-06
5.09549e-08
3.6443e-06
4.75141e-08
3.63567e-06
4.44267e-08
3.627e-06
4.15136e-08
3.61865e-06
3.92392e-08
3.61017e-06
3.66921e-08
3.55535e-08
3.60369e-06
3.92585e-06
1.74793e-08
3.93592e-06
5.7318e-08
3.94258e-06
6.66601e-08
3.94812e-06
7.0493e-08
3.95255e-06
7.30639e-08
3.9555e-06
7.25512e-08
3.95719e-06
6.99563e-08
3.95784e-06
6.66172e-08
3.95764e-06
6.30986e-08
3.95675e-06
5.95686e-08
3.9553e-06
5.61126e-08
3.95342e-06
5.28394e-08
3.95119e-06
4.97427e-08
3.94872e-06
4.68928e-08
3.94604e-06
4.41918e-08
3.94341e-06
4.18727e-08
3.94058e-06
3.95195e-08
3.7591e-08
3.93855e-06
4.2082e-06
1.6406e-08
4.21599e-06
4.95304e-08
4.22169e-06
6.09578e-08
4.2268e-06
6.53816e-08
4.23156e-06
6.83075e-08
4.23554e-06
6.85692e-08
4.23872e-06
6.67754e-08
4.24121e-06
6.41245e-08
4.24312e-06
6.11878e-08
4.24454e-06
5.81507e-08
4.24555e-06
5.51072e-08
4.24622e-06
5.21628e-08
4.24663e-06
4.93377e-08
4.24684e-06
4.66839e-08
4.24688e-06
4.41542e-08
4.2469e-06
4.18524e-08
4.24684e-06
3.958e-08
3.74e-08
4.24703e-06
4.51071e-06
1.47822e-08
4.51689e-06
4.33545e-08
4.52214e-06
5.57045e-08
4.52696e-06
6.05581e-08
4.53168e-06
6.35863e-08
4.53594e-06
6.43095e-08
4.53963e-06
6.30884e-08
4.54281e-06
6.09471e-08
4.54555e-06
5.84457e-08
4.54792e-06
5.57815e-08
4.54997e-06
5.30587e-08
4.55176e-06
5.03751e-08
4.55332e-06
4.77692e-08
4.55473e-06
4.52782e-08
4.556e-06
4.2884e-08
4.55723e-06
4.06225e-08
4.55842e-06
3.83925e-08
3.61512e-08
4.55967e-06
4.83433e-06
1.3171e-08
4.83963e-06
3.8054e-08
4.84476e-06
5.0575e-08
4.84947e-06
5.58476e-08
4.85411e-06
5.89443e-08
4.85844e-06
5.99808e-08
4.86233e-06
5.92025e-08
4.86581e-06
5.74657e-08
4.86894e-06
5.53111e-08
4.87178e-06
5.29474e-08
4.87435e-06
5.04867e-08
4.8767e-06
4.80208e-08
4.87888e-06
4.55986e-08
4.8809e-06
4.3249e-08
4.88282e-06
4.09685e-08
4.88468e-06
3.87622e-08
4.8865e-06
3.65742e-08
3.43492e-08
4.8883e-06
5.18105e-06
1.17035e-08
5.18576e-06
3.3345e-08
5.19076e-06
4.55681e-08
5.19542e-06
5.11893e-08
5.20002e-06
5.43496e-08
5.20439e-06
5.56104e-08
5.2084e-06
5.5193e-08
5.21206e-06
5.37992e-08
5.21544e-06
5.19398e-08
5.21855e-06
4.98342e-08
5.22143e-06
4.76001e-08
5.22413e-06
4.53255e-08
5.22666e-06
4.30645e-08
5.22907e-06
4.08436e-08
5.23137e-06
3.86663e-08
5.23361e-06
3.65276e-08
5.23579e-06
3.43942e-08
3.22262e-08
5.23791e-06
5.55269e-06
1.03471e-08
5.55689e-06
2.91459e-08
5.5617e-06
4.07564e-08
5.56632e-06
4.65741e-08
5.57089e-06
4.97764e-08
5.57531e-06
5.11946e-08
5.57943e-06
5.10753e-08
5.58324e-06
4.99837e-08
5.58679e-06
4.83881e-08
5.59011e-06
4.65153e-08
5.59323e-06
4.44866e-08
5.59616e-06
4.23885e-08
5.59895e-06
4.02769e-08
5.60161e-06
3.81794e-08
5.60418e-06
3.61038e-08
5.60666e-06
3.40454e-08
5.60907e-06
3.1984e-08
2.98999e-08
5.6114e-06
5.95104e-06
9.083e-09
5.95479e-06
2.53961e-08
5.95937e-06
3.61792e-08
5.96393e-06
4.20126e-08
5.96848e-06
4.52212e-08
5.97294e-06
4.67401e-08
5.97715e-06
4.68603e-08
5.9811e-06
4.60345e-08
5.98481e-06
4.46785e-08
5.98831e-06
4.30208e-08
5.99161e-06
4.11849e-08
5.99474e-06
3.92554e-08
5.99773e-06
3.7289e-08
6.00059e-06
3.53157e-08
6.00335e-06
3.3347e-08
6.00601e-06
3.13827e-08
6.00858e-06
2.9412e-08
2.74324e-08
6.01105e-06
6.37798e-06
7.91094e-09
6.38135e-06
2.20305e-08
6.38568e-06
3.18468e-08
6.39017e-06
3.75214e-08
6.3947e-06
4.06897e-08
6.39919e-06
4.22591e-08
6.40349e-06
4.25606e-08
6.40756e-06
4.19624e-08
6.41141e-06
4.08236e-08
6.41507e-06
3.93661e-08
6.41854e-06
3.77138e-08
6.42184e-06
3.59491e-08
6.42501e-06
3.41284e-08
6.42804e-06
3.22841e-08
6.43095e-06
3.04317e-08
6.43376e-06
2.85761e-08
6.43646e-06
2.67144e-08
2.48563e-08
6.43903e-06
5.74176e-06
6.98401e-09
5.74435e-06
1.94457e-08
5.74782e-06
2.83744e-08
5.75155e-06
3.37892e-08
5.75536e-06
3.68817e-08
5.75916e-06
3.84605e-08
5.76285e-06
3.88709e-08
5.76638e-06
3.84334e-08
5.76974e-06
3.74607e-08
5.77294e-06
3.61618e-08
5.776e-06
3.46586e-08
5.77892e-06
3.30316e-08
5.78171e-06
3.13362e-08
5.78439e-06
2.96066e-08
5.78696e-06
2.7861e-08
5.78942e-06
2.6109e-08
5.79179e-06
2.43521e-08
2.26091e-08
5.79403e-06
6.99914e-06
5.9996e-09
7.00188e-06
1.67104e-08
7.00564e-06
2.46068e-08
7.00981e-06
2.96177e-08
7.01414e-06
3.25559e-08
7.0185e-06
3.40998e-08
7.02278e-06
3.45902e-08
7.02691e-06
3.43013e-08
7.03088e-06
3.34967e-08
7.03467e-06
3.23664e-08
7.0383e-06
3.10275e-08
7.04178e-06
2.95569e-08
7.04511e-06
2.80084e-08
7.0483e-06
2.64171e-08
7.05135e-06
2.48044e-08
7.05428e-06
2.31834e-08
7.05707e-06
2.15603e-08
1.99597e-08
7.05972e-06
8.53188e-06
4.9654e-09
8.53474e-06
1.38522e-08
8.53877e-06
2.05718e-08
8.54338e-06
2.50145e-08
8.54824e-06
2.76943e-08
8.5532e-06
2.91404e-08
8.55812e-06
2.96651e-08
8.56293e-06
2.94993e-08
8.56757e-06
2.8856e-08
8.57203e-06
2.78997e-08
8.57632e-06
2.67385e-08
8.58044e-06
2.54441e-08
8.58438e-06
2.4067e-08
8.58815e-06
2.26423e-08
8.59176e-06
2.11931e-08
8.59521e-06
1.97358e-08
8.59849e-06
1.82797e-08
1.68524e-08
8.6016e-06
1.04003e-05
3.8907e-09
1.04033e-05
1.08907e-08
1.04075e-05
1.62918e-08
1.04126e-05
1.99888e-08
1.0418e-05
2.22815e-08
1.04236e-05
2.35463e-08
1.04292e-05
2.40434e-08
1.04347e-05
2.39599e-08
1.04401e-05
2.34602e-08
1.04453e-05
2.26773e-08
1.04504e-05
2.17047e-08
1.04552e-05
2.06062e-08
1.04599e-05
1.94272e-08
1.04643e-05
1.82006e-08
1.04685e-05
1.695e-08
1.04726e-05
1.56929e-08
1.04764e-05
1.44401e-08
1.322e-08
1.04801e-05
1.26779e-05
2.7805e-09
1.2681e-05
7.82081e-09
1.26855e-05
1.17657e-08
1.26909e-05
1.45359e-08
1.26969e-05
1.62914e-08
1.27032e-05
1.72706e-08
1.27096e-05
1.76632e-08
1.27159e-05
1.76083e-08
1.27222e-05
1.72236e-08
1.27283e-05
1.66067e-08
1.27341e-05
1.58307e-08
1.27398e-05
1.49473e-08
1.27452e-05
1.39943e-08
1.27504e-05
1.3e-08
1.27554e-05
1.19856e-08
1.27601e-05
1.09677e-08
1.27646e-05
9.95675e-09
8.9792e-09
1.27688e-05
1.54543e-05
1.62433e-09
1.54576e-05
4.59701e-09
1.54624e-05
6.93711e-09
1.54683e-05
8.59743e-09
1.5475e-05
9.65191e-09
1.5482e-05
1.0225e-08
1.54892e-05
1.04262e-08
1.54965e-05
1.03392e-08
1.55037e-05
1.00348e-08
1.55107e-05
9.57285e-09
1.55176e-05
9.0003e-09
1.55242e-05
8.35216e-09
1.55305e-05
7.65486e-09
1.55366e-05
6.92893e-09
1.55424e-05
6.19044e-09
1.55479e-05
5.45259e-09
1.55531e-05
4.72359e-09
4.02587e-09
1.55581e-05
1.88389e-05
3.82352e-10
1.88424e-05
1.09546e-09
1.88477e-05
1.63316e-09
1.88543e-05
1.98367e-09
1.88618e-05
2.16699e-09
1.88698e-05
2.21028e-09
1.88781e-05
2.13541e-09
1.88865e-05
1.96217e-09
1.88948e-05
1.71083e-09
1.8903e-05
1.39993e-09
1.89109e-05
1.04503e-09
1.89186e-05
6.59121e-10
1.8926e-05
2.5336e-10
1.89331e-05
-1.62662e-10
1.89399e-05
-5.80776e-10
1.89463e-05
-9.93566e-10
1.89524e-05
-1.39675e-09
-1.77349e-09
1.89582e-05
2.29648e-05
-1.04622e-09
2.29688e-05
-2.97238e-09
2.2975e-05
-4.56478e-09
2.29828e-05
-5.78058e-09
2.29916e-05
-6.64018e-09
2.3001e-05
-7.23038e-09
2.30108e-05
-7.6385e-09
2.30207e-05
-7.91917e-09
2.30305e-05
-8.10894e-09
2.30402e-05
-8.23894e-09
2.30495e-05
-8.33274e-09
2.30586e-05
-8.40467e-09
2.30673e-05
-8.46251e-09
2.30757e-05
-8.51048e-09
2.30836e-05
-8.55056e-09
2.30912e-05
-8.58283e-09
2.30984e-05
-8.60798e-09
-8.61588e-09
2.31053e-05
1.68118e-05
-2.16726e-09
1.6815e-05
-6.13927e-09
1.68198e-05
-9.38874e-09
1.68258e-05
-1.17698e-08
1.68325e-05
-1.33414e-08
1.68396e-05
-1.4332e-08
1.68469e-05
-1.49292e-08
1.68542e-05
-1.52366e-08
1.68614e-05
-1.53333e-08
1.68685e-05
-1.52911e-08
1.68753e-05
-1.51628e-08
1.68819e-05
-1.49811e-08
1.68882e-05
-1.47667e-08
1.68942e-05
-1.45334e-08
1.69e-05
-1.429e-08
1.69054e-05
-1.40409e-08
1.69106e-05
-1.37897e-08
-1.35303e-08
1.69155e-05
1.46356e-05
-3.24379e-09
1.46387e-05
-9.22193e-09
1.46434e-05
-1.40976e-08
1.46492e-05
-1.75058e-08
1.46555e-05
-1.96186e-08
1.4662e-05
-2.0886e-08
1.46687e-05
-2.15784e-08
1.46752e-05
-2.18318e-08
1.46817e-05
-2.17771e-08
1.46879e-05
-2.1531e-08
1.46939e-05
-2.11688e-08
1.46997e-05
-2.07352e-08
1.47052e-05
-2.02605e-08
1.47104e-05
-1.97656e-08
1.47154e-05
-1.9264e-08
1.47201e-05
-1.87632e-08
1.47246e-05
-1.82681e-08
-1.7775e-08
1.47288e-05
1.27411e-05
-4.25167e-09
1.27443e-05
-1.23451e-08
1.27491e-05
-1.89236e-08
1.27547e-05
-2.31454e-08
1.27607e-05
-2.55907e-08
1.27668e-05
-2.7034e-08
1.2773e-05
-2.77385e-08
1.2779e-05
-2.78535e-08
1.27848e-05
-2.75861e-08
1.27904e-05
-2.71015e-08
1.27957e-05
-2.64894e-08
1.28008e-05
-2.58012e-08
1.28056e-05
-2.50738e-08
1.28102e-05
-2.43332e-08
1.28145e-05
-2.35946e-08
1.28186e-05
-2.28664e-08
1.28225e-05
-2.21536e-08
-2.14536e-08
1.28262e-05
1.10918e-05
-5.0922e-09
1.1095e-05
-1.55631e-08
1.11001e-05
-2.40463e-08
1.11057e-05
-2.87649e-08
1.11115e-05
-3.13185e-08
1.11173e-05
-3.28382e-08
1.1123e-05
-3.34554e-08
1.11285e-05
-3.33524e-08
1.11337e-05
-3.28315e-08
1.11387e-05
-3.20899e-08
1.11434e-05
-3.12194e-08
1.11479e-05
-3.02766e-08
1.11521e-05
-2.93046e-08
1.11561e-05
-2.8332e-08
1.11599e-05
-2.73742e-08
1.11635e-05
-2.64391e-08
1.11669e-05
-2.55309e-08
-2.46475e-08
1.11701e-05
9.65581e-06
-5.68948e-09
9.65924e-06
-1.89897e-08
9.66458e-06
-2.93899e-08
9.67007e-06
-3.42574e-08
9.67563e-06
-3.68691e-08
9.68117e-06
-3.83879e-08
9.6865e-06
-3.87771e-08
9.69151e-06
-3.8368e-08
9.69624e-06
-3.7563e-08
9.70071e-06
-3.65562e-08
9.70492e-06
-3.54265e-08
9.70887e-06
-3.42334e-08
9.71259e-06
-3.30244e-08
9.71609e-06
-3.18291e-08
9.71938e-06
-3.06625e-08
9.72247e-06
-2.95318e-08
9.72538e-06
-2.84392e-08
-2.73811e-08
9.72811e-06
8.40529e-06
-5.63142e-09
8.40963e-06
-2.3328e-08
8.41487e-06
-3.46246e-08
8.41989e-06
-3.92799e-08
8.42525e-06
-4.22272e-08
8.43065e-06
-4.37864e-08
8.43572e-06
-4.38521e-08
8.44042e-06
-4.30626e-08
8.44477e-06
-4.192e-08
8.44882e-06
-4.06004e-08
8.45256e-06
-3.91735e-08
8.45603e-06
-3.77017e-08
8.45924e-06
-3.62345e-08
8.46221e-06
-3.47997e-08
8.46496e-06
-3.34124e-08
8.46751e-06
-3.20789e-08
8.46987e-06
-3.08011e-08
-2.95757e-08
8.47207e-06
7.31449e-06
-2.84136e-09
7.32119e-06
-3.00223e-08
7.32674e-06
-4.01759e-08
7.33168e-06
-4.42233e-08
7.33707e-06
-4.76174e-08
7.34239e-06
-4.90988e-08
7.34725e-06
-4.87203e-08
7.35166e-06
-4.74653e-08
7.35562e-06
-4.58874e-08
7.35917e-06
-4.41447e-08
7.36231e-06
-4.23185e-08
7.36509e-06
-4.0481e-08
7.36754e-06
-3.8685e-08
7.3697e-06
-3.69546e-08
7.37159e-06
-3.53052e-08
7.37325e-06
-3.37393e-08
7.37471e-06
-3.22573e-08
-3.08503e-08
7.37598e-06
6.36243e-06
4.79274e-09
6.3719e-06
-3.94865e-08
6.37932e-06
-4.75984e-08
6.38595e-06
-5.08557e-08
6.39223e-06
-5.38932e-08
6.39753e-06
-5.44048e-08
6.40182e-06
-5.30066e-08
6.40529e-06
-5.09371e-08
6.40808e-06
-4.86783e-08
6.41026e-06
-4.63198e-08
6.41188e-06
-4.3941e-08
6.41302e-06
-4.16182e-08
6.41373e-06
-3.9402e-08
6.41409e-06
-3.73108e-08
6.41414e-06
-3.53585e-08
6.41394e-06
-3.35408e-08
6.41355e-06
-3.18591e-08
-3.02933e-08
6.41299e-06
5.54131e-06
8.94899e-09
5.55032e-06
-4.85025e-08
5.55833e-06
-5.56079e-08
5.56604e-06
-5.85585e-08
5.57249e-06
-6.0349e-08
5.57681e-06
-5.87244e-08
5.57905e-06
-5.52413e-08
5.5796e-06
-5.14893e-08
5.57884e-06
-4.79176e-08
5.57704e-06
-4.45265e-08
5.57444e-06
-4.13391e-08
5.57122e-06
-3.83963e-08
5.56753e-06
-3.57064e-08
5.56348e-06
-3.3261e-08
5.55917e-06
-3.10573e-08
5.55471e-06
-2.90784e-08
5.55018e-06
-2.73257e-08
-2.57506e-08
5.54564e-06
4.86021e-06
-2.36577e-08
4.86538e-06
-5.36682e-08
4.86523e-06
-5.54561e-08
4.86216e-06
-5.5494e-08
4.85699e-06
-5.51728e-08
4.84948e-06
-5.12176e-08
4.83978e-06
-4.55436e-08
4.82838e-06
-4.00908e-08
4.8158e-06
-3.53339e-08
4.80252e-06
-3.12412e-08
4.78891e-06
-2.77336e-08
4.77526e-06
-2.47509e-08
4.76177e-06
-2.22148e-08
4.74857e-06
-2.00542e-08
4.73573e-06
-1.82233e-08
4.72334e-06
-1.66888e-08
4.71151e-06
-1.54884e-08
-1.51415e-08
4.7009e-06
4.17902e-06
4.12535e-06
4.06989e-06
4.0144e-06
3.95923e-06
3.90801e-06
3.86247e-06
3.82238e-06
3.78704e-06
3.7558e-06
3.72807e-06
3.70332e-06
3.6811e-06
3.66105e-06
3.64282e-06
3.62613e-06
3.61065e-06
3.5955e-06
1.06928e-08
-1.06943e-08
2.36887e-08
-1.29983e-08
3.33488e-08
-9.66181e-09
3.80728e-08
-4.72591e-09
3.76584e-08
4.12898e-10
3.26436e-08
5.01306e-09
2.39308e-08
8.71162e-09
1.24243e-08
1.15048e-08
-1.13357e-09
1.35569e-08
-1.62669e-08
1.51318e-08
-3.26941e-08
1.64265e-08
-5.02348e-08
1.75395e-08
-6.87919e-08
1.85566e-08
-8.83135e-08
1.95205e-08
-1.08763e-07
2.04496e-08
-1.30115e-07
2.13504e-08
-1.5234e-07
2.22255e-08
-1.75417e-07
2.30765e-08
-1.99323e-07
2.39058e-08
-2.24041e-07
2.47165e-08
-2.49552e-07
2.55118e-08
-2.75848e-07
2.62946e-08
-3.02916e-07
2.70678e-08
-3.30753e-07
2.78359e-08
-3.59364e-07
2.86107e-08
-3.88785e-07
2.94211e-08
-4.18952e-07
3.01664e-08
-4.49646e-07
3.06925e-08
-4.80904e-07
3.12577e-08
-5.12652e-07
3.1748e-08
-5.44415e-07
3.17624e-08
-5.76408e-07
3.1992e-08
-6.09834e-07
3.34259e-08
-6.44961e-07
3.51262e-08
-6.81597e-07
3.6636e-08
-7.19732e-07
3.81348e-08
-7.59086e-07
3.93536e-08
-7.99999e-07
4.09127e-08
-8.43775e-07
4.37754e-08
-8.88571e-07
4.4796e-08
-9.32848e-07
4.42771e-08
-9.82148e-07
4.9299e-08
-1.02622e-06
4.40728e-08
-1.06046e-06
3.42393e-08
-1.09948e-06
3.90173e-08
-1.14114e-06
4.16569e-08
-1.18418e-06
4.30429e-08
-1.22782e-06
4.36414e-08
-1.27168e-06
4.38624e-08
-1.31556e-06
4.38818e-08
-1.35936e-06
4.37907e-08
-1.40299e-06
4.36304e-08
-1.44641e-06
4.34256e-08
-1.4896e-06
4.31889e-08
-1.53253e-06
4.2928e-08
-1.57518e-06
4.26462e-08
-1.61752e-06
4.23455e-08
-1.65955e-06
4.20258e-08
-1.70124e-06
4.16868e-08
-1.74256e-06
4.13269e-08
-1.78351e-06
4.09447e-08
-1.82405e-06
4.05382e-08
-1.86415e-06
4.01054e-08
-1.9038e-06
3.96443e-08
-1.94295e-06
3.91531e-08
-1.98158e-06
3.86297e-08
-2.01965e-06
3.80724e-08
-2.05713e-06
3.74795e-08
-2.09398e-06
3.68497e-08
-2.13017e-06
3.61814e-08
-2.16564e-06
3.54737e-08
-2.20037e-06
3.47255e-08
-2.2343e-06
3.3936e-08
-2.26741e-06
3.31045e-08
-2.29964e-06
3.22306e-08
-2.33095e-06
3.13139e-08
-2.36131e-06
3.03543e-08
-2.39066e-06
2.93518e-08
-2.41897e-06
2.83066e-08
-2.44619e-06
2.72188e-08
-2.47227e-06
2.60889e-08
-2.49719e-06
2.49171e-08
-2.5209e-06
2.3704e-08
-2.54335e-06
2.245e-08
-2.5645e-06
2.11556e-08
-2.58432e-06
1.9821e-08
-2.60277e-06
1.84465e-08
-2.6198e-06
1.70317e-08
-2.63538e-06
1.55756e-08
-2.64945e-06
1.40758e-08
-2.66198e-06
1.25286e-08
-2.67291e-06
1.09287e-08
-2.68218e-06
9.26979e-09
-2.68973e-06
7.54359e-09
-2.69546e-06
5.73694e-09
-2.6993e-06
3.83251e-09
-2.70113e-06
1.83206e-09
-2.70096e-06
-1.7381e-10
-2.69897e-06
-1.98577e-09
-2.69536e-06
-3.61169e-09
-2.69016e-06
-5.19803e-09
-2.68339e-06
-6.77262e-09
-2.67504e-06
-8.34827e-09
-2.66512e-06
-9.92679e-09
-2.65361e-06
-1.15076e-08
-2.64052e-06
-1.30894e-08
-2.62585e-06
-1.46702e-08
-2.60961e-06
-1.62481e-08
-2.59179e-06
-1.78212e-08
-2.5724e-06
-1.93876e-08
-2.55146e-06
-2.09452e-08
-2.52896e-06
-2.24922e-08
-2.50494e-06
-2.40267e-08
-2.47939e-06
-2.55468e-08
-2.45234e-06
-2.70506e-08
-2.4238e-06
-2.85364e-08
-2.3938e-06
-3.00024e-08
-2.36235e-06
-3.14469e-08
-2.32949e-06
-3.28679e-08
-2.29522e-06
-3.4264e-08
-2.25959e-06
-3.56335e-08
-2.22261e-06
-3.69748e-08
-2.18433e-06
-3.82861e-08
-2.14476e-06
-3.95659e-08
-2.10395e-06
-4.08126e-08
-2.06193e-06
-4.20255e-08
-2.01872e-06
-4.32038e-08
-1.97437e-06
-4.43478e-08
-1.92892e-06
-4.5456e-08
-1.88239e-06
-4.65276e-08
-1.83483e-06
-4.75632e-08
-1.78627e-06
-4.8558e-08
-1.73676e-06
-4.95072e-08
-1.68634e-06
-5.0416e-08
-1.63506e-06
-5.1287e-08
-1.58294e-06
-5.21154e-08
-1.53004e-06
-5.2899e-08
-1.4764e-06
-5.36381e-08
-1.42206e-06
-5.43331e-08
-1.36708e-06
-5.49838e-08
-1.31149e-06
-5.55901e-08
-1.25533e-06
-5.61522e-08
-1.19866e-06
-5.667e-08
-1.14152e-06
-5.71437e-08
-1.08394e-06
-5.75736e-08
-1.02598e-06
-5.79601e-08
-9.6768e-07
-5.83035e-08
-9.09075e-07
-5.86046e-08
-8.5021e-07
-5.88641e-08
-7.91126e-07
-5.9083e-08
-7.31864e-07
-5.92624e-08
-6.7246e-07
-5.94038e-08
-6.12951e-07
-5.95085e-08
-5.53372e-07
-5.95783e-08
-4.93757e-07
-5.9615e-08
-4.34137e-07
-5.962e-08
-3.74542e-07
-5.95952e-08
-3.15001e-07
-5.95411e-08
-2.55542e-07
-5.94588e-08
-1.96191e-07
-5.93514e-08
-1.36971e-07
-5.92205e-08
-7.7907e-08
-5.90644e-08
-1.91064e-08
-5.8801e-08
3.94169e-08
-5.85236e-08
9.77135e-08
-5.82972e-08
1.55728e-07
-5.80147e-08
2.13439e-07
-5.77114e-08
2.70856e-07
-5.7418e-08
3.27984e-07
-5.71285e-08
3.84813e-07
-5.68292e-08
4.41314e-07
-5.65016e-08
4.97432e-07
-5.61183e-08
5.53067e-07
-5.56358e-08
6.08043e-07
-5.49767e-08
6.62039e-07
-5.39974e-08
7.14436e-07
-5.2397e-08
7.63919e-07
-4.94846e-08
8.07341e-07
-4.34231e-08
8.3668e-07
-2.93391e-08
1.60048e-08
8.20675e-07
9.00212e-09
-1.96976e-08
1.23399e-08
-1.63377e-08
1.10747e-08
-8.39752e-09
6.61675e-09
-2.68969e-10
-3.57461e-10
7.38636e-09
-9.62946e-09
1.42842e-08
-2.11641e-08
2.02456e-08
-3.48827e-08
2.52227e-08
-5.063e-08
2.93036e-08
-6.81642e-08
3.26653e-08
-8.72432e-08
3.55051e-08
-1.07696e-07
3.79914e-08
-1.29389e-07
4.02498e-08
-1.52232e-07
4.23632e-08
-1.76165e-07
4.43816e-08
-2.01149e-07
4.63342e-08
-2.27162e-07
4.82386e-08
-2.54193e-07
5.01069e-08
-2.82237e-07
5.19493e-08
-3.11296e-07
5.37752e-08
-3.41377e-07
5.55931e-08
-3.72494e-07
5.74106e-08
-4.04659e-07
5.92332e-08
-4.37889e-07
6.10649e-08
-4.72194e-07
6.29154e-08
-5.07563e-07
6.47898e-08
-5.44044e-07
6.6647e-08
-5.81791e-07
6.84397e-08
-6.20744e-07
7.02102e-08
-6.60959e-07
7.19625e-08
-7.02841e-07
7.36445e-08
-7.46232e-07
7.53817e-08
-7.90152e-07
7.73459e-08
-8.34266e-07
7.92396e-08
-8.78662e-07
8.10327e-08
-9.23547e-07
8.30191e-08
-9.6906e-07
8.48664e-08
-1.01463e-06
8.64811e-08
-1.05886e-06
8.80025e-08
-1.10296e-06
8.89011e-08
-1.14805e-06
8.93636e-08
-1.18873e-06
8.99798e-08
-1.23233e-06
8.76754e-08
-1.28228e-06
8.41865e-08
-1.32695e-06
8.36853e-08
-1.36905e-06
8.37541e-08
-1.4098e-06
8.37991e-08
-1.44983e-06
8.36702e-08
-1.48935e-06
8.33798e-08
-1.52844e-06
8.2973e-08
-1.56713e-06
8.24857e-08
-1.60545e-06
8.1941e-08
-1.64337e-06
8.13531e-08
-1.68091e-06
8.073e-08
-1.71806e-06
8.00755e-08
-1.75481e-06
7.93908e-08
-1.79114e-06
7.8675e-08
-1.82704e-06
7.79261e-08
-1.86249e-06
7.71414e-08
-1.89748e-06
7.63176e-08
-1.93199e-06
7.54512e-08
-1.96599e-06
7.45384e-08
-1.99946e-06
7.35757e-08
-2.03238e-06
7.25593e-08
-2.06471e-06
7.14861e-08
-2.09643e-06
7.03527e-08
-2.12752e-06
6.91563e-08
-2.15793e-06
6.78941e-08
-2.18765e-06
6.65638e-08
-2.21663e-06
6.51633e-08
-2.24485e-06
6.36908e-08
-2.27227e-06
6.21449e-08
-2.29885e-06
6.05243e-08
-2.32458e-06
5.8828e-08
-2.3494e-06
5.70557e-08
-2.3733e-06
5.52068e-08
-2.39622e-06
5.32813e-08
-2.41815e-06
5.12792e-08
-2.43905e-06
4.92012e-08
-2.45887e-06
4.70476e-08
-2.47761e-06
4.48193e-08
-2.49521e-06
4.25171e-08
-2.51164e-06
4.01422e-08
-2.52689e-06
3.76955e-08
-2.54091e-06
3.51782e-08
-2.55368e-06
3.25916e-08
-2.56517e-06
2.99369e-08
-2.57536e-06
2.72148e-08
-2.58421e-06
2.44263e-08
-2.5917e-06
2.15716e-08
-2.59783e-06
1.86514e-08
-2.60256e-06
1.56667e-08
-2.60592e-06
1.26201e-08
-2.60789e-06
9.51551e-09
-2.60851e-06
6.36016e-09
-2.60785e-06
3.17253e-09
-2.60601e-06
-6.18497e-12
-2.60306e-06
-3.12836e-09
-2.59883e-06
-6.212e-09
-2.59315e-06
-9.30169e-09
-2.58594e-06
-1.24017e-08
-2.5772e-06
-1.5511e-08
-2.56692e-06
-1.86308e-08
-2.55509e-06
-2.17591e-08
-2.54171e-06
-2.4893e-08
-2.52677e-06
-2.80288e-08
-2.51028e-06
-3.11629e-08
-2.49223e-06
-3.42914e-08
-2.47264e-06
-3.74103e-08
-2.45152e-06
-4.05157e-08
-2.42886e-06
-4.36038e-08
-2.40468e-06
-4.66708e-08
-2.37899e-06
-4.97129e-08
-2.35181e-06
-5.27265e-08
-2.32316e-06
-5.57078e-08
-2.29304e-06
-5.86534e-08
-2.26148e-06
-6.15597e-08
-2.22851e-06
-6.44232e-08
-2.19413e-06
-6.72406e-08
-2.15839e-06
-7.00086e-08
-2.1213e-06
-7.27239e-08
-2.08289e-06
-7.53834e-08
-2.04319e-06
-7.79837e-08
-2.00224e-06
-8.05218e-08
-1.96006e-06
-8.29946e-08
-1.91668e-06
-8.54e-08
-1.87215e-06
-8.77363e-08
-1.82649e-06
-9.0003e-08
-1.77975e-06
-9.21991e-08
-1.73195e-06
-9.43237e-08
-1.68314e-06
-9.63754e-08
-1.63335e-06
-9.83463e-08
-1.58263e-06
-1.0023e-07
-1.53101e-06
-1.02032e-07
-1.47854e-06
-1.03758e-07
-1.42526e-06
-1.05399e-07
-1.3712e-06
-1.06953e-07
-1.31642e-06
-1.08418e-07
-1.26096e-06
-1.09796e-07
-1.20486e-06
-1.11086e-07
-1.14816e-06
-1.12288e-07
-1.09091e-06
-1.13402e-07
-1.03315e-06
-1.14428e-07
-9.74927e-07
-1.15366e-07
-9.16283e-07
-1.16217e-07
-8.5726e-07
-1.16982e-07
-7.97902e-07
-1.17662e-07
-7.38249e-07
-1.18257e-07
-6.78343e-07
-1.1877e-07
-6.18224e-07
-1.19202e-07
-5.57931e-07
-1.19555e-07
-4.97501e-07
-1.19834e-07
-4.3697e-07
-1.20039e-07
-3.76373e-07
-1.20176e-07
-3.15741e-07
-1.20247e-07
-2.55106e-07
-1.20255e-07
-1.94496e-07
-1.20205e-07
-1.33939e-07
-1.20098e-07
-7.34614e-08
-1.19937e-07
-1.30905e-08
-1.19722e-07
4.71531e-08
-1.19464e-07
1.0725e-07
-1.19162e-07
1.67228e-07
-1.18779e-07
2.2703e-07
-1.18326e-07
2.86551e-07
-1.17818e-07
3.45802e-07
-1.17266e-07
4.04795e-07
-1.16704e-07
4.63524e-07
-1.16147e-07
5.21978e-07
-1.15583e-07
5.80139e-07
-1.1499e-07
6.3797e-07
-1.14333e-07
6.95411e-07
-1.1356e-07
7.52357e-07
-1.12583e-07
8.08632e-07
-1.11252e-07
8.63922e-07
-1.09288e-07
9.17677e-07
-1.06153e-07
9.68816e-07
-1.00624e-07
1.01564e-06
-9.02506e-08
1.05465e-06
-6.83472e-08
-1.58117e-08
1.08647e-06
6.4859e-10
-2.03471e-08
-4.81705e-09
-1.08731e-08
-1.29916e-08
-2.23578e-10
-2.28889e-08
9.62776e-09
-3.41563e-08
1.86533e-08
-4.67234e-08
2.68509e-08
-6.06576e-08
3.41794e-08
-7.60572e-08
4.06219e-08
-9.29801e-08
4.62262e-08
-1.11417e-07
5.11022e-08
-1.31306e-07
5.53932e-08
-1.52559e-07
5.92445e-08
-1.75091e-07
6.27808e-08
-1.98826e-07
6.60986e-08
-2.23712e-07
6.9267e-08
-2.49712e-07
7.23335e-08
-2.76804e-07
7.5331e-08
-3.04981e-07
7.82834e-08
-3.34241e-07
8.1209e-08
-3.64589e-07
8.41232e-08
-3.96035e-07
8.70387e-08
-4.2859e-07
8.99655e-08
-4.62267e-07
9.29099e-08
-4.97074e-07
9.58722e-08
-5.33001e-07
9.88416e-08
-5.70003e-07
1.01792e-07
-6.08035e-07
1.04678e-07
-6.47043e-07
1.07448e-07
-6.86892e-07
1.10059e-07
-7.27399e-07
1.12469e-07
-7.68395e-07
1.1464e-07
-8.09632e-07
1.16619e-07
-8.50706e-07
1.18419e-07
-8.91496e-07
1.2003e-07
-9.31955e-07
1.21491e-07
-9.71928e-07
1.22992e-07
-1.01141e-06
1.24348e-07
-1.0503e-06
1.25368e-07
-1.08833e-06
1.26033e-07
-1.12571e-06
1.26287e-07
-1.16244e-06
1.26089e-07
-1.19799e-06
1.25536e-07
-1.23448e-06
1.24164e-07
-1.27268e-06
1.22384e-07
-1.31014e-06
1.21142e-07
-1.34666e-06
1.20277e-07
-1.38243e-06
1.19568e-07
-1.41764e-06
1.18885e-07
-1.45244e-06
1.18175e-07
-1.48689e-06
1.17424e-07
-1.52104e-06
1.16632e-07
-1.5549e-06
1.158e-07
-1.58847e-06
1.14931e-07
-1.62177e-06
1.14026e-07
-1.65478e-06
1.13082e-07
-1.68748e-06
1.12098e-07
-1.71988e-06
1.11069e-07
-1.75195e-06
1.09992e-07
-1.78366e-06
1.08861e-07
-1.81502e-06
1.07671e-07
-1.84598e-06
1.06417e-07
-1.87654e-06
1.05094e-07
-1.90666e-06
1.03696e-07
-1.93632e-06
1.02219e-07
-1.96549e-06
1.00658e-07
-1.99415e-06
9.9008e-08
-2.02226e-06
9.72658e-08
-2.04979e-06
9.54275e-08
-2.07672e-06
9.34899e-08
-2.103e-06
9.145e-08
-2.12862e-06
8.93055e-08
-2.15353e-06
8.70543e-08
-2.1777e-06
8.46948e-08
-2.2011e-06
8.22259e-08
-2.22369e-06
7.96465e-08
-2.24544e-06
7.69565e-08
-2.26631e-06
7.41556e-08
-2.28628e-06
7.12441e-08
-2.3053e-06
6.82227e-08
-2.32334e-06
6.50922e-08
-2.34038e-06
6.1854e-08
-2.35637e-06
5.85094e-08
-2.37129e-06
5.50602e-08
-2.3851e-06
5.15085e-08
-2.39778e-06
4.78564e-08
-2.4093e-06
4.41064e-08
-2.41962e-06
4.0261e-08
-2.42873e-06
3.63231e-08
-2.4366e-06
3.22959e-08
-2.44321e-06
2.81828e-08
-2.44855e-06
2.39881e-08
-2.4526e-06
1.97176e-08
-2.45536e-06
1.53788e-08
-2.45682e-06
1.09814e-08
-2.457e-06
6.53809e-09
-2.4559e-06
2.06686e-09
-2.45349e-06
-2.41035e-09
-2.44973e-06
-6.88537e-09
-2.44457e-06
-1.13805e-08
-2.43796e-06
-1.59137e-08
-2.42988e-06
-2.04794e-08
-2.42032e-06
-2.5071e-08
-2.40927e-06
-2.96834e-08
-2.39672e-06
-3.43109e-08
-2.38266e-06
-3.89478e-08
-2.3671e-06
-4.35885e-08
-2.35004e-06
-4.8227e-08
-2.33147e-06
-5.28575e-08
-2.31141e-06
-5.74741e-08
-2.28985e-06
-6.20709e-08
-2.26682e-06
-6.66425e-08
-2.2423e-06
-7.11829e-08
-2.21633e-06
-7.56867e-08
-2.18891e-06
-8.01485e-08
-2.16005e-06
-8.45627e-08
-2.12978e-06
-8.89243e-08
-2.09811e-06
-9.32278e-08
-2.06507e-06
-9.74683e-08
-2.03067e-06
-1.01641e-07
-1.99494e-06
-1.0574e-07
-1.9579e-06
-1.09762e-07
-1.91958e-06
-1.13702e-07
-1.88001e-06
-1.17554e-07
-1.83922e-06
-1.21315e-07
-1.79723e-06
-1.2498e-07
-1.75409e-06
-1.28544e-07
-1.70982e-06
-1.32007e-07
-1.66446e-06
-1.35365e-07
-1.61804e-06
-1.38618e-07
-1.57059e-06
-1.41765e-07
-1.52217e-06
-1.44803e-07
-1.47279e-06
-1.47723e-07
-1.4225e-06
-1.50517e-07
-1.37134e-06
-1.53191e-07
-1.31935e-06
-1.55747e-07
-1.26657e-06
-1.58179e-07
-1.21304e-06
-1.60482e-07
-1.15881e-06
-1.62655e-07
-1.1039e-06
-1.64698e-07
-1.04838e-06
-1.6661e-07
-9.92274e-07
-1.68392e-07
-9.35631e-07
-1.70044e-07
-8.78494e-07
-1.71565e-07
-8.20903e-07
-1.72956e-07
-7.62902e-07
-1.74218e-07
-7.04533e-07
-1.75351e-07
-6.45836e-07
-1.76358e-07
-5.86853e-07
-1.7724e-07
-5.27623e-07
-1.77999e-07
-4.68186e-07
-1.78639e-07
-4.0858e-07
-1.79162e-07
-3.4884e-07
-1.79573e-07
-2.89003e-07
-1.79876e-07
-2.29102e-07
-1.80077e-07
-1.69167e-07
-1.80181e-07
-1.0923e-07
-1.80192e-07
-4.9318e-08
-1.80117e-07
1.05439e-08
-1.7996e-07
7.03293e-08
-1.79722e-07
1.30016e-07
-1.79409e-07
1.89579e-07
-1.79028e-07
2.48999e-07
-1.78581e-07
3.08275e-07
-1.78056e-07
3.67395e-07
-1.77445e-07
4.26327e-07
-1.76751e-07
4.85057e-07
-1.75995e-07
5.43565e-07
-1.75213e-07
6.01833e-07
-1.74415e-07
6.59841e-07
-1.73591e-07
7.17562e-07
-1.72712e-07
7.74958e-07
-1.71729e-07
8.31966e-07
-1.70568e-07
8.88487e-07
-1.69103e-07
9.44355e-07
-1.6712e-07
9.99299e-07
-1.64232e-07
1.05287e-06
-1.59725e-07
1.10438e-06
-1.52136e-07
1.1529e-06
-1.38762e-07
1.19791e-06
-1.13359e-07
-6.20595e-08
1.24415e-06
-7.20527e-09
-1.31425e-08
-1.86197e-08
5.40525e-10
-3.14132e-08
1.25696e-08
-4.50502e-08
2.32643e-08
-5.94232e-08
3.30261e-08
-7.45665e-08
4.19939e-08
-9.05852e-08
5.01978e-08
-1.07608e-07
5.76447e-08
-1.25748e-07
6.43653e-08
-1.45074e-07
7.04279e-08
-1.65611e-07
7.59297e-08
-1.87346e-07
8.09796e-08
-2.10248e-07
8.56822e-08
-2.34277e-07
9.01275e-08
-2.59397e-07
9.4387e-08
-2.85579e-07
9.8515e-08
-3.12799e-07
1.02551e-07
-3.41041e-07
1.06525e-07
-3.70288e-07
1.10457e-07
-4.00526e-07
1.14361e-07
-4.31733e-07
1.18246e-07
-4.63881e-07
1.22112e-07
-4.96924e-07
1.25953e-07
-5.308e-07
1.29748e-07
-5.65422e-07
1.33463e-07
-6.00677e-07
1.37047e-07
-6.36437e-07
1.40438e-07
-6.72562e-07
1.43572e-07
-7.08893e-07
1.46391e-07
-7.45275e-07
1.48851e-07
-7.81578e-07
1.50942e-07
-8.1766e-07
1.52701e-07
-8.53421e-07
1.5418e-07
-8.88825e-07
1.55434e-07
-9.23847e-07
1.56513e-07
-9.58321e-07
1.57466e-07
-9.92193e-07
1.5822e-07
-1.02552e-06
1.58694e-07
-1.05834e-06
1.5885e-07
-1.09071e-06
1.58663e-07
-1.12276e-06
1.58131e-07
-1.15451e-06
1.57289e-07
-1.18647e-06
1.56122e-07
-1.21887e-06
1.54786e-07
-1.25127e-06
1.53537e-07
-1.28341e-06
1.52424e-07
-1.31525e-06
1.51408e-07
-1.3468e-06
1.50435e-07
-1.3781e-06
1.4947e-07
-1.40916e-06
1.48492e-07
-1.44002e-06
1.4749e-07
-1.47068e-06
1.46457e-07
-1.50114e-06
1.45387e-07
-1.53139e-06
1.44275e-07
-1.56142e-06
1.43115e-07
-1.59122e-06
1.41902e-07
-1.62078e-06
1.40629e-07
-1.65008e-06
1.3929e-07
-1.6791e-06
1.37878e-07
-1.70781e-06
1.36386e-07
-1.73621e-06
1.34808e-07
-1.76425e-06
1.33136e-07
-1.79192e-06
1.31364e-07
-1.81918e-06
1.29486e-07
-1.84602e-06
1.27496e-07
-1.8724e-06
1.25389e-07
-1.8983e-06
1.23159e-07
-1.92367e-06
1.20802e-07
-1.94849e-06
1.18314e-07
-1.97274e-06
1.15691e-07
-1.99636e-06
1.12931e-07
-2.01934e-06
1.1003e-07
-2.04163e-06
1.06987e-07
-2.0632e-06
1.03801e-07
-2.08403e-06
1.0047e-07
-2.10407e-06
9.69944e-08
-2.12328e-06
9.33734e-08
-2.14165e-06
8.96076e-08
-2.15912e-06
8.56981e-08
-2.17568e-06
8.16461e-08
-2.19128e-06
7.74534e-08
-2.20589e-06
7.31222e-08
-2.21949e-06
6.86549e-08
-2.23203e-06
6.40546e-08
-2.2435e-06
5.93243e-08
-2.25386e-06
5.44681e-08
-2.26309e-06
4.94898e-08
-2.27116e-06
4.43941e-08
-2.27805e-06
3.91861e-08
-2.28374e-06
3.38715e-08
-2.28821e-06
2.8457e-08
-2.29144e-06
2.29505e-08
-2.29343e-06
1.73615e-08
-2.29414e-06
1.17007e-08
-2.29359e-06
5.97988e-09
-2.29173e-06
2.12093e-10
-2.28855e-06
-5.59201e-09
-2.284e-06
-1.14319e-08
-2.27807e-06
-1.73187e-08
-2.27072e-06
-2.32579e-08
-2.26196e-06
-2.92432e-08
-2.25177e-06
-3.52661e-08
-2.24013e-06
-4.13185e-08
-2.22705e-06
-4.73922e-08
-2.21252e-06
-5.34794e-08
-2.19654e-06
-5.9572e-08
-2.1791e-06
-6.56623e-08
-2.16022e-06
-7.17423e-08
-2.13989e-06
-7.78046e-08
-2.11812e-06
-8.38413e-08
-2.09491e-06