/*--------------------------------*- C++ -*----------------------------------*\
  =========                 |
  \\      /  F ield         | OpenFOAM: The Open Source CFD Toolbox
   \\    /   O peration     | Website:  https://openfoam.org
    \\  /    A nd           | Version:  6
     \\/     M anipulation  |
\*---------------------------------------------------------------------------*/
FoamFile
{
    version     2.0;
    format      ascii;
    class       volScalarField;
    location    "750";
    object      alphat;
}
// * * * * * * * * * * * * * * * * * * * * * * * * * * * * * * * * * * * * * //

dimensions      [1 -1 -1 0 0 0 0];

internalField   nonuniform List<scalar> 
16000
(
5.9661394e-06
2.470181e-05
2.7003766e-05
3.8384991e-05
3.3006634e-05
4.2484472e-05
4.187409e-05
4.7278413e-05
4.8787154e-05
4.8911601e-05
4.971696e-05
4.8133155e-05
4.8317576e-05
4.7053119e-05
4.707935e-05
4.6483871e-05
4.668164e-05
4.6717536e-05
4.7204362e-05
4.7737212e-05
4.8570062e-05
4.9549433e-05
5.0780427e-05
5.2218094e-05
5.3916183e-05
5.587905e-05
5.815011e-05
6.0761661e-05
6.3766163e-05
6.7221196e-05
7.1201652e-05
7.5797634e-05
8.1120872e-05
8.7307626e-05
9.4525754e-05
0.00010298124
0.0001129274
0.0001246757
0.00013860932
0.00015519934
0.00017502499
0.0001988004
0.00022740302
0.0002619093
0.00030363751
0.00035419697
0.00041554092
0.0004900255
0.00058046862
0.0006902038
0.00082312188
0.00098371376
0.0011771554
0.0012240695
0.0012253417
0.0012255732
0.001225053
0.0012241093
0.0012229577
0.0012216217
0.001219971
0.0012180341
0.0012157448
0.0012130191
0.0012097972
0.0012061225
0.0012021453
0.001198248
0.0011945961
0.0011914534
0.001188442
0.0011862118
0.0011835575
0.0011822811
0.0011796006
0.0011807358
0.0011771106
0.0011844637
0.0011741751
0.0011836071
4.9716475e-06
2.4439814e-05
2.47604e-05
3.5105843e-05
3.0489455e-05
3.83199e-05
3.857526e-05
4.2269191e-05
4.4537642e-05
4.3610278e-05
4.4861616e-05
4.2864508e-05
4.3232685e-05
4.1822781e-05
4.1928444e-05
4.1331e-05
4.1536895e-05
4.1549493e-05
4.199155e-05
4.2462065e-05
4.3206137e-05
4.4078488e-05
4.5175477e-05
4.6456121e-05
4.796772e-05
4.971439e-05
5.1733885e-05
5.4054975e-05
5.6723428e-05
5.978993e-05
6.3319966e-05
6.7392533e-05
7.2105506e-05
7.75781e-05
8.3957091e-05
9.1422463e-05
0.00010019527
0.00011054697
0.00012281111
0.00013739715
0.00015480724
0.00017565973
0.0002007133
0.00023089707
0.00026734752
0.00031145181
0.0003648946
0.0004297122
0.00050835068
0.00060372414
0.00071927241
0.00085901415
0.0010276337
0.0012228939
0.0012243887
0.001224758
0.0012242846
0.0012233305
0.0012221625
0.0012208555
0.0012193747
0.0012175942
0.0012154572
0.0012128725
0.0012097712
0.0012061629
0.0012021978
0.0011982444
0.001194574
0.0011913472
0.0011883848
0.0011859999
0.001183553
0.0011821509
0.0011796699
0.0011800651
0.0011770088
0.001183282
0.0011742119
0.0011833006
4.2494511e-06
2.4176604e-05
2.299802e-05
3.2306223e-05
2.8487864e-05
3.4769157e-05
3.6073859e-05
3.7846836e-05
4.0900799e-05
3.8767558e-05
4.0414254e-05
3.8001384e-05
3.852167e-05
3.7062747e-05
3.7241429e-05
3.6665912e-05
3.6878345e-05
3.6887094e-05
3.7294732e-05
3.7723166e-05
3.8397465e-05
3.918751e-05
4.0177635e-05
4.1333301e-05
4.2694875e-05
4.4267518e-05
4.6083956e-05
4.8170551e-05
5.0567695e-05
5.3320751e-05
5.6487821e-05
6.0139198e-05
6.4361843e-05
6.9261656e-05
7.4968875e-05
8.1643171e-05
8.9480411e-05
9.8720974e-05
0.00010965984
0.00012265855
0.0001381595
0.00015670682
0.00017896694
0.00020575463
0.00023806473
0.0002771104
0.0003243644
0.00038160742
0.0004509828
0.00053505348
0.00063686369
0.00076000035
0.00090867144
0.0010878256
0.0012234638
0.0012239853
0.0012235659
0.0012225968
0.0012213956
0.0012200643
0.001218588
0.0012169274
0.0012149765
0.0012125652
0.0012096147
0.001206107
0.0012021728
0.0011981875
0.0011944922
0.0011912196
0.0011882727
0.001185807
0.0011834699
0.0011819975
0.0011796967
0.0011796114
0.0011769675
0.001182256
0.0011741968
0.0011823937
3.7838071e-06
2.3824246e-05
2.1511965e-05
2.9685526e-05
2.6608564e-05
3.1523478e-05
3.3643921e-05
3.3887076e-05
3.7367275e-05
3.4443769e-05
3.6233523e-05
3.363893e-05
3.4225294e-05
3.2846657e-05
3.304322e-05
3.2525454e-05
3.2728506e-05
3.2749924e-05
3.3124745e-05
3.352399e-05
3.413903e-05
3.4862037e-05
3.5762214e-05
3.6813193e-05
3.8048299e-05
3.947428e-05
4.1119444e-05
4.3008401e-05
4.5177165e-05
4.7666836e-05
5.0529533e-05
5.3828587e-05
5.7642182e-05
6.2065596e-05
6.7215855e-05
7.3236459e-05
8.0303372e-05
8.8632366e-05
9.8488303e-05
0.00011019546
0.00012414961
0.00014083756
0.00016085498
0.00018492915
0.00021394694
0.00024898967
0.00029136977
0.00034267457
0.00040481782
0.0004800942
0.00057124191
0.00068150851
0.00081472641
0.0009754232
0.001168957
0.0012232378
0.0012228826
0.0012218966
0.0012206546
0.001219287
0.0012177841
0.0012161202
0.0012142476
0.0012120484
0.0012092866
0.0012059192
0.0012020454
0.0011980504
0.001194339
0.0011910431
0.0011881067
0.0011855964
0.0011833324
0.0011817167
0.0011796892
0.0011793412
0.0011769414
0.0011812184
0.0011742157
0.0011818488
3.3998565e-06
2.3343193e-05
2.0313746e-05
2.7256073e-05
2.4883278e-05
2.855877e-05
3.1356852e-05
3.030208e-05
3.3972022e-05
3.052064e-05
3.2302454e-05
2.9747226e-05
3.0318227e-05
2.9071321e-05
2.9257021e-05
2.8814667e-05
2.9002659e-05
2.9045407e-05
2.9391748e-05
2.9770597e-05
3.0336205e-05
3.1004121e-05
3.1828731e-05
3.2791615e-05
3.3919758e-05
3.5221487e-05
3.672143e-05
3.8442748e-05
4.0417893e-05
4.268447e-05
4.528968e-05
4.829112e-05
5.1759817e-05
5.5782319e-05
6.0464896e-05
6.5937927e-05
7.2361223e-05
7.9930641e-05
8.8886756e-05
9.9524253e-05
0.00011220159
0.00012736001
0.00014553928
0.00016739797
0.0001937383
0.00022553881
0.0002639872
0.00031052084
0.00036687527
0.00043513614
0.00051780121
0.00061784758
0.00073880956
0.00088487729
0.0010610376
0.0012225006
0.0012222256
0.0012212245
0.0012199363
0.0012185263
0.0012169881
0.0012153
0.0012134279
0.0012113073
0.0012087767
0.0012055935
0.0012018149
0.0011978328
0.0011941171
0.0011908162
0.0011878914
0.0011853641
0.0011831502
0.0011814457
0.0011796322
0.001179074
0.001176925
0.0011802962
0.0011742363
0.0011810825
3.0749346e-06
2.0312111e-05
1.9257282e-05
2.4961855e-05
2.3317933e-05
2.5819661e-05
2.9200106e-05
2.7040669e-05
3.0726197e-05
2.6997991e-05
2.8651034e-05
2.6297393e-05
2.6801024e-05
2.5713578e-05
2.5871487e-05
2.5511113e-05
2.5682009e-05
2.5749484e-05
2.6071889e-05
2.6436181e-05
2.6961076e-05
2.7583798e-05
2.8345576e-05
2.9234956e-05
3.0273686e-05
3.1471366e-05
3.284968e-05
3.4430568e-05
3.6243632e-05
3.8323611e-05
4.0713709e-05
4.3466838e-05
4.6648208e-05
5.0337285e-05
5.4631629e-05
5.965094e-05
6.5542062e-05
7.2484832e-05
8.070013e-05
9.0459199e-05
0.00010209064
0.00011599924
0.0001326803
0.00015273798
0.00017690713
0.00020608488
0.00024136019
0.00028405128
0.00033575201
0.00039838056
0.00047424031
0.00056608692
0.00067720645
0.00081150979
0.00097366545
0.0011692441
0.0012215809
0.0012205695
0.0012192313
0.0012177745
0.0012161959
0.001214476
0.0012125864
0.0012104809
0.0012080685
0.0012051195
0.0012014772
0.0011975322
0.0011938263
0.0011905365
0.0011876301
0.0011851063
0.0011829316
0.001181177
0.001179526
0.0011788004
0.0011769144
0.0011795433
0.0011742799
0.0011805433
2.7728369e-06
1.9131385e-05
1.800096e-05
2.2793069e-05
2.1901903e-05
2.3303219e-05
2.714313e-05
2.4074491e-05
2.7628533e-05
2.3894511e-05
2.5335214e-05
2.3241515e-05
2.3648009e-05
2.27279e-05
2.2850174e-05
2.2569562e-05
2.2723836e-05
2.2815378e-05
2.3118001e-05
2.3471077e-05
2.3962313e-05
2.4547318e-05
2.5256575e-05
2.6084174e-05
2.7047803e-05
2.8157909e-05
2.9433898e-05
3.0896634e-05
3.2573399e-05
3.44966e-05
3.6706152e-05
3.9251066e-05
4.2191848e-05
4.5602135e-05
4.9572348e-05
5.4213541e-05
5.9661972e-05
6.6084472e-05
7.3685909e-05
8.2718802e-05
9.3487609e-05
0.00010636778
0.00012181891
0.00014040177
0.00016279725
0.00018983747
0.00022253284
0.00026210638
0.00031003889
0.00036811448
0.00043847976
0.00052371036
0.00062688825
0.00075169554
0.00090253586
0.0010846879
0.0012209343
0.001219922
0.0012185314
0.0012170249
0.0012154028
0.0012136469
0.0012117323
0.0012096211
0.0012072489
0.0012044865
0.0012010289
0.0011971477
0.0011934671
0.0011902035
0.0011873247
0.0011848205
0.0011826797
0.0011809087
0.0011793774
0.0011784857
0.0011769017
0.0011788921
0.0011743258
0.0011800092
2.5083005e-06
1.8597765e-05
1.6798796e-05
2.0760993e-05
2.0598669e-05
2.0968042e-05
2.5116229e-05
2.1414208e-05
2.4644083e-05
2.1139147e-05
2.2323602e-05
2.0520504e-05
2.0821099e-05
2.0065242e-05
2.0153323e-05
1.9947126e-05
2.0088694e-05
2.0203058e-05
2.0491019e-05
2.0835948e-05
2.1300429e-05
2.1854607e-05
2.2520793e-05
2.3297216e-05
2.4198508e-05
2.5235727e-05
2.6426477e-05
2.7790677e-05
2.9353776e-05
3.1146234e-05
3.3205357e-05
3.5576869e-05
3.8317488e-05
4.1496098e-05
4.5197274e-05
4.9525066e-05
5.4607143e-05
6.0599826e-05
6.7694821e-05
7.6129901e-05
8.6189902e-05
9.8226617e-05
0.00011267082
0.00013004868
0.00015099745
0.00017629693
0.00020689456
0.00024393662
0.00028881288
0.00034319875
0.00040911341
0.00048898475
0.00058572593
0.00070282815
0.00084447501
0.0010156956
0.001220269
0.0012192713
0.0012178274
0.0012162694
0.0012146021
0.0012128082
0.001210865
0.0012087398
0.001206381
0.0012036934
0.0012004679
0.0011966805
0.0011930412
0.0011898186
0.0011869786
0.0011845076
0.0011824006
0.0011806383
0.0011791954
0.0011781769
0.0011768809
0.0011782872
0.0011743794
0.0011795574
2.2797498e-06
1.80115e-05
1.5683119e-05
1.8830229e-05
1.9382426e-05
1.8765644e-05
2.3074475e-05
1.9029423e-05
2.1802285e-05
1.867565e-05
1.9595191e-05
1.8087289e-05
1.8288579e-05
1.7685392e-05
1.7746142e-05
1.7606901e-05
1.7741119e-05
1.7876497e-05
1.8154867e-05
1.8494292e-05
1.8938149e-05
1.9467579e-05
2.0098903e-05
2.0833392e-05
2.168345e-05
2.2660421e-05
2.3780637e-05
2.5063133e-05
2.653192e-05
2.8215869e-05
3.0150156e-05
3.2377822e-05
3.4952481e-05
3.7939169e-05
4.1417743e-05
4.5486496e-05
5.0266219e-05
5.5904821e-05
6.2582951e-05
7.0527129e-05
8.0006147e-05
9.135272e-05
0.00010497431
0.00012136966
0.00014114062
0.00016502486
0.00019391941
0.00022890847
0.0002713086
0.00032270741
0.00038502055
0.00046055529
0.00055208606
0.00066294589
0.00079713841
0.00095948451
0.001155781
0.0012186066
0.0012171102
0.0012155006
0.0012137876
0.0012119551
0.001209982
0.0012078395
0.0012054849
0.001202847
0.0011997922
0.0011961333
0.0011925513
0.0011893839
0.001186595
0.0011841693
0.0011821001
0.0011803661
0.0011789887
0.0011779001
0.0011768493
0.001177735
0.001174448
0.0011791117
2.0816068e-06
1.734489e-05
1.4641209e-05
1.6982002e-05
1.8236011e-05
1.6770264e-05
2.0997362e-05
1.6885264e-05
1.9163949e-05
1.646755e-05
1.7138016e-05
1.5909216e-05
1.6026364e-05
1.5558531e-05
1.5600939e-05
1.552004e-05
1.5652275e-05
1.5806662e-05
1.607992e-05
1.6416134e-05
1.6844778e-05
1.7354839e-05
1.7958549e-05
1.8659232e-05
1.94678e-05
2.0395659e-05
2.1458199e-05
2.2673696e-05
2.4065015e-05
2.5659765e-05
2.749141e-05
2.9600766e-05
3.2038969e-05
3.4867967e-05
3.8163804e-05
4.20201e-05
4.6552213e-05
5.1901446e-05
5.8238914e-05
6.5783048e-05
7.4789508e-05
8.5575647e-05
9.8529971e-05
0.00011413005
0.00013294883
0.00015568996
0.00018321047
0.00021654425
0.00025694929
0.00030594227
0.00036535501
0.00043739676
0.00052472843
0.00063055285
0.0007587252
0.00091389336
0.0011016592
0.0012179172
0.0012163711
0.0012147107
0.001212953
0.0012110826
0.0012090799
0.0012069191
0.0012045634
0.001201956
0.0011989994
0.0011955105
0.0011920014
0.0011889032
0.0011861778
0.0011838083
0.0011817837
0.0011800923
0.0011787646
0.0011776535
0.0011768061
0.0011772477
0.0011745338
0.0011786776
1.9096312e-06
1.6568288e-05
1.367255e-05
1.5202613e-05
1.7130259e-05
1.4962096e-05
1.8875235e-05
1.4951224e-05
1.6739661e-05
1.4484309e-05
1.4936743e-05
1.3958318e-05
1.4010608e-05
1.365876e-05
1.3692215e-05
1.3661246e-05
1.379638e-05
1.396798e-05
1.4179727e-05
1.450514e-05
1.4915977e-05
1.5405561e-05
1.5982702e-05
1.6651541e-05
1.742158e-05
1.830391e-05
1.9312955e-05
2.0466116e-05
2.1785097e-05
2.3296309e-05
2.5031666e-05
2.7029825e-05
2.9339714e-05
3.2020476e-05
3.5144753e-05
3.8802001e-05
4.3102734e-05
4.8182981e-05
5.4566677e-05
6.1788304e-05
7.0414612e-05
8.0750836e-05
9.3169767e-05
0.00010813338
0.000126191
0.00014801884
0.00017444285
0.00020645603
0.00024527019
0.00029234524
0.00034944579
0.00041870223
0.00050268384
0.00060448797
0.00072784885
0.00087727324
0.0010582027
0.0012171926
0.0012156017
0.0012138928
0.0012120925
0.0012101863
0.0012081557
0.0012059773
0.0012036192
0.0012010345
0.0011981466
0.001194818
0.0011913966
0.0011883809
0.0011857313
0.001183428
0.0011814568
0.0011798181
0.0011785301
0.0011774333
0.0011767499
0.0011768372
0.0011746359
0.0011782887
1.7602384e-06
1.5666243e-05
1.2766846e-05
1.3481089e-05
1.6021118e-05
1.331902e-05
1.672868e-05
1.319986e-05
1.4533344e-05
1.2699116e-05
1.2973181e-05
1.2210604e-05
1.221843e-05
1.1963871e-05
1.19397e-05
1.1929887e-05
1.2059877e-05
1.2240677e-05
1.2509286e-05
1.2842902e-05
1.3252679e-05
1.3735961e-05
1.4300243e-05
1.4950798e-05
1.5696593e-05
1.6548773e-05
1.7521294e-05
1.8631087e-05
1.9899129e-05
2.1351075e-05
2.3017922e-05
2.4936653e-05
2.7154737e-05
2.9729392e-05
3.273085e-05
3.6245527e-05
4.0380374e-05
4.5268748e-05
5.1070087e-05
5.7981826e-05
6.6245423e-05
7.6155827e-05
8.8756433e-05
0.00010321986
0.00012068008
0.00014179092
0.00016735538
0.00019833299
0.0002359001
0.00028147188
0.00033675977
0.00040383181
0.00048518455
0.00058383147
0.00070341067
0.0008483168
0.0010238638
0.0012164228
0.0012147948
0.0012130408
0.0012112013
0.0012092623
0.0012072066
0.0012050129
0.0012026532
0.0012000886
0.0011972592
0.0011940636
0.0011907434
0.0011878225
0.00118526
0.0011830325
0.0011811242
0.0011795451
0.0011782922
0.0011772353
0.0011766781
0.0011765056
0.0011747509
0.0011779746
1.6311945e-06
1.4634794e-05
1.1924536e-05
1.1917222e-05
1.487056e-05
1.1820687e-05
1.4655289e-05
1.1609047e-05
1.2545877e-05
1.1090818e-05
1.1229164e-05
1.064699e-05
1.0545432e-05
1.0344657e-05
1.0370584e-05
1.0414545e-05
1.0567358e-05
1.0772392e-05
1.1052219e-05
1.1393403e-05
1.1803661e-05
1.2282931e-05
1.2838017e-05
1.3474964e-05
1.4202335e-05
1.5031305e-05
1.5975487e-05
1.7051399e-05
1.8279425e-05
1.9684637e-05
2.1297504e-05
2.3153479e-05
2.529902e-05
2.7789904e-05
3.0694592e-05
3.409714e-05
3.8101232e-05
4.2838397e-05
4.8463723e-05
5.5170086e-05
6.319333e-05
7.2822069e-05
8.4411236e-05
9.8386579e-05
0.00011527036
0.00013682269
0.00016173194
0.00019191898
0.00022853432
0.00027295877
0.00032686278
0.00039226631
0.00047160975
0.00056784175
0.00068452633
0.0008259731
0.0009974
0.0012051151
0.0012139442
0.0012121495
0.001210275
0.0012083075
0.0012062306
0.0012040249
0.0012016657
0.0011991203
0.001196342
0.0011932563
0.0011900493
0.0011872341
0.0011847689
0.001182626
0.0011807901
0.0011792748
0.0011780564
0.0011770562
0.0011765881
0.0011762388
0.0011748735
0.0011777129
1.5200612e-06
1.3476904e-05
1.1137539e-05
1.0498233e-05
1.3639207e-05
1.0453576e-05
1.2691536e-05
1.016436e-05
1.0775382e-05
9.6444812e-06
9.5933669e-06
9.1133173e-06
9.0632997e-06
8.9534208e-06
9.0089036e-06
9.0960607e-06
9.2699224e-06
9.4954419e-06
9.7862173e-06
1.0134857e-05
1.0547184e-05
1.1024736e-05
1.1574005e-05
1.2201631e-05
1.291582e-05
1.3727777e-05
1.4650873e-05
1.5701284e-05
1.6898883e-05
1.8268265e-05
1.97632e-05
2.1556339e-05
2.3629217e-05
2.6036197e-05
2.8844112e-05
3.2134929e-05
3.6215932e-05
4.0838421e-05
4.6330849e-05
5.2882893e-05
6.0726215e-05
7.014333e-05
8.1485419e-05
9.5168956e-05
0.00011170741
0.00013172801
0.00015598493
0.00018699977
0.00022291863
0.00026650342
0.00031939419
0.00038357535
0.00046144575
0.0005559061
0.00067046587
0.000809374
0.00097778042
0.0011819201
0.0012130453
0.0012112152
0.001209311
0.0012073199
0.0012052268
0.0012030134
0.001200658
0.0011981326
0.0011954002
0.0011924062
0.0011893225
0.0011866224
0.0011842629
0.0011822127
0.0011804578
0.0011790088
0.0011778275
0.0011768947
0.0011764772
0.0011759681
0.0011749976
0.0011775007
1.425522e-06
1.2207033e-05
1.0396537e-05
9.2086104e-06
1.2289156e-05
9.2023245e-06
1.0865988e-05
8.8500321e-06
9.2124736e-06
8.2019241e-06
8.1316643e-06
7.809021e-06
7.786317e-06
7.7475567e-06
7.831128e-06
7.9534979e-06
8.1469444e-06
8.3903388e-06
8.6920039e-06
9.0483682e-06
9.4643563e-06
9.9424404e-06
1.0488991e-05
1.1084308e-05
1.1783173e-05
1.2576424e-05
1.3476954e-05
1.4500377e-05
1.5665843e-05
1.6997033e-05
1.8522817e-05
2.0278649e-05
2.2308124e-05
2.4664933e-05
2.7415208e-05
3.0640447e-05
3.4441027e-05
3.8940579e-05
4.429121e-05
5.0679787e-05
5.8334528e-05
6.8044601e-05
7.9214979e-05
9.2696365e-05
0.00010899425
0.00012873083
0.00015264967
0.00018166071
0.00021883399
0.00026184565
0.00031404431
0.00037738998
0.000454253
0.00054750119
0.00066060691
0.00079777954
0.00096412558
0.0011658354
0.0012120952
0.0012102359
0.0012083077
0.0012062988
0.0012041948
0.0012019791
0.0011996318
0.0011971288
0.00119444
0.0011915247
0.0011885719
0.0011859941
0.0011837467
0.0011817963
0.0011801298
0.0011787491
0.0011776099
0.0011767467
0.0011763513
0.0011757427
0.0011751097
0.0011773099
1.3473271e-06
1.0839095e-05
9.6933119e-06
8.0373669e-06
1.0862743e-05
8.0550685e-06
9.2131935e-06
7.5944451e-06
7.6375338e-06
6.9524799e-06
6.8851574e-06
6.682888e-06
6.6896291e-06
6.7068355e-06
6.8169247e-06
6.9686841e-06
7.180502e-06
7.4400512e-06
7.7527566e-06
8.117371e-06
8.5184143e-06
8.9936661e-06
9.5350502e-06
1.0149184e-05
1.0844561e-05
1.1631563e-05
1.2523054e-05
1.3534528e-05
1.4684829e-05
1.5997443e-05
1.7500953e-05
1.9230488e-05
2.1229293e-05
2.3550665e-05
2.6260307e-05
2.9439198e-05
3.3187061e-05
3.7626662e-05
4.2909055e-05
4.92202e-05
5.67886e-05
6.5890546e-05
7.6863936e-05
9.0117604e-05
0.00010702914
0.00012659305
0.00015030466
0.00017907142
0.0002139802
0.00025875418
0.00031053792
0.00037338237
0.00044964113
0.00054216265
0.00065439769
0.00079053474
0.00095565974
0.0011559451
0.0012110932
0.001209211
0.0012072652
0.0012052445
0.0012031358
0.0012009236
0.0011985898
0.001196113
0.0011934679
0.001190623
0.0011878068
0.0011853557
0.0011832249
0.0011813797
0.0011798069
0.0011784966
0.0011774072
0.0011766113
0.0011762124
0.0011755522
0.0011751955
0.001177123
1.2866706e-06
9.384207e-06
9.004852e-06
6.9719075e-06
9.3984256e-06
6.9775247e-06
8.2894507e-06
6.3893265e-06
6.3340823e-06
5.8759598e-06
5.8258398e-06
5.714201e-06
5.7513333e-06
5.8136759e-06
5.9487034e-06
6.1257763e-06
6.3550686e-06
6.6297028e-06
6.9350102e-06
7.3040015e-06
7.7273843e-06
8.2089631e-06
8.7542905e-06
9.3702333e-06
1.0065364e-05
1.0850039e-05
1.1737125e-05
1.2742104e-05
1.3883487e-05
1.5184706e-05
1.6674192e-05
1.838693e-05
2.0366046e-05
2.2664737e-05
2.5348632e-05
2.8498643e-05
3.2214395e-05
3.6618369e-05
4.1861042e-05
4.8127551e-05
5.564753e-05
6.4696071e-05
7.56116e-05
8.8802422e-05
0.00010476545
0.00012410442
0.0001488197
0.00017747617
0.00021225683
0.00025447229
0.00030861838
0.00037124667
0.00044724569
0.00053945697
0.00065132269
0.0007870276
0.00095165716
0.0011513905
0.0012100403
0.001208142
0.001206185
0.001204159
0.0012020519
0.0011998494
0.001197535
0.0011950895
0.0011924906
0.0011897126
0.001187036
0.0011847137
0.0011827012
0.0011809647
0.001179488
0.0011782499
0.0011772192
0.0011764864
0.0011760635
0.0011753841
0.0011752537
0.0011769358
1.2489635e-06
7.8682216e-06
8.2947416e-06
6.0143911e-06
7.9674104e-06
6.641509e-06
6.5028635e-06
5.306379e-06
5.2576684e-06
4.9487178e-06
4.9276522e-06
4.8868368e-06
4.9537422e-06
5.0537042e-06
5.2121467e-06
5.4115388e-06
5.641228e-06
5.9260818e-06
6.2581643e-06
6.6387673e-06
7.0713711e-06
7.5602982e-06
8.1112889e-06
8.7313614e-06
9.4291762e-06
1.0214976e-05
1.1101656e-05
1.2078043e-05
1.320824e-05
1.4495014e-05
1.5966446e-05
1.7657177e-05
1.9610019e-05
2.1877876e-05
2.4526131e-05
2.7635478e-05
3.1305345e-05
3.5657908e-05
4.0842877e-05
4.735442e-05
5.4859613e-05
6.389382e-05
7.4798157e-05
8.7980642e-05
0.00010393799
0.00012327473
0.00014672391
0.00017672478
0.00021151108
0.0002537385
0.00030498931
0.00037068088
0.00044670608
0.00053895518
0.00065087157
0.00078665113
0.00095139666
0.0011513154
0.0012089398
0.0012070322
0.0012050706
0.0012030457
0.0012009463
0.0011987598
0.0011964712
0.001194063
0.0011915149
0.0011888043
0.0011862679
0.0011840737
0.0011821791
0.0011805516
0.0011791709
0.0011780069
0.0011770427
0.001176366
0.0011759084
0.0011752425
0.0011752945
0.0011767295
1.2372523e-06
7.2687193e-06
7.5688707e-06
6.197836e-06
7.6231906e-06
5.0394749e-06
5.0596841e-06
4.4018666e-06
4.3543662e-06
4.1668219e-06
4.1728835e-06
4.1891175e-06
4.2838574e-06
4.4152737e-06
4.5829057e-06
4.7972694e-06
5.0557761e-06
5.3566988e-06
5.7019648e-06
6.0938353e-06
6.5360965e-06
7.0334158e-06
7.5916682e-06
8.2179278e-06
8.9072586e-06
9.6927941e-06
1.0577101e-05
1.15753e-05
1.2705924e-05
1.3991778e-05
1.5460999e-05
1.7148355e-05
1.9096884e-05
2.1359824e-05
2.4003032e-05
2.7107823e-05
3.0774436e-05
3.5126153e-05
4.0314257e-05
4.6523935e-05
5.3981303e-05
6.3422326e-05
7.4353198e-05
8.7572849e-05
0.00010357836
0.00012297614
0.00014650175
0.00017504718
0.00021155964
0.00025392841
0.00030534865
0.00036775604
0.00044764784
0.00054021125
0.00065251266
0.00078877152
0.00095412315
0.0011548202
0.0012077974
0.0012058872
0.0012039274
0.0012019095
0.0011998238
0.0011976591
0.0011954022
0.0011930376
0.0011905466
0.0011879077
0.0011855099
0.001183441
0.0011816609
0.0011801393
0.0011788516
0.001177763
0.0011768686
0.0011762377
0.0011757511
0.0011751342
0.0011752965
0.0011764907
1.247994e-06
7.4563197e-06
6.7843983e-06
6.6778966e-06
6.6349026e-06
4.0247872e-06
4.106373e-06
3.638809e-06
3.6051165e-06
3.5119597e-06
3.5464714e-06
3.6080757e-06
3.7289376e-06
3.8740711e-06
4.0697671e-06
4.3048481e-06
4.5799868e-06
4.8952576e-06
5.252978e-06
5.6560479e-06
6.1085e-06
6.6152186e-06
7.1739292e-06
7.8052698e-06
8.5119695e-06
9.3041772e-06
1.0194238e-05
1.1197247e-05
1.2331744e-05
1.3620595e-05
1.5092081e-05
1.6781222e-05
1.8731408e-05
2.0996382e-05
2.3642645e-05
2.6752335e-05
3.0426683e-05
3.4790186e-05
3.9995525e-05
4.6229452e-05
5.3720284e-05
6.2746614e-05
7.4202414e-05
8.74929e-05
0.00010358637
0.00012309217
0.00014674917
0.00017545318
0.00021220423
0.00025480779
0.00030650895
0.00036925318
0.000449664
0.00054273908
0.00065566562
0.00079269546
0.00095900782
0.0011609139
0.0012066204
0.0012047141
0.0012027622
0.001200757
0.0011986901
0.0011965519
0.0011943317
0.0011920162
0.0011895893
0.0011870302
0.0011847677
0.0011828195
0.0011811487
0.0011797269
0.0011785267
0.0011775126
0.0011766862
0.0011760952
0.0011756038
0.0011750442
0.0011752362
0.0011761998
1.0187501e-06
7.9593451e-06
5.8892475e-06
4.2635833e-06
4.268296e-06
3.3424903e-06
3.2800559e-06
3.0220465e-06
2.9953157e-06
2.9724653e-06
3.0349566e-06
3.1320444e-06
3.2654726e-06
3.4419777e-06
3.6580654e-06
3.9105489e-06
4.2004354e-06
4.5289364e-06
4.898725e-06
5.3131023e-06
5.7762617e-06
6.2873521e-06
6.8618734e-06
7.5027776e-06
8.2184235e-06
9.0189159e-06
9.9165583e-06
1.0926436e-05
1.2067134e-05
1.3361638e-05
1.4838441e-05
1.6532899e-05
1.8488866e-05
2.0760697e-05
2.3415666e-05
2.6536844e-05
3.0226622e-05
3.4610903e-05
3.9843972e-05
4.6113925e-05
5.36508e-05
6.3201628e-05
7.4264845e-05
8.7646343e-05
0.00010385154
0.00012349349
0.00014731542
0.00017621821
0.00021322214
0.00025611265
0.00030815809
0.00037131647
0.00045229441
0.00054598881
0.00065967257
0.00079763548
0.00096510725
0.0011684656
0.0012054177
0.0012035216
0.0012015834
0.0011995961
0.0011975525
0.0011954445
0.0011932633
0.0011909992
0.0011886412
0.001186177
0.0011840447
0.0011822119
0.0011806441
0.0011793142
0.0011781934
0.0011772492
0.0011764884
0.0011759365
0.0011754422
0.0011749041
0.001175105
0.0011758446
7.9764429e-07
6.0131004e-06
4.6059695e-06
3.2415128e-06
3.3098141e-06
2.7091023e-06
2.6434091e-06
2.4985447e-06
2.5020932e-06
2.5295043e-06
2.6207146e-06
2.7391747e-06
2.9017596e-06
3.099968e-06
3.3334263e-06
3.6010961e-06
3.9044613e-06
4.2454682e-06
4.6270593e-06
5.0527716e-06
5.523462e-06
6.0495647e-06
6.6346494e-06
7.2856586e-06
8.0108959e-06
8.8204148e-06
9.7264901e-06
1.0744217e-05
1.1892256e-05
1.3193757e-05
1.4677477e-05
1.6379155e-05
1.834317e-05
2.0624544e-05
2.3291347e-05
2.6427601e-05
3.0136842e-05
3.454645e-05
3.9812878e-05
4.6125282e-05
5.4086762e-05
6.3311201e-05
7.4452711e-05
8.7930335e-05
0.00010425275
0.00012403693
0.00014803082
0.00017714049
0.00021436477
0.00025754669
0.00030994245
0.00037352332
0.00045502034
0.00054933942
0.00066378906
0.00080269808
0.00097134791
0.0011761838
0.0012041996
0.0012023199
0.0012004011
0.001198437
0.001196421
0.0011943459
0.0011922042
0.0011899875
0.0011876869
0.0011853513
0.0011833418
0.0011816182
0.0011801472
0.0011789018
0.0011778522
0.0011769709
0.001176268
0.0011757469
0.0011752576
0.0011747664
0.0011749354
0.0011754446
6.2307499e-07
3.3735182e-06
3.6589184e-06
2.6349792e-06
2.5563885e-06
2.1907408e-06
2.1422398e-06
2.0772427e-06
2.1108238e-06
2.1777475e-06
2.2942945e-06
2.4375558e-06
2.620947e-06
2.8367518e-06
3.0850133e-06
3.3660809e-06
3.6818307e-06
4.034643e-06
4.427606e-06
4.8643479e-06
5.3491452e-06
5.8838803e-06
6.4793481e-06
7.1403093e-06
7.8750103e-06
8.6934596e-06
9.6079178e-06
1.0633511e-05
1.1788997e-05
1.3097704e-05
1.4588667e-05
1.6298028e-05
1.8270688e-05
2.0562334e-05
2.3241802e-05
2.6393966e-05
3.0123191e-05
3.474704e-05
4.0085871e-05
4.6486652e-05
5.4184474e-05
6.3465372e-05
7.4676578e-05
8.8239076e-05
0.00010466411
0.00012457192
0.00014871536
0.00017956726
0.00021536097
0.0002587845
0.00031147103
0.00037540385
0.0004572599
0.0005520912
0.00066717297
0.00080686866
0.00097650587
0.0011825904
0.0012029775
0.0012011199
0.0011992262
0.0011972908
0.0011953075
0.0011932701
0.0011911718
0.0011890053
0.0011867629
0.001184554
0.0011826574
0.0011810344
0.0011796528
0.0011784851
0.0011775013
0.0011766789
0.0011760263
0.0011755285
0.0011750557
0.0011746294
0.0011747601
0.0011750829
5.0411438e-07
2.6005801e-06
2.7996364e-06
2.0820523e-06
1.99246e-06
1.7796193e-06
1.7532274e-06
1.7453547e-06
1.8072535e-06
1.9055841e-06
2.0444123e-06
2.2104553e-06
2.4109241e-06
2.6414983e-06
2.9027569e-06
3.1958728e-06
3.5229812e-06
3.8866837e-06
4.2901278e-06
4.7369613e-06
5.2314251e-06
5.7784544e-06
6.3838481e-06
7.0545014e-06
7.7987132e-06
8.6265833e-06
9.5505135e-06
1.0585838e-05
1.1751601e-05
1.3071508e-05
1.4575084e-05
1.6299074e-05
1.8289129e-05
2.0601822e-05
2.3307057e-05
2.6491015e-05
3.025959e-05
3.4742613e-05
4.0098731e-05
4.6521622e-05
5.4247393e-05
6.3563295e-05
7.4818437e-05
8.8433979e-05
0.00010492187
0.00012595795
0.00015036582
0.00017996268
0.0002158607
0.00025940865
0.0003122447
0.00037991347
0.00045827855
0.00055336676
0.00066877557
0.00080889228
0.00097907739
0.0011858805
0.0012017618
0.001199932
0.0011980687
0.0011961669
0.0011942212
0.001192226
0.0011901754
0.001188063
0.0011858822
0.0011837855
0.0011819888
0.0011804549
0.0011791525
0.0011780534
0.0011771287
0.00117636
0.0011757506
0.0011752727
0.0011748234
0.001174458
0.0011745423
0.0011747085
3.8710153e-07
2.0234741e-06
2.1021771e-06
1.6527674e-06
1.5615929e-06
1.4505862e-06
1.4487731e-06
1.4833743e-06
1.5708938e-06
1.6941875e-06
1.8514838e-06
2.0362697e-06
2.2500459e-06
2.4922677e-06
2.7639585e-06
3.0667566e-06
3.4029458e-06
3.7752354e-06
4.1867902e-06
4.6412516e-06
5.1428335e-06
5.6964367e-06
6.3078051e-06
6.983762e-06
7.7325315e-06
8.5641429e-06
9.4909408e-06
1.0528223e-05
1.1695026e-05
1.3015082e-05
1.4517984e-05
1.624058e-05
1.8228663e-05
2.0538971e-05
2.3241662e-05
2.6423296e-05
3.0189832e-05
3.4671183e-05
4.0026028e-05
4.6447972e-05
5.4172641e-05
6.3954962e-05
7.5293651e-05
8.9005848e-05
0.00010560528
0.00012571502
0.00015009055
0.00017964816
0.00021549982
0.0002589913
0.00031460188
0.00037908445
0.00045732112
0.00055226759
0.00066752504
0.00080748774
0.00097752715
0.0011842097
0.0012005658
0.0011987683
0.0011969398
0.0011950758
0.0011931715
0.0011912218
0.0011892216
0.0011871656
0.001185048
0.0011830463
0.0011813343
0.0011798759
0.0011786403
0.0011775989
0.0011767247
0.001176002
0.0011754275
0.0011749667
0.0011745452
0.0011742311
0.0011742669
0.0011743134
2.4337004e-07
1.6023133e-06
1.5314753e-06
1.3227808e-06
1.240608e-06
1.1984191e-06
1.2240987e-06
1.2932705e-06
1.4051681e-06
1.5499644e-06
1.7238581e-06
1.9241148e-06
2.1505109e-06
2.403854e-06
2.6856428e-06
2.9972263e-06
3.3420983e-06
3.7225408e-06
4.1417187e-06
4.6032796e-06
5.1114546e-06
5.6711535e-06
6.288063e-06
6.9689133e-06
7.7218481e-06
8.5568112e-06
9.4860656e-06
1.0524833e-05
1.1692078e-05
1.301147e-05
1.4512538e-05
1.6232056e-05
1.8215691e-05
2.0519985e-05
2.3302941e-05
2.6496107e-05
3.0275857e-05
3.477219e-05
4.0143892e-05
4.658464e-05
5.4329975e-05
6.3665936e-05
7.4939811e-05
8.8573052e-05
0.00010507499
0.00012506407
0.0001492901
0.00018025762
0.00021614126
0.00025965585
0.0003124354
0.00037646593
0.00045416339
0.0005484696
0.00066297061
0.00080204395
0.00097104304
0.001176514
0.0011993979
0.0011976367
0.0011958467
0.0011940238
0.0011921637
0.0011902618
0.0011883138
0.0011863148
0.0011842598
0.0011823336
0.0011806889
0.0011792904
0.0011781074
0.0011771115
0.0011762776
0.0011755911
0.0011750427
0.0011745961
0.0011742013
0.0011739249
0.0011739104
0.0011738657
3.4255526e-07
1.2861234e-06
1.1254104e-06
1.0587033e-06
1.0138722e-06
1.0124518e-06
1.0613419e-06
1.1531661e-06
1.2804216e-06
1.4365801e-06
1.6181416e-06
1.8239342e-06
2.0542896e-06
2.3103704e-06
2.5938763e-06
2.9068829e-06
3.2518117e-06
3.631483e-06
4.0491176e-06
4.5084117e-06
5.0135742e-06
5.569373e-06
6.1810415e-06
6.8551359e-06
7.599849e-06
8.4250779e-06
9.3430075e-06
1.036874e-05
1.1521081e-05
1.2823494e-05
1.4305249e-05
1.6002788e-05
1.7961375e-05
2.0237065e-05
2.2899017e-05
2.6032028e-05
2.9740174e-05
3.4151128e-05
3.9420853e-05
4.5739389e-05
5.3337805e-05
6.249669e-05
7.4127834e-05
8.760606e-05
0.00010391762
0.00012367367
0.00014761552
0.00017664266
0.00021184696
0.00025455457
0.0003063772
0.00036927524
0.000445635
0.00053836403
0.00065100875
0.00078790087
0.00095433978
0.0011568085
0.0011982517
0.0011965324
0.0011947858
0.0011930082
0.0011911958
0.0011893448
0.0011874511
0.0011855108
0.0011835196
0.0011816469
0.00118005
0.0011786937
0.0011775473
0.0011765829
0.001175777
0.0011751146
0.0011745814
0.001174143
0.0011737698
0.0011735235
0.0011734753
0.0011733624