/*--------------------------------*- C++ -*----------------------------------*\
  =========                 |
  \\      /  F ield         | OpenFOAM: The Open Source CFD Toolbox
   \\    /   O peration     | Website:  https://openfoam.org
    \\  /    A nd           | Version:  6
     \\/     M anipulation  |
\*---------------------------------------------------------------------------*/
FoamFile
{
    version     2.0;
    format      ascii;
    class       volScalarField;
    location    "750";
    object      k;
}
// * * * * * * * * * * * * * * * * * * * * * * * * * * * * * * * * * * * * * //

dimensions      [0 2 -2 0 0 0 0];

internalField   nonuniform List<scalar> 
16000
(
0.1260772
0.031782255
0.021333164
0.017646763
0.015207448
0.014334451
0.013318518
0.012984839
0.012515817
0.012298421
0.012044591
0.011879217
0.011718415
0.011592127
0.011479608
0.011386174
0.011308025
0.011242231
0.011186187
0.011138113
0.011096543
0.01106037
0.011028692
0.011000799
0.010976114
0.010954166
0.010934565
0.010916989
0.010901164
0.010886861
0.010873883
0.010862063
0.010851254
0.010841324
0.010832157
0.010823646
0.010815694
0.010808207
0.0108011
0.010794289
0.010787697
0.010781248
0.01077487
0.010768489
0.010762038
0.010755446
0.010748645
0.010741567
0.010734141
0.010726298
0.010717966
0.010709072
0.01069954
0.010689286
0.010678214
0.010666197
0.010653069
0.010638611
0.010622484
0.01060388
0.010580726
0.010553467
0.010521107
0.010482345
0.010436355
0.01038376
0.010327112
0.010271951
0.01022146
0.010178461
0.010139402
0.010110276
0.010079643
0.010062909
0.010039337
0.010052038
0.010032276
0.01011855
0.010035532
0.010119195
0.10678767
0.032290492
0.020822886
0.017523489
0.0150196
0.014255354
0.01321903
0.012916817
0.01244382
0.012232769
0.011980891
0.011816023
0.0116582
0.011531822
0.011425458
0.011338127
0.011265074
0.01120358
0.0111512
0.011106272
0.011067422
0.011033614
0.011004002
0.01097792
0.010954824
0.010934273
0.010915901
0.010899403
0.010884522
0.010871041
0.010858776
0.010847567
0.010837275
0.010827777
0.010818964
0.010810734
0.010802996
0.010795662
0.010788652
0.010781888
0.010775297
0.010768807
0.010762352
0.010755864
0.010749278
0.010742529
0.010735553
0.010728285
0.01072066
0.010712611
0.01070407
0.010694966
0.010685225
0.010674765
0.010663497
0.010651307
0.010638045
0.010623522
0.010607515
0.010589724
0.010569537
0.010545011
0.010515284
0.010478964
0.010435045
0.010383697
0.010327357
0.010271584
0.010220779
0.010176908
0.010138203
0.010107637
0.010079075
0.010062481
0.010038926
0.010044695
0.010027884
0.01010499
0.010033723
0.010117852
0.092394381
0.032747917
0.020293923
0.017376264
0.014825846
0.014160433
0.013115599
0.012838416
0.012368534
0.012160031
0.011913909
0.011747723
0.011594867
0.011473861
0.011374656
0.011293209
0.011225079
0.011167737
0.011118899
0.01107701
0.011040787
0.01100926
0.010981638
0.010957296
0.010935725
0.01091651
0.010899307
0.010883831
0.010869839
0.010857127
0.010845519
0.010834867
0.010825039
0.010815919
0.010807404
0.010799399
0.010791818
0.01078458
0.010777609
0.010770833
0.010764182
0.010757593
0.010751
0.010744344
0.010737562
0.010730595
0.010723384
0.010715867
0.010707982
0.010699669
0.01069086
0.010681489
0.010671483
0.010660763
0.010649243
0.010636818
0.010623352
0.010608666
0.010592556
0.01057479
0.010555046
0.010532721
0.010506186
0.010472836
0.010431497
0.010381941
0.010326264
0.010270224
0.010219141
0.010174844
0.010136285
0.010105022
0.010077528
0.010061306
0.010038536
0.010039943
0.01002534
0.010093374
0.010031628
0.010107989
0.082914153
0.032943973
0.019766534
0.017205265
0.014630729
0.014048081
0.013010941
0.012748035
0.012290689
0.012079082
0.011843569
0.011674266
0.01153207
0.011419483
0.01132718
0.011251397
0.011188015
0.011134673
0.011089248
0.011050284
0.011016588
0.010987253
0.010961538
0.01093886
0.010918741
0.010900793
0.010884694
0.010870174
0.010857008
0.010845001
0.01083399
0.010823833
0.010814407
0.010805604
0.010797326
0.010789485
0.010782001
0.010774798
0.010767806
0.010760958
0.01075419
0.010747443
0.010740657
0.010733776
0.010726744
0.010719506
0.010712007
0.010704189
0.010695996
0.010687368
0.010678244
0.010668558
0.010658242
0.010647218
0.010635403
0.010622698
0.010608976
0.010594071
0.010577786
0.010559906
0.010540167
0.010518174
0.010493201
0.010463444
0.0104253
0.010378159
0.010323627
0.01026765
0.010216466
0.01017202
0.010133641
0.010102023
0.010075323
0.010057769
0.010038003
0.010037497
0.010023375
0.010080725
0.010029854
0.010101399
0.074603393
0.032767227
0.019251744
0.017008761
0.014435572
0.013917415
0.01290544
0.012645136
0.012210211
0.011989626
0.011769666
0.011605259
0.011473311
0.011368793
0.011283131
0.011212793
0.01115398
0.011104487
0.011062345
0.011026192
0.01099492
0.010967682
0.010943789
0.010922693
0.010903949
0.010887194
0.010872126
0.010858492
0.01084608
0.010834709
0.010824223
0.010814492
0.010805398
0.010796842
0.010788731
0.010780985
0.010773528
0.010766292
0.010759211
0.010752225
0.010745275
0.010738305
0.010731264
0.010724099
0.010716758
0.010709192
0.010701349
0.010693178
0.010684624
0.010675632
0.010666145
0.010656098
0.010645427
0.010634056
0.010621904
0.010608875
0.010594853
0.010579681
0.01056317
0.010545113
0.010525271
0.010503312
0.010478722
0.01045052
0.010416246
0.010372214
0.010319382
0.010263819
0.010212744
0.010168403
0.010130293
0.010098634
0.010072578
0.010054241
0.010036908
0.010034903
0.010021898
0.010069193
0.010028271
0.010091094
0.067316389
0.032061285
0.018761597
0.01678496
0.014242111
0.013767223
0.012799718
0.012528923
0.012126979
0.011896425
0.01169304
0.011540787
0.011418667
0.011321869
0.011242581
0.011177467
0.011123041
0.011077238
0.011038241
0.011004779
0.010975821
0.010950581
0.010928415
0.010908812
0.010891357
0.010875711
0.010861591
0.010848762
0.010837024
0.010826208
0.010816169
0.010806782
0.010797942
0.010789553
0.010781532
0.010773803
0.010766298
0.010758954
0.010751712
0.010744518
0.010737317
0.010730061
0.010722701
0.010715192
0.010707486
0.010699537
0.0106913
0.010682726
0.010673766
0.010664366
0.010654472
0.010644025
0.010632959
0.010621205
0.010608681
0.010595295
0.010580935
0.010565458
0.01054868
0.010530402
0.010510399
0.010488376
0.010463905
0.010436292
0.010404158
0.010364014
0.010313522
0.010258746
0.010208007
0.010164002
0.010126283
0.010094834
0.010069338
0.010050594
0.010035179
0.01003196
0.010020651
0.010059759
0.010026882
0.010083597
0.060929559
0.030993957
0.01829997
0.016531508
0.014052252
0.013596479
0.012694324
0.012398887
0.012040289
0.011809224
0.011621656
0.011480955
0.011368232
0.01127881
0.011205624
0.011145508
0.011095281
0.011053006
0.011017013
0.010986113
0.010959354
0.010936002
0.010915461
0.010897254
0.010880993
0.010866362
0.010853098
0.010840981
0.010829826
0.010819473
0.010809789
0.010800657
0.010791979
0.010783669
0.010775649
0.010767852
0.010760216
0.010752684
0.010745204
0.010737727
0.010730205
0.010722595
0.010714854
0.010706941
0.010698814
0.010690432
0.010681752
0.01067273
0.01066332
0.010653473
0.010643135
0.010632252
0.010620759
0.010608589
0.010595663
0.010581891
0.010567165
0.010551352
0.010534275
0.010515742
0.010495541
0.010473398
0.010448937
0.010421597
0.010390408
0.01035342
0.010306015
0.010252437
0.010202269
0.010158824
0.010121645
0.01009061
0.010065648
0.010046861
0.01003285
0.010028052
0.010019435
0.010051591
0.010025447
0.010075525
0.055331497
0.029938646
0.017851661
0.016246965
0.013867798
0.013404798
0.012589606
0.012270638
0.011948261
0.011728086
0.011555567
0.011425841
0.01132208
0.011239696
0.011172337
0.011116994
0.011070772
0.011031859
0.010998721
0.010970248
0.010945564
0.010923982
0.010904953
0.010888032
0.010872857
0.010859136
0.010846622
0.010835112
0.010824433
0.010814439
0.010805005
0.010796026
0.01078741
0.010779079
0.010770965
0.010763007
0.01075515
0.010747345
0.010739545
0.01073171
0.010723796
0.010715767
0.010707584
0.010699212
0.010690612
0.010681749
0.010672583
0.010663074
0.010653178
0.01064285
0.010632039
0.010620691
0.010608746
0.010596136
0.010582785
0.010568605
0.010553493
0.01053732
0.010519921
0.01050111
0.010480683
0.010458386
0.01043388
0.010406681
0.010376018
0.010340468
0.010296872
0.010244945
0.010195587
0.010152913
0.010116439
0.010085998
0.010061582
0.010043028
0.010030084
0.010023999
0.010018101
0.010043813
0.010023767
0.010068136
0.050417624
0.028968667
0.017416352
0.015931021
0.013689987
0.013191958
0.012484047
0.012150581
0.011855657
0.011653089
0.011494841
0.011375535
0.0112803
0.011204619
0.011142807
0.011092009
0.011049594
0.011013869
0.010983428
0.010957239
0.010934491
0.010914551
0.010896907
0.010881148
0.010866937
0.010854002
0.010842118
0.010831093
0.010820771
0.010811017
0.010801716
0.010792773
0.010784107
0.010775648
0.010767335
0.010759116
0.010750944
0.010742778
0.010734578
0.010726308
0.010717934
0.010709422
0.01070074
0.010691857
0.01068274
0.010673355
0.010663667
0.010653639
0.01064323
0.010632396
0.010621089
0.010609256
0.010596839
0.010583772
0.010569981
0.010555379
0.010539867
0.010523321
0.010505586
0.010486481
0.010465812
0.010443341
0.010418757
0.010391638
0.01036135
0.010326838
0.010286098
0.010236341
0.010188027
0.010146328
0.01011073
0.010081042
0.010057233
0.010039127
0.010026994
0.01002023
0.010016615
0.010036528
0.010021946
0.010060597
0.04609617
0.028062936
0.016995859
0.015582542
0.013519734
0.012990497
0.012375044
0.012039433
0.011770299
0.011584309
0.011439551
0.011330131
0.011242984
0.011173673
0.011117126
0.011070638
0.011031823
0.010999102
0.010971188
0.010947124
0.010926163
0.010907717
0.010891315
0.010876575
0.010863187
0.010850899
0.010839503
0.010828825
0.010818722
0.010809072
0.010799773
0.010790739
0.0107819
0.010773196
0.010764574
0.010755991
0.01074741
0.010738795
0.010730114
0.010721339
0.01071244
0.010703389
0.010694159
0.010684722
0.01067505
0.010665112
0.010654875
0.010644305
0.010633363
0.010622007
0.01061019
0.010597861
0.010584962
0.01057143
0.010557192
0.010542162
0.010526244
0.01050932
0.010491243
0.010471838
0.010450921
0.010428266
0.01040359
0.010376514
0.010346502
0.010312714
0.010273702
0.010226732
0.010179682
0.010139153
0.0101046
0.010075807
0.010052691
0.010035187
0.010023682
0.010016735
0.010014978
0.010029911
0.010020038
0.010053042
0.042287903
0.027200492
0.016591577
0.015200189
0.013355636
0.012802454
0.012259365
0.01193717
0.011692184
0.011521815
0.011389777
0.011289725
0.011210229
0.011146954
0.011095382
0.011052961
0.011017529
0.010987614
0.010962041
0.010939927
0.010920581
0.010903462
0.010888135
0.01087425
0.01086152
0.010849716
0.010838648
0.010828159
0.01081812
0.010808424
0.010798981
0.010789718
0.010780576
0.010771504
0.010762461
0.010753412
0.010744328
0.010735181
0.010725946
0.010716601
0.010707121
0.010697484
0.010687667
0.010677645
0.010667392
0.01065688
0.010646078
0.010634954
0.01062347
0.010611586
0.010599255
0.010586427
0.010573047
0.01055905
0.010544365
0.010528909
0.010512589
0.010495289
0.010476872
0.01045717
0.010436007
0.010413171
0.010388399
0.010361353
0.010331571
0.010298363
0.010260603
0.010216248
0.010170665
0.010131485
0.010098139
0.01007037
0.010048053
0.010031256
0.010020259
0.010013498
0.010013215
0.010024192
0.010018259
0.010046291
0.038924015
0.026359427
0.016205341
0.014782787
0.01319557
0.01262857
0.0121382
0.011843762
0.011621321
0.011465679
0.011345603
0.011254415
0.011182132
0.011124558
0.011077661
0.011039052
0.011006768
0.010979443
0.010956002
0.010935636
0.010917709
0.010901721
0.010887277
0.010874055
0.010861793
0.010850286
0.010839362
0.010828882
0.010818734
0.010808828
0.010799087
0.01078945
0.010779871
0.01077031
0.010760736
0.010751123
0.01074145
0.010731698
0.010721847
0.01071188
0.010701777
0.010691521
0.010681091
0.010670464
0.010659617
0.010648523
0.010637153
0.010625475
0.010613452
0.010601043
0.010588205
0.010574886
0.010561031
0.010546578
0.010531456
0.010515585
0.010498872
0.010481208
0.010462462
0.010442475
0.010421078
0.010398072
0.010373214
0.010346197
0.010316624
0.010283927
0.010247235
0.010205049
0.010161112
0.01012344
0.010091446
0.01006482
0.010043411
0.010027389
0.010016834
0.010010489
0.010011314
0.010019466
0.010016572
0.010040607
0.035944143
0.025516135
0.015838996
0.014399704
0.013036282
0.012469636
0.012027761
0.011759159
0.011557722
0.011415965
0.011307116
0.011224296
0.011158789
0.01110657
0.011064035
0.01102896
0.010999566
0.010974588
0.010953046
0.010934196
0.010917457
0.010902373
0.010888584
0.010875801
0.010863788
0.010852364
0.010841378
0.010830711
0.010820269
0.010809979
0.010799779
0.010789623
0.010779476
0.010769312
0.010759107
0.010748845
0.010738512
0.010728095
0.010717581
0.010706957
0.010696207
0.010685314
0.010674262
0.010663027
0.010651588
0.010639918
0.01062799
0.010615769
0.01060322
0.010590303
0.010576973
0.01056318
0.010548869
0.010533977
0.010518436
0.010502167
0.010485081
0.010467071
0.010448014
0.01042776
0.010406149
0.010382993
0.010358067
0.010331094
0.010301724
0.01026949
0.010233716
0.010193314
0.010151176
0.010115149
0.010084628
0.010059249
0.010038852
0.010023642
0.010013502
0.010007686
0.010009204
0.010015522
0.010015008
0.010035708
0.033296716
0.024645934
0.015491697
0.014050719
0.01287312
0.012325222
0.011927848
0.011683342
0.011501434
0.011372758
0.011274414
0.011199467
0.011140287
0.01109306
0.011054559
0.011022716
0.010995918
0.010973004
0.010953083
0.010935473
0.01091965
0.010905201
0.010891803
0.010879202
0.01086719
0.010855611
0.01084434
0.010833277
0.010822349
0.0108115
0.010800686
0.010789874
0.010779043
0.010768175
0.010757258
0.010746282
0.010735238
0.010724121
0.010712919
0.010701623
0.01069022
0.010678693
0.010667026
0.010655197
0.010643183
0.010630959
0.010618494
0.010605755
0.010592707
0.010579307
0.010565511
0.01055127
0.010536528
0.010521223
0.010505288
0.010488647
0.010471211
0.010452881
0.010433539
0.010413045
0.010391247
0.010367969
0.010343003
0.010316097
0.010286941
0.010255143
0.010220173
0.010181244
0.010141022
0.010106748
0.010077797
0.010053755
0.010034461
0.010020078
0.010010353
0.010005111
0.01000687
0.01001131
0.010013495
0.010031626
0.030937046
0.023721295
0.015162229
0.013734105
0.012699484
0.012194879
0.01183828
0.011616288
0.011452507
0.011336135
0.011247585
0.011180007
0.011126707
0.011084081
0.011049242
0.011020278
0.010995735
0.010974549
0.010955917
0.010939222
0.010923995
0.010909868
0.010896561
0.010883852
0.010871569
0.010859583
0.010847793
0.010836125
0.010824525
0.010812955
0.010801388
0.010789805
0.010778196
0.010766552
0.010754868
0.010743141
0.010731366
0.010719537
0.010707649
0.01069569
0.01068365
0.010671512
0.010659258
0.010646865
0.010634309
0.010621564
0.010608598
0.010595377
0.010581864
0.010568017
0.01055379
0.010539134
0.010523994
0.010508309
0.010492013
0.01047503
0.010457278
0.01043866
0.010419065
0.010398362
0.01037641
0.010353047
0.010328077
0.010301271
0.010272352
0.010240985
0.010206744
0.010169051
0.010130829
0.010098381
0.010071066
0.010048433
0.010030314
0.010016772
0.010007483
0.010002778
0.010004508
0.010007633
0.010011882
0.010028071
0.028826851
0.022712281
0.014848614
0.013449163
0.01253413
0.012078178
0.011758917
0.011557973
0.011410999
0.011306155
0.011226723
0.011165991
0.011118076
0.011079606
0.011047997
0.011021499
0.010998803
0.010978945
0.01096121
0.010945047
0.010930046
0.010915889
0.010902338
0.010889212
0.010876375
0.010863727
0.010851195
0.010838729
0.010826294
0.010813871
0.010801445
0.010789011
0.010776566
0.010764109
0.01075164
0.010739157
0.010726658
0.010714139
0.010701591
0.010689005
0.010676367
0.01066366
0.010650863
0.010637953
0.010624902
0.010611682
0.010598261
0.010584604
0.010570671
0.010556419
0.010541803
0.010526774
0.010511276
0.010495249
0.010478629
0.010461343
0.010443311
0.010424442
0.010404631
0.010383758
0.010361691
0.010338281
0.01031335
0.010286686
0.010258042
0.010227121
0.010193571
0.010156951
0.010120777
0.01009019
0.010064544
0.010043368
0.01002647
0.010013783
0.010004983
0.010000732
0.010002148
0.01000436
0.010009998
0.01002484
0.026934062
0.021586931
0.014547682
0.013194473
0.012386151
0.011974822
0.011689694
0.011508333
0.011376924
0.011282899
0.011211878
0.011157414
0.011114323
0.011079488
0.011050599
0.011026068
0.011004731
0.010985727
0.01096843
0.010952361
0.010937173
0.010922605
0.010908465
0.010894613
0.010880951
0.010867409
0.010853942
0.010840523
0.010827133
0.010813768
0.010800425
0.010787106
0.010773814
0.010760551
0.010747317
0.010734113
0.010720933
0.010707772
0.010694619
0.010681463
0.010668287
0.01065507
0.010641791
0.010628422
0.010614934
0.010601297
0.010587475
0.010573434
0.010559132
0.010544526
0.010529569
0.010514212
0.010498401
0.010482077
0.010465176
0.010447629
0.010429358
0.010410279
0.010390294
0.010369292
0.010347153
0.010323741
0.010298894
0.010272421
0.010244098
0.010213659
0.010180798
0.01014516
0.010111043
0.010082316
0.010058338
0.010038633
0.010022968
0.010011146
0.010002904
0.0099990337
0.0099999269
0.010001425
0.010007936
0.010021883
0.025232902
0.020312639
0.014252679
0.012968362
0.012254863
0.011884521
0.011630634
0.011467436
0.01135041
0.011266416
0.011203027
0.011154154
0.011115226
0.011083392
0.011056605
0.011033443
0.011012886
0.010994187
0.010976809
0.01096036
0.010944556
0.010929195
0.010914134
0.010899278
0.010884562
0.010869946
0.01085541
0.010840943
0.010826541
0.010812209
0.010797949
0.010783768
0.010769668
0.01075565
0.010741715
0.010727858
0.010714072
0.010700346
0.010686667
0.010673017
0.010659378
0.010645726
0.010632036
0.010618277
0.010604418
0.010590427
0.010576266
0.010561899
0.010547284
0.010532377
0.010517131
0.010501497
0.010485422
0.010468848
0.010451713
0.010433951
0.010415488
0.010396245
0.010376131
0.010355044
0.010332877
0.010309508
0.010284792
0.01025856
0.01023061
0.010200705
0.010168565
0.01013388
0.010101797
0.01007489
0.010052542
0.010034287
0.010019834
0.01000888
0.010001256
0.0099977049
0.0099979922
0.0099989808
0.010006029
0.010018996
0.023704413
0.019064018
0.013950916
0.012769329
0.012139483
0.011806786
0.011581149
0.011435298
0.011331474
0.011256605
0.011199953
0.01115585
0.01112028
0.011090678
0.01106525
0.011042754
0.011022319
0.011003323
0.010985327
0.010968022
0.010951195
0.010934702
0.01091845
0.010902381
0.010886463
0.010870678
0.010855022
0.010839494
0.010824101
0.010808846
0.010793735
0.010778769
0.01076395
0.010749275
0.010734737
0.010720328
0.010706034
0.010691841
0.01067773
0.01066368
0.010649665
0.010635661
0.010621638
0.010607564
0.010593406
0.010579128
0.010564693
0.010550061
0.010535192
0.010520041
0.010504561
0.010488703
0.010472415
0.010455642
0.010438323
0.010420396
0.01040179
0.010382431
0.010362235
0.01034111
0.010318961
0.010295678
0.010271137
0.010245192
0.010217669
0.010188355
0.010156996
0.010123295
0.010093191
0.010068034
0.010047243
0.010030369
0.010017072
0.010006979
0.0099999895
0.0099966814
0.0099964287
0.0099971672
0.01000413
0.010016027
0.022331902
0.018006693
0.013635566
0.01259659
0.012039887
0.011740849
0.011541626
0.011411957
0.011319973
0.011253103
0.011202092
0.011161744
0.011128559
0.011100274
0.011075352
0.011052751
0.011031752
0.01101186
0.010992739
0.010974165
0.010955993
0.010938131
0.010920527
0.010903153
0.010885996
0.010869054
0.010852327
0.01083582
0.010819534
0.010803472
0.010787633
0.010772012
0.010756605
0.0107414
0.010726385
0.010711545
0.01069686
0.010682311
0.010667872
0.010653518
0.010639222
0.010624953
0.01061068
0.010596368
0.010581983
0.010567487
0.010552843
0.010538009
0.010522946
0.010507608
0.010491949
0.010475922
0.010459476
0.010442556
0.010425107
0.010407065
0.010388368
0.010368944
0.010348716
0.010327602
0.010305516
0.010282362
0.010258034
0.010232412
0.010205351
0.01017668
0.010146178
0.010113555
0.010085351
0.010061853
0.010042516
0.010026916
0.010014682
0.010005414
0.0099990271
0.0099958956
0.009995286
0.0099959355
0.01000209
0.010012773
0.021092859
0.017102824
0.013354985
0.012444586
0.011954163
0.01168668
0.011511835
0.011396811
0.011315138
0.01125494
0.011208277
0.011170492
0.011138575
0.011110596
0.011085294
0.011061822
0.011039621
0.011018323
0.010997692
0.010977579
0.010957892
0.01093858
0.010919614
0.010900984
0.010882684
0.010864711
0.010847062
0.010829737
0.010812729
0.010796031
0.010779633
0.010763523
0.010747685
0.0107321
0.01071675
0.010701611
0.010686659
0.010671867
0.010657208
0.010642651
0.010628165
0.010613719
0.010599276
0.010584803
0.010570263
0.010555618
0.010540829
0.010525856
0.010510657
0.010495191
0.01047941
0.010463269
0.010446719
0.010429707
0.01041218
0.010394079
0.010375344
0.010355908
0.010335702
0.01031465
0.010292673
0.01026969
0.010245608
0.010220328
0.010193739
0.010165716
0.010136117
0.010104778
0.010078375
0.010056435
0.010038442
0.010023988
0.010012692
0.010004168
0.0099983416
0.0099953723
0.0099943898
0.0099945857
0.0099998377
0.010008891
0.019968038
0.016305795
0.013105986
0.012307961
0.011880969
0.011644478
0.011491205
0.011388999
0.011315743
0.011260571
0.011216716
0.011180125
0.011148273
0.011119597
0.011093091
0.011068109
0.011044241
0.011021231
0.010998919
0.01097721
0.010956045
0.010935388
0.010915221
0.010895529
0.010876299
0.010857521
0.01083918
0.010821262
0.010803749
0.010786623
0.010769863
0.010753445
0.010737345
0.010721538
0.010705996
0.010690691
0.010675594
0.010660673
0.010645898
0.010631234
0.010616648
0.010602107
0.010587573
0.010573012
0.010558386
0.010543656
0.010528786
0.010513734
0.01049846
0.010482922
0.010467075
0.010450876
0.010434276
0.010417227
0.010399677
0.010381572
0.010362854
0.010343464
0.010323335
0.010302398
0.010280584
0.010257818
0.010234018
0.010209097
0.01018296
0.010155503
0.01012661
0.010097049
0.010072322
0.01005183
0.010035077
0.010021657
0.010011181
0.010003297
0.0099979454
0.0099950998
0.0099938406
0.0099937484
0.0099979913
0.010005039
0.018947404
0.015584977
0.012888515
0.012190484
0.011821549
0.011613229
0.011478317
0.011386591
0.0113195
0.01126744
0.011224725
0.011187956
0.011155093
0.011124905
0.011096632
0.011069795
0.011044104
0.011019374
0.01099549
0.010972378
0.010949985
0.010928273
0.010907208
0.010886763
0.010866908
0.010847616
0.010828858
0.010810605
0.010792825
0.010775489
0.010758565
0.010742022
0.010725827
0.010709948
0.010694352
0.010679007
0.010663878
0.010648933
0.010634137
0.010619456
0.010604854
0.010590294
0.010575743
0.010561162
0.010546515
0.010531765
0.010516874
0.010501802
0.010486509
0.010470956
0.010455099
0.010438896
0.010422302
0.010405271
0.010387754
0.0103697
0.010351057
0.010331768
0.010311773
0.01029101
0.010269416
0.010246923
0.010223459
0.010198947
0.010173303
0.010146436
0.010118249
0.010090424
0.010067212
0.010048033
0.010032405
0.010019919
0.010010183
0.010002878
0.0099979294
0.0099951689
0.0099937741
0.0099936554
0.0099971132
0.010002718
0.018025128
0.014923953
0.01269991
0.012091877
0.01177367
0.011590127
0.011470099
0.011386135
0.011322841
0.01127199
0.011228929
0.011190908
0.011156331
0.011124247
0.01109408
0.011065466
0.011038174
0.011012048
0.010986977
0.010962877
0.01093968
0.010917326
0.01089576
0.010874933
0.010854798
0.010835307
0.010816417
0.010798086
0.010780272
0.010762935
0.010746035
0.010729534
0.010713396
0.010697582
0.010682057
0.010666785
0.010651729
0.010636855
0.010622126
0.010607509
0.010592965
0.010578461
0.010563959
0.010549425
0.010534821
0.010520111
0.010505257
0.010490223
0.010474968
0.010459456
0.010443644
0.010427493
0.010410961
0.010394003
0.010376574
0.010358627
0.010340114
0.010320983
0.010301179
0.010280645
0.010259326
0.010237161
0.010214086
0.010190035
0.010164934
0.010138706
0.010111268
0.010084953
0.010063058
0.010045019
0.010030368
0.01001869
0.0100096
0.01000281
0.0099982031
0.0099955146
0.0099940643
0.0099939653
0.0099967791
0.01000112
0.017200758
0.014364252
0.012538609
0.012009132
0.011734222
0.011571084
0.011462029
0.011382948
0.01132123
0.011270058
0.011225696
0.011185962
0.011149597
0.011115832
0.01108418
0.011054317
0.011026012
0.010999097
0.010973435
0.010948913
0.010925437
0.01090292
0.010881286
0.010860465
0.010840393
0.010821009
0.010802259
0.010784091
0.010766455
0.010749305
0.010732597
0.01071629
0.010700342
0.010684716
0.010669371
0.010654272
0.010639382
0.010624664
0.010610083
0.010595604
0.01058119
0.010566808
0.010552421
0.010537996
0.010523495
0.010508883
0.010494126
0.010479185
0.010464026
0.010448609
0.010432899
0.010416855
0.010400438
0.010383608
0.010366322
0.010348537
0.010330208
0.010311287
0.010291727
0.010271474
0.01025048
0.01022869
0.01020605
0.010182499
0.010157977
0.010132417
0.01010575
0.010080687
0.010059882
0.010042789
0.010028941
0.010017928
0.010009374
0.01000301
0.0099986745
0.0099960524
0.0099946154
0.0099945619
0.0099968603
0.010000219
0.016488519
0.013911422
0.012402377
0.011937528
0.011697237
0.011549672
0.011447932
0.011371507
0.011310105
0.011258143
0.01121257
0.011171592
0.011134139
0.011099523
0.011067261
0.011037002
0.011008486
0.010981509
0.010955904
0.010931533
0.010908276
0.01088603
0.010864703
0.010844215
0.010824488
0.010805458
0.010787061
0.010769241
0.010751945
0.010735126
0.010718737
0.010702736
0.01068708
0.010671731
0.010656651
0.010641802
0.010627149
0.010612655
0.010598287
0.010584008
0.010569784
0.010555582
0.010541367
0.010527105
0.010512763
0.010498304
0.010483697
0.010468905
0.010453894
0.010438629
0.010423073
0.01040719
0.010390943
0.010374293
0.010357202
0.01033963
0.010321536
0.010302876
0.010283606
0.01026368
0.010243052
0.010221677
0.010199504
0.010176483
0.010152559
0.010127675
0.01010177
0.010077668
0.010057698
0.010041325
0.010028087
0.010017575
0.010009428
0.010003384
0.0099992401
0.0099966637
0.0099952559
0.0099952098
0.00999705
0.0099996238
0.015784113
0.013507193
0.012267522
0.011859039
0.011647268
0.011513181
0.011417992
0.011344649
0.011284625
0.011233248
0.011187895
0.011146979
0.011109512
0.011075124
0.011043266
0.011013538
0.010985631
0.010959309
0.01093438
0.010910688
0.010888106
0.010866524
0.010845849
0.010825993
0.010806879
0.010788436
0.010770599
0.010753313
0.010736525
0.010720187
0.010704253
0.010688682
0.010673434
0.01065847
0.010643755
0.010629252
0.010614926
0.010600744
0.01058667
0.010572672
0.010558717
0.010544772
0.010530804
0.010516781
0.010502669
0.010488437
0.010474051
0.010459477
0.010444684
0.010429637
0.010414303
0.010398646
0.010382633
0.010366227
0.010349392
0.010332091
0.010314286
0.010295938
0.010277006
0.010257449
0.010237226
0.010216297
0.010194618
0.010172146
0.010148835
0.010124637
0.010099503
0.010076022
0.010056593
0.010040682
0.01002783
0.01001763
0.010009733
0.010003877
0.0099998258
0.0099972545
0.0099958818
0.0099958748
0.0099974218
0.0099994779
0.014479103
0.012843571
0.012011236
0.011698466
0.011528016
0.011416875
0.011336139
0.011272901
0.011220675
0.011175842
0.011136297
0.01110073
0.011068275
0.011038045
0.011009673
0.010982885
0.01095747
0.010933261
0.010910125
0.010887948
0.010866635
0.010846104
0.010826367
0.010807398
0.010789115
0.01077145
0.01075434
0.010737732
0.010721575
0.010705824
0.010690437
0.010675376
0.010660604
0.010646085
0.010631786
0.010617675
0.010603718
0.010589887
0.01057615
0.010562474
0.010548828
0.010535182
0.010521504
0.010507762
0.010493926
0.010479965
0.010465846
0.010451539
0.010437012
0.010422232
0.010407168
0.010391786
0.010376054
0.010359938
0.010343402
0.010326414
0.010308935
0.010290931
0.010272363
0.010253192
0.010233382
0.010212894
0.01019169
0.010169729
0.010146972
0.010123376
0.010098897
0.010075715
0.01005654
0.010040839
0.010028147
0.010018058
0.010010232
0.010004391
0.010000274
0.009997596
0.0099961611
0.0099960077
0.0099970454
0.0099985536
0.014030764
0.012624459
0.011863467
0.011586033
0.011435386
0.011337483
0.011266033
0.011209766
0.011162864
0.011122207
0.011085988
0.011053109
0.011022864
0.010994774
0.010968514
0.010943838
0.010920548
0.010898484
0.010877509
0.010857506
0.010838371
0.01082001
0.010802267
0.010785037
0.010768281
0.010751962
0.010736046
0.0107205
0.010705292
0.010690391
0.01067577
0.010661398
0.01064725
0.010633297
0.010619513
0.010605873
0.010592354
0.010578954
0.010565642
0.010552385
0.01053915
0.010525908
0.010512627
0.010499276
0.010485826
0.010472247
0.010458507
0.010444577
0.010430425
0.010416022
0.010401337
0.010386337
0.010370991
0.010355266
0.01033913
0.010322549
0.010305488
0.010287914
0.010269788
0.010251076
0.01023174
0.010211745
0.010191053
0.010169627
0.010147428
0.010124415
0.010100548
0.01007709
0.010057704
0.010041846
0.010029033
0.010018848
0.010010939
0.010005006
0.010000775
0.009997992
0.0099964812
0.0099961645
0.0099968604
0.009998172
0.013589478
0.012399415
0.011682393
0.011443687
0.011316029
0.011235566
0.011177018
0.011130896
0.011092104
0.011058102
0.011027444
0.010999295
0.010973127
0.01094859
0.010925432
0.010903466
0.010882546
0.010862551
0.010843385
0.010824966
0.010807225
0.010790102
0.010773542
0.010757499
0.010741935
0.010726811
0.010712091
0.010697741
0.010683727
0.010670016
0.010656578
0.010643381
0.010630395
0.01061759
0.010604939
0.010592411
0.010579974
0.010567571
0.010555181
0.01054278
0.010530346
0.010517854
0.01050528
0.010492599
0.010479786
0.010466816
0.010453662
0.010440298
0.010426696
0.010412829
0.010398668
0.010384185
0.010369351
0.010354135
0.010338507
0.010322435
0.010305886
0.010288829
0.010271228
0.010253048
0.010234255
0.010214812
0.010194686
0.01017384
0.010152235
0.010129834
0.010106596
0.01008248
0.010062263
0.010045696
0.010032277
0.010021572
0.010013211
0.010006874
0.010002279
0.0099991801
0.0099973885
0.0099967474
0.0099970723
0.0099981717
55.862787
101.5521
60.792251
41.189058
28.586185
19.963287
14.103626
10.094772
7.2869775
5.279382
3.8229631
2.7654857
1.9916417
1.4315896
1.0197838
0.72258197
0.50735412
0.35381764
0.24582471
0.1703317
0.11798365
0.082067133
0.057715969
0.041409203
0.030639314
0.023621455
0.019115031
0.016258038
0.014467355
0.013355103
0.012667139
0.012240206
0.011971498
0.011797515
0.011679826
0.011595632
0.011531662
0.0114803
0.011437212
0.011399936
0.011367014
0.011337551
0.011310977
0.011286834
0.011264758
0.011244357
0.011224729
0.01120133
0.011167795
0.011123692
0.011073038
0.011020328
0.010968724
0.01092014
0.010875114
0.010833701
0.010797045
0.010765632
0.01073735
0.010711942
0.010684586
0.010658134