/*--------------------------------*- C++ -*----------------------------------*\
  =========                 |
  \\      /  F ield         | OpenFOAM: The Open Source CFD Toolbox
   \\    /   O peration     | Website:  https://openfoam.org
    \\  /    A nd           | Version:  6
     \\/     M anipulation  |
\*---------------------------------------------------------------------------*/
FoamFile
{
    version     2.0;
    format      ascii;
    class       volScalarField;
    location    "750";
    object      nut;
}
// * * * * * * * * * * * * * * * * * * * * * * * * * * * * * * * * * * * * * //

dimensions      [0 2 -1 0 0 0 0];

internalField   nonuniform List<scalar> 
16000
(
5.1580139e-06
2.1259998e-05
2.3272804e-05
3.3044797e-05
2.8424989e-05
3.6564754e-05
3.6040178e-05
4.0673974e-05
4.1966281e-05
4.2058352e-05
4.2741513e-05
4.1366443e-05
4.1513838e-05
4.041455e-05
4.0425059e-05
3.9900875e-05
4.0057923e-05
4.0075476e-05
4.0479665e-05
4.0922726e-05
4.162246e-05
4.244704e-05
4.3486429e-05
4.4701912e-05
4.6139355e-05
4.7802278e-05
4.9727624e-05
5.1942782e-05
5.449235e-05
5.7425254e-05
6.0805162e-05
6.4708666e-05
6.9230751e-05
7.4487252e-05
8.0620862e-05
8.7806679e-05
9.6260019e-05
0.00010624563
0.0001180892
0.0001321911
0.00014904365
0.00016925381
0.00019356735
0.00022289923
0.00025836996
0.00030134755
0.00035349245
0.0004168078
0.00049368958
0.00058697256
0.0006999659
0.0008364899
0.0010009486
0.0010408224
0.0010419018
0.0010421111
0.0010416957
0.001040934
0.0010400088
0.0010389396
0.001037615
0.0010360585
0.0010342139
0.0010320078
0.0010293919
0.0010263973
0.0010231623
0.0010199931
0.0010170673
0.0010145431
0.0010122219
0.0010104382
0.0010085496
0.0010074168
0.0010058715
0.0010063278
0.0010049159
0.0010093815
0.0010042604
0.0010082876
4.2963866e-06
2.1025357e-05
2.1331363e-05
3.020881e-05
2.6246273e-05
3.2965349e-05
3.3185722e-05
3.6346718e-05
3.8291783e-05
3.7480208e-05
3.8546626e-05
3.6817865e-05
3.7123514e-05
3.5900688e-05
3.5980017e-05
3.5455224e-05
3.5619885e-05
3.561827e-05
3.5984658e-05
3.6374917e-05
3.6999082e-05
3.7732477e-05
3.8657518e-05
3.9738945e-05
4.101709e-05
4.2495294e-05
4.420566e-05
4.6172578e-05
4.8434935e-05
5.1035777e-05
5.4030748e-05
5.7486967e-05
6.1487603e-05
6.6133955e-05
7.155074e-05
7.789089e-05
8.5342236e-05
9.4135419e-05
0.00010455384
0.00011694541
0.00013173678
0.00014945338
0.00017073985
0.00019638576
0.00022735691
0.00026483225
0.00031024369
0.00036532226
0.00043214754
0.00051319742
0.00061139727
0.00073016542
0.0008734873
0.0010394666
0.00104076
0.0010411104
0.0010407575
0.0010400085
0.0010390896
0.0010380639
0.0010369011
0.0010354938
0.0010337933
0.001031721
0.001029219
0.0010262935
0.0010230757
0.0010198726
0.0010169292
0.0010143562
0.0010120546
0.00101019
0.0010084171
0.0010072916
0.0010057468
0.0010058127
0.0010045648
0.001008515
0.0010040476
0.0010080907
3.6701841e-06
2.0787057e-05
1.9802417e-05
2.7783308e-05
2.450893e-05
2.9892226e-05
3.1014341e-05
3.2522701e-05
3.5141428e-05
3.3295158e-05
3.4700636e-05
3.2616902e-05
3.3053385e-05
3.179018e-05
3.1932724e-05
3.1427924e-05
3.1598808e-05
3.1594732e-05
3.1932189e-05
3.2287009e-05
3.2851887e-05
3.3515261e-05
3.4349193e-05
3.5323992e-05
3.6474041e-05
3.7803601e-05
3.9340474e-05
4.1107005e-05
4.3137491e-05
4.547044e-05
4.8155193e-05
5.1251448e-05
5.483306e-05
5.8989972e-05
6.3832797e-05
6.9497149e-05
7.6149381e-05
8.3993656e-05
9.3280508e-05
0.00010431703
0.00011747898
0.00013322857
0.00015213194
0.00017488128
0.00020232188
0.00023548458
0.00027562102
0.00032424469
0.0003831776
0.00045459881
0.00054109708
0.00064572323
0.00077205715
0.0009243097
0.0010396101
0.0010401163
0.0010398345
0.0010390964
0.0010381716
0.0010371458
0.0010360061
0.0010347185
0.0010331924
0.0010312827
0.0010289223
0.0010260954
0.0010229141
0.0010196958
0.0010167366
0.0010141394
0.0010118455
0.0010099414
0.0010082277
0.0010071224
0.0010056209
0.0010054409
0.0010043155
0.0010077558
0.001003819
0.0010074218
3.2656191e-06
2.0469367e-05
1.8509801e-05
2.5510129e-05
2.2874841e-05
2.7080306e-05
2.8901991e-05
2.9095749e-05
3.2078196e-05
2.9555853e-05
3.1083113e-05
2.8846083e-05
2.9339308e-05
2.814681e-05
2.8305142e-05
2.7851025e-05
2.8014407e-05
2.8021956e-05
2.8331786e-05
2.8662137e-05
2.9176666e-05
2.9783018e-05
3.0540254e-05
3.1425719e-05
3.2467762e-05
3.3672017e-05
3.5062513e-05
3.6660104e-05
3.849535e-05
4.0603125e-05
4.3027662e-05
4.5822719e-05
4.9054662e-05
5.2804369e-05
5.7171187e-05
6.2276934e-05
6.8270995e-05
7.5336554e-05
8.3698485e-05
9.363212e-05
0.0001054735
0.00011963605
0.00013662562
0.00015705996
0.00018169244
0.00021144172
0.00024742298
0.00029098521
0.00034375505
0.00040768332
0.00048509833
0.00057876207
0.00069193468
0.00082846855
0.00099292378
0.0010391234
0.0010389246
0.001038199
0.0010372643
0.0010362308
0.0010350899
0.001033819
0.0010323773
0.0010306641
0.0010284789
0.0010257845
0.0010226659
0.0010194504
0.001016485
0.0010138786
0.0010115941
0.0010096693
0.0010079995
0.0010068186
0.0010054849
0.0010051964
0.0010040969
0.0010069377
0.0010036095
0.0010069447
2.9316371e-06
2.0038809e-05
1.74636e-05
2.3400682e-05
2.1371814e-05
2.4509726e-05
2.6910822e-05
2.5991283e-05
2.913335e-05
2.6161677e-05
2.7680762e-05
2.5480582e-05
2.5960564e-05
2.4882878e-05
2.5032313e-05
2.4643943e-05
2.479493e-05
2.4821458e-05
2.5107349e-05
2.5420708e-05
2.5893273e-05
2.6452794e-05
2.7145616e-05
2.7955917e-05
2.890662e-05
3.0004721e-05
3.1271106e-05
3.2725395e-05
3.439511e-05
3.6312143e-05
3.851653e-05
4.1057132e-05
4.399421e-05
4.7401192e-05
5.1368245e-05
5.6005997e-05
6.1450056e-05
6.7866627e-05
7.5459878e-05
8.4479922e-05
9.5231026e-05
0.00010808778
0.00012350847
0.00014205231
0.00016440063
0.00019138462
0.00022401332
0.00026350809
0.00031134394
0.0003692938
0.00043948135
0.00052443836
0.00062717117
0.00075124478
0.000900903
0.001038123
0.0010380228
0.001037313
0.0010363658
0.0010353209
0.0010341726
0.0010329018
0.0010314794
0.0010298502
0.0010278769
0.0010253531
0.0010223277
0.0010191341
0.0010161737
0.0010135722
0.0010113017
0.0010093737
0.0010077391
0.0010065134
0.0010053155
0.001004942
0.0010039045
0.0010061818
0.0010034124
0.0010062685
2.648625e-06
1.7418716e-05
1.6537829e-05
2.1407047e-05
2.0004922e-05
2.2133217e-05
2.5030313e-05
2.3165741e-05
2.6317258e-05
2.3112897e-05
2.4520097e-05
2.2495934e-05
2.2918111e-05
2.1978864e-05
2.2104908e-05
2.1787784e-05
2.1924617e-05
2.1972942e-05
2.2238751e-05
2.2540052e-05
2.2978077e-05
2.3499186e-05
2.4138454e-05
2.4886033e-05
2.5760373e-05
2.6769563e-05
2.7931978e-05
2.9266198e-05
3.0797313e-05
3.2554765e-05
3.4575183e-05
3.6903426e-05
3.9594789e-05
4.2716652e-05
4.6351752e-05
5.0601602e-05
5.5590747e-05
6.147173e-05
6.8431929e-05
7.6701468e-05
8.6559187e-05
9.8348603e-05
0.00011249014
0.00012949669
0.00014999223
0.00017473867
0.000204661
0.00024087919
0.00028474769
0.0003378969
0.00040228508
0.0004802555
0.00057460315
0.00068865522
0.00082638431
0.00099253178
0.0010371242
0.0010364359
0.0010354742
0.0010344154
0.0010332564
0.0010319802
0.0010305624
0.0010289637
0.0010271066
0.001024796
0.0010218988
0.0010187476
0.0010158044
0.0010132205
0.0010109707
0.0010090534
0.0010074492
0.0010061998
0.0010051087
0.0010046666
0.0010037241
0.0010055435
0.0010032286
0.0010057568
2.3854113e-06
1.6385591e-05
1.5439539e-05
1.952146e-05
1.876527e-05
1.9948846e-05
2.3234863e-05
2.0595387e-05
2.3629875e-05
2.0425867e-05
2.1649755e-05
1.9851384e-05
2.0190396e-05
1.9396086e-05
1.9492073e-05
1.9244135e-05
1.9367215e-05
1.9436675e-05
1.9685927e-05
1.9977969e-05
2.0387456e-05
2.0876509e-05
2.1471011e-05
2.2165867e-05
2.2976058e-05
2.3910405e-05
2.4985335e-05
2.6218516e-05
2.7633053e-05
2.92564e-05
3.1122375e-05
3.3272509e-05
3.5758073e-05
3.8641477e-05
4.1999357e-05
4.5925848e-05
5.0536459e-05
5.5972639e-05
6.2408107e-05
7.0057025e-05
7.9177651e-05
9.0088519e-05
0.00010317963
0.00011892694
0.00013790847
0.00016083079
0.00018855204
0.00022211119
0.00026276646
0.00031203414
0.00037173906
0.00044407126
0.00053165192
0.00063761341
0.00076570269
0.00092041228
0.0010362229
0.0010355649
0.0010345873
0.0010335126
0.0010323406
0.0010310557
0.0010296364
0.0010280505
0.0010262434
0.0010241054
0.0010213774
0.0010182911
0.0010153782
0.001012824
0.0010106031
0.0010087078
0.0010071324
0.0010058798
0.0010048669
0.0010043359
0.001003545
0.0010049769
0.0010030452
0.0010052201
2.1547377e-06
1.5905452e-05
1.438757e-05
1.7754216e-05
1.7621794e-05
1.7921669e-05
2.1465517e-05
1.8289692e-05
2.1042312e-05
1.8039882e-05
1.9043295e-05
1.7496511e-05
1.7745071e-05
1.7092742e-05
1.7159964e-05
1.6976458e-05
1.7089121e-05
1.717855e-05
1.7415587e-05
1.7700932e-05
1.8087747e-05
1.8550594e-05
1.9108378e-05
1.9759546e-05
2.0516476e-05
2.1388509e-05
2.2390541e-05
2.3539428e-05
2.4856715e-05
2.6368189e-05
2.8105442e-05
3.0107193e-05
3.242148e-05
3.510665e-05
3.8234345e-05
4.1892718e-05
4.6189948e-05
5.1258509e-05
5.7260899e-05
6.4398692e-05
7.2913424e-05
8.3103473e-05
9.533428e-05
0.00011005233
0.00012779851
0.00014923483
0.00017516585
0.0002065652
0.00024461364
0.00029073497
0.00034664553
0.0004144096
0.00049650463
0.00059590038
0.00071615639
0.00086155254
0.0010353117
0.0010346972
0.001033703
0.0010326109
0.0010314244
0.0010301288
0.0010287047
0.0010271243
0.0010253439
0.0010232831
0.0010207641
0.0010177676
0.001014898
0.0010123852
0.0010102023
0.0010083389
0.0010067932
0.0010055529
0.0010045995
0.0010039965
0.0010033594
0.0010044332
0.0010028514
0.0010047282
1.9552265e-06
1.5378634e-05
1.3409859e-05
1.6075448e-05
1.6552531e-05
1.6010646e-05
1.96847e-05
1.6222725e-05
1.8580607e-05
1.5906868e-05
1.6682994e-05
1.5391124e-05
1.5555119e-05
1.5034518e-05
1.5078897e-05
1.4953265e-05
1.5060069e-05
1.5167825e-05
1.5396938e-05
1.5677786e-05
1.6047129e-05
1.6488925e-05
1.7016975e-05
1.7632326e-05
1.8345459e-05
1.9165961e-05
2.0107644e-05
2.1186609e-05
2.242317e-05
2.3841761e-05
2.5472147e-05
2.7350761e-05
2.952298e-05
3.2043865e-05
3.4981025e-05
3.8417695e-05
4.2456175e-05
4.722176e-05
5.2867514e-05
5.9585398e-05
6.7603276e-05
7.7203263e-05
8.8730943e-05
0.00010260943
0.00011934947
0.00013957721
0.00016405429
0.00019370151
0.00022963732
0.0002732108
0.00032605014
0.00039011697
0.00046777061
0.00056184609
0.00067574963
0.00081358365
0.00098028208
0.0010338301
0.0010328195
0.001031709
0.0010305069
0.0010291994
0.0010277686
0.0010261902
0.0010244281
0.0010224221
0.0010200593
0.0010171811
0.0010143677
0.0010119076
0.0010097721
0.0010079496
0.0010064369
0.0010052211
0.0010043132
0.0010036728
0.0010031658
0.0010039191
0.0010026534
0.0010042339
1.7820321e-06
1.478192e-05
1.2495596e-05
1.4469527e-05
1.5542906e-05
1.4279389e-05
1.7875915e-05
1.4364655e-05
1.6297201e-05
1.3995636e-05
1.4558685e-05
1.3507305e-05
1.3599928e-05
1.3195918e-05
1.3225168e-05
1.3149882e-05
1.3255376e-05
1.3379654e-05
1.3604622e-05
1.3882874e-05
1.4239325e-05
1.4664626e-05
1.5169102e-05
1.5755551e-05
1.643319e-05
1.7211655e-05
1.8103959e-05
1.9125553e-05
2.0295772e-05
2.1637967e-05
2.3180443e-05
2.4957728e-05
2.7013081e-05
2.9398916e-05
3.2179584e-05
3.5434325e-05
3.9260794e-05
4.3778641e-05
4.9132802e-05
5.550831e-05
6.312184e-05
7.2242414e-05
8.3199463e-05
9.6398052e-05
0.00011232432
0.00013157546
0.00015487906
0.00018311309
0.00021734616
0.00025886696
0.00030923236
0.00037032051
0.0004443941
0.00053417725
0.00064294971
0.00077466646
0.00093409524
0.0010329613
0.0010319353
0.001030806
0.0010295878
0.0010282677
0.0010268293
0.0010252508
0.0010235012
0.0010215328
0.0010192633
0.0010165377
0.0010137926
0.0010113959
0.0010093174
0.0010075438
0.001006069
0.0010048866
0.0010040141
0.0010033648
0.0010029648
0.0010034447
0.0010024546
0.0010037445
1.6314472e-06
1.4090625e-05
1.1644403e-05
1.2925254e-05
1.4568215e-05
1.2710983e-05
1.6032149e-05
1.2689408e-05
1.4201377e-05
1.2280064e-05
1.26572e-05
1.1821116e-05
1.185902e-05
1.1554757e-05
1.1576894e-05
1.1544622e-05
1.1652923e-05
1.1792104e-05
1.1965319e-05
1.223456e-05
1.2575963e-05
1.2983875e-05
1.3465724e-05
1.4025005e-05
1.4669743e-05
1.5409312e-05
1.6255898e-05
1.7224211e-05
1.8332596e-05
1.9603376e-05
2.1063534e-05
2.2745754e-05
2.4691405e-05
2.6950502e-05
2.9584489e-05
3.2669044e-05
3.6297685e-05
4.0585545e-05
4.5974748e-05
5.2074069e-05
5.9362118e-05
6.8097584e-05
7.8596517e-05
9.125067e-05
0.0001065261
0.00012499662
0.00014736335
0.0001744695
0.00020734435
0.00024722828
0.00029562095
0.0003543334
0.00042555025
0.00051190583
0.00061657683
0.00074339796
0.00089700026
0.0010320884
0.0010310492
0.0010299011
0.0010286669
0.0010273343
0.001025888
0.0010243084
0.0010225689
0.0010206299
0.0010184272
0.0010158447
0.0010131791
0.0010108559
0.0010088433
0.0010071259
0.0010056952
0.0010045523
0.001003709
0.0010030719
0.0010027584
0.0010030234
0.0010022673
0.0010033052
1.5003711e-06
1.3292563e-05
1.0847587e-05
1.1433849e-05
1.3591333e-05
1.1286543e-05
1.4172221e-05
1.1173536e-05
1.2296511e-05
1.0737204e-05
1.0962834e-05
1.0311982e-05
1.0312689e-05
1.0091951e-05
1.0065998e-05
1.0052308e-05
1.0156656e-05
1.0303941e-05
1.0525312e-05
1.0801537e-05
1.1141999e-05
1.1544465e-05
1.2015253e-05
1.2558822e-05
1.3182748e-05
1.3896445e-05
1.4711706e-05
1.5642835e-05
1.6707555e-05
1.7927542e-05
1.9328986e-05
2.0943146e-05
2.2810134e-05
2.4978316e-05
2.750707e-05
3.0469475e-05
3.3955997e-05
3.8079461e-05
4.2974829e-05
4.8809269e-05
5.5787302e-05
6.4158849e-05
7.4805034e-05
8.7031053e-05
0.00010179536
0.00011965272
0.00014128472
0.00016750608
0.00019931589
0.00023791647
0.00028476224
0.00034161115
0.00041058592
0.00049424943
0.00059569648
0.00071866623
0.00086768093
0.001031209
0.0010301606
0.0010289943
0.0010277446
0.0010264
0.0010249462
0.0010233656
0.0010216349
0.0010197215
0.0010175754
0.0010151111
0.001012535
0.0010102943
0.0010083558
0.0010067014
0.0010053211
0.0010042218
0.0010034045
0.0010027932
0.0010025463
0.0010026609
0.0010020895
0.0010029306
1.3868456e-06
1.2385355e-05
1.0105449e-05
1.00802e-05
1.2580516e-05
9.9886516e-06
1.2379896e-05
9.7981224e-06
1.0583173e-05
9.3489166e-06
9.459826e-06
8.9634807e-06
8.8726258e-06
8.6984579e-06
8.7153299e-06
8.7475457e-06
8.8714418e-06
9.0393717e-06
9.2702862e-06
9.552894e-06
9.8936824e-06
1.029262e-05
1.0755446e-05
1.1287275e-05
1.1895343e-05
1.2589091e-05
1.3380016e-05
1.4282069e-05
1.5312466e-05
1.6492379e-05
1.7847539e-05
1.9407902e-05
2.1212707e-05
2.330908e-05
2.5754881e-05
2.8621167e-05
3.1995614e-05
3.598946e-05
4.0733953e-05
4.6392367e-05
5.3164428e-05
6.1294644e-05
7.1083815e-05
8.2892931e-05
9.716496e-05
0.00011538751
0.00013645916
0.00016200479
0.0001930015
0.00023062237
0.00027628695
0.00033171227
0.00039897324
0.00048057755
0.00057955688
0.00069957793
0.00084508108
0.0010214355
0.0010292696
0.001028086
0.0010268219
0.0010254663
0.0010240061
0.0010224251
0.0010207029
0.0010188125
0.0010167147
0.0010143472
0.0010118692
0.0010097186
0.0010078612
0.0010062758
0.001004952
0.0010038988
0.0010031063
0.0010025278
0.0010023251
0.0010023459
0.0010019231
0.0010026044
1.2887243e-06
1.1372779e-05
9.4110914e-06
8.8533129e-06
1.1503373e-05
8.8057465e-06
1.0686622e-05
8.550814e-06
9.0594225e-06
8.1023475e-06
8.0541725e-06
7.6458852e-06
7.5991488e-06
7.5024242e-06
7.5446487e-06
7.6136287e-06
7.7554619e-06
7.9407659e-06
8.180929e-06
8.4697766e-06
8.8122078e-06
9.2095487e-06
9.6672799e-06
1.0191017e-05
1.0787702e-05
1.1466794e-05
1.2239586e-05
1.3119737e-05
1.4124023e-05
1.5273204e-05
1.652885e-05
1.8035614e-05
1.9778429e-05
2.1803208e-05
2.4166414e-05
2.6937317e-05
3.0374311e-05
3.4269794e-05
3.8900292e-05
4.4426343e-05
5.1044103e-05
5.8992895e-05
6.8570291e-05
8.0129405e-05
9.4105718e-05
0.00011103136
0.00013154645
0.00015778345
0.00018818503
0.00022508885
0.00026988857
0.00032427102
0.00039027576
0.00047036966
0.00056753795
0.00068539563
0.00082832508
0.001001633
0.001028377
0.0010271775
0.0010259004
0.0010245354
0.0010230702
0.0010214901
0.001019777
0.0010179081
0.0010158524
0.0010135644
0.0010111913
0.0010091369
0.0010073662
0.0010058551
0.0010045932
0.0010035873
0.0010028201
0.0010022775
0.0010020944
0.0010020196
0.0010017642
0.0010023283
1.2048143e-06
1.0268482e-05
8.756592e-06
7.739895e-06
1.0329336e-05
7.7247415e-06
9.1167958e-06
7.4181438e-06
7.7168193e-06
6.864746e-06
6.801242e-06
6.5267663e-06
6.5036311e-06
6.467335e-06
6.5335335e-06
6.6323788e-06
6.7908163e-06
6.9912087e-06
7.2405197e-06
7.5358021e-06
7.8812081e-06
8.2788572e-06
8.7341315e-06
9.2307155e-06
9.8143338e-06
1.0477485e-05
1.1231053e-05
1.2088225e-05
1.3065159e-05
1.4181841e-05
1.5462634e-05
1.6937459e-05
1.8643115e-05
2.0624933e-05
2.2938767e-05
2.5653469e-05
2.8853876e-05
3.2644519e-05
3.7154061e-05
4.2540638e-05
4.8997468e-05
5.7189652e-05
6.6619755e-05
7.8005567e-05
9.1775796e-05
0.00010845829
0.00012868416
0.00015322593
0.00018468042
0.00022109492
0.00026530416
0.00031897419
0.00038412036
0.00046318157
0.00055911148
0.00067549137
0.00081666662
0.00098790584
0.0010274844
0.0010262708
0.0010249825
0.0010236099
0.0010221418
0.0010205646
0.0010188619
0.0010170142
0.0010149965
0.001012775
0.0010105115
0.0010085577
0.0010068777
0.0010054452
0.0010042495
0.0010032921
0.0010025519
0.0010020436
0.0010018656
0.0010017276
0.0010016042
0.0010020856
1.1348065e-06
9.0857012e-06
8.1349888e-06
6.7304933e-06
9.0957309e-06
6.7355597e-06
7.6994315e-06
6.3401063e-06
6.3714367e-06
5.7950497e-06
5.7348091e-06
5.5623773e-06
5.5644864e-06
5.5755973e-06
5.6643127e-06
5.7879862e-06
5.9619224e-06
6.1758913e-06
6.4344407e-06
6.7365853e-06
7.0695468e-06
7.4647579e-06
7.9156121e-06
8.427713e-06
9.0082424e-06
9.6659691e-06
1.0411753e-05
1.125867e-05
1.2222621e-05
1.3323417e-05
1.458517e-05
1.6037518e-05
1.7716955e-05
1.9668467e-05
2.1947533e-05
2.4622555e-05
2.7777805e-05
3.1517071e-05
3.5968116e-05
4.1288296e-05
4.7671051e-05
5.5350409e-05
6.4612704e-05
7.5804547e-05
9.0088674e-05
0.00010662337
0.00012667208
0.00015100521
0.00018054589
0.00021844437
0.00026230024
0.00031554372
0.00038017601
0.00045861954
0.00055380965
0.00066930987
0.00080944808
0.00097947759
0.0010265943
0.0010253685
0.0010240712
0.0010226934
0.0010212247
0.0010196527
0.0010179626
0.0010161371
0.0010141555
0.0010119915
0.0010098405
0.0010079896
0.0010064022
0.0010050513
0.0010039248
0.001003017
0.0010023073
0.0010018292
0.0010016409
0.0010014627
0.0010014336
0.0010018647
1.0795875e-06
7.8354953e-06
7.5270109e-06
5.8142849e-06
7.8362413e-06
5.8093596e-06
6.8969772e-06
5.3103491e-06
5.2602882e-06
4.8756238e-06
4.8305274e-06
4.7347048e-06
4.7626832e-06
4.8118857e-06
4.9216672e-06
5.0666367e-06
5.2552506e-06
5.481855e-06
5.7343821e-06
6.0401963e-06
6.3917007e-06
6.7921411e-06
7.2462259e-06
7.7597677e-06
8.3400128e-06
8.9957073e-06
9.7377089e-06
1.057908e-05
1.1535437e-05
1.2626537e-05
1.3876361e-05
1.5314415e-05
1.6977086e-05
1.8909268e-05
2.1166368e-05
2.3816726e-05
2.6944525e-05
3.0653308e-05
3.5070354e-05
4.0352322e-05
4.6693603e-05
5.4327223e-05
6.3539968e-05
7.4678016e-05
8.8162845e-05
0.00010450671
0.00012539975
0.00014963918
0.00017907123
0.00021480943
0.00026065937
0.00031372054
0.00037813399
0.00045631638
0.00055119586
0.00066633284
0.00080605485
0.00097562093
0.00102571
0.0010244745
0.0010231705
0.0010217899
0.0010203232
0.0010187591
0.0010170844
0.0010152833
0.0010133377
0.0010112264
0.0010091888
0.0010074408
0.0010059464
0.0010046782
0.0010036218
0.0010027646
0.0010020897
0.0010016382
0.0010014283
0.0010012213
0.0010012575
0.0010016626
1.0435085e-06
6.5412734e-06
6.902461e-06
4.9927923e-06
6.611689e-06
5.5031879e-06
5.3841218e-06
4.3886156e-06
4.3447801e-06
4.0859973e-06
4.0657806e-06
4.0296105e-06
4.0827786e-06
4.1635966e-06
4.2930631e-06
4.4567402e-06
4.6459114e-06
4.8811126e-06
5.155887e-06
5.4713882e-06
5.8305885e-06
6.2371676e-06
6.6959916e-06
7.2129992e-06
7.7955077e-06
8.4521679e-06
9.1938578e-06
1.0011538e-05
1.0958589e-05
1.2037644e-05
1.3272383e-05
1.4692019e-05
1.6332666e-05
1.8238967e-05
2.0466117e-05
2.3082266e-05
2.6171427e-05
2.9836892e-05
3.4205292e-05
3.9692323e-05
4.6021097e-05
5.3642642e-05
6.284603e-05
7.397724e-05
8.7457627e-05
0.00010380018
0.00012362718
0.00014900063
0.00017843907
0.00021418955
0.00025759691
0.000313249
0.00037768911
0.00045590907
0.00055083823
0.00066604662
0.00080587669
0.00097561152
0.0010248361
0.0010235933
0.0010222852
0.0010209044
0.0010194424
0.0010178892
0.0010162328
0.0010144591
0.0010125516
0.0010104917
0.0010085664
0.0010069194
0.0010055162
0.0010043297
0.0010033427
0.0010025367
0.0010019002
0.0010014722
0.0010012363
0.0010010122
0.0010010946
0.0010014678
1.028715e-06
6.0132452e-06
6.2664435e-06
5.1186285e-06
6.2927652e-06
4.1536332e-06
4.1667164e-06
3.6209412e-06
3.5789575e-06
3.4221196e-06
3.425035e-06
3.4367056e-06
3.5133017e-06
3.6204497e-06
3.7578295e-06
3.9340997e-06
4.1472105e-06
4.3958255e-06
4.6816224e-06
5.006564e-06
5.3738794e-06
5.7875361e-06
6.252512e-06
6.7747918e-06
7.3504712e-06
8.007074e-06
8.7469564e-06
9.5828704e-06
1.0530444e-05
1.1608902e-05
1.2841967e-05
1.425896e-05
1.5896182e-05
1.7798558e-05
2.0021682e-05
2.2634234e-05
2.572092e-05
2.9385971e-05
3.3757363e-05
3.8991835e-05
4.5280869e-05
5.3244453e-05
6.2471126e-05
7.3634839e-05
8.7157328e-05
0.00010355326
0.00012344713
0.00014759649
0.00017849427
0.00021436869
0.00025792478
0.00031080831
0.00037852462
0.0004570203
0.00055228701
0.00066791508
0.00080827486
0.00097868834
0.0010239783
0.0010227309
0.0010214212
0.0010200428
0.0010185881
0.0010170485
0.0010154135
0.0010136707
0.0010118048
0.0010097983
0.0010079825
0.001006433
0.0010051171
0.0010040089
0.0010030884
0.0010023335
0.0010017367
0.0010013282
0.0010010702
0.0010008434
0.0010009366
0.0010012714
1.0320175e-06
6.1349892e-06
5.585628e-06
5.4842108e-06
5.4448685e-06
3.2975618e-06
3.3615419e-06
2.9756749e-06
2.9459843e-06
2.8680497e-06
2.8950321e-06
2.9445922e-06
3.0430614e-06
3.1618853e-06
3.3225899e-06
3.5161195e-06
3.7431157e-06
4.0037381e-06
4.2999925e-06
4.634372e-06
5.0103106e-06
5.4319556e-06
5.8975853e-06
6.4243239e-06
7.0146134e-06
7.6770229e-06
8.4219683e-06
9.2621795e-06
1.0213288e-05
1.1294571e-05
1.2529872e-05
1.3948723e-05
1.5587727e-05
1.7492235e-05
1.9718394e-05
2.2335587e-05
2.5429371e-05
2.9105024e-05
3.3491728e-05
3.8747577e-05
4.506595e-05
5.2682931e-05
6.2352262e-05
7.3577826e-05
8.7177107e-05
0.00010366734
0.00012367597
0.0001479639
0.00017906908
0.00021514875
0.00025895051
0.00031212868
0.0003802963
0.00045923895
0.00055505137
0.00067135179
0.00081254831
0.0009840132
0.0010231432
0.001021894
0.0010205854
0.0010192118
0.0010177667
0.0010162428
0.0010146316
0.0010129226
0.001011103
0.0010091553
0.001007445
0.0010059882
0.0010047541
0.0010037184
0.0010028596
0.0010021539
0.0010015953
0.0010012028
0.001000933
0.0010007122
0.0010007751
0.001001062
8.3741346e-07
6.5098606e-06
4.8180602e-06
3.4787579e-06
3.4801094e-06
2.721111e-06
2.6679999e-06
2.4559747e-06
2.4329286e-06
2.4134805e-06
2.4639434e-06
2.5430202e-06
2.6522038e-06
2.7970048e-06
2.9746779e-06
3.1827243e-06
3.4220701e-06
3.6938139e-06
4.0002566e-06
4.3442221e-06
4.7292773e-06
5.1548675e-06
5.6338528e-06
6.1688408e-06
6.7668959e-06
7.4365503e-06
8.1881852e-06
9.0345229e-06
9.9912343e-06
1.1077698e-05
1.2317939e-05
1.3741775e-05
1.5386205e-05
1.7297108e-05
1.953129e-05
2.2158941e-05
2.5266617e-05
2.8960811e-05
3.3372094e-05
3.8659745e-05
4.5018652e-05
5.3078379e-05
6.2420878e-05
7.3726244e-05
8.7423442e-05
0.000104033
0.00012418615
0.00014864831
0.00017997512
0.0002163064
0.00026041008
0.00031395135
0.00038261487
0.0004620998
0.00055857466
0.00067569045
0.00081789874
0.00099062899
0.0010223384
0.0010210904
0.0010197857
0.0010184194
0.0010169859
0.0010154791
0.0010138922
0.0010122178
0.0010104471
0.0010085701
0.0010069601
0.0010055905
0.0010044324
0.0010034624
0.0010026584
0.0010019977
0.001001475
0.0010010977
0.0010008151
0.0010005796
0.001000606
0.0010008201
6.5116445e-07
4.884138e-06
3.7414545e-06
2.6263676e-06
2.6794783e-06
2.1902261e-06
2.1356805e-06
2.0174895e-06
2.0199739e-06
2.0422129e-06
2.1165757e-06
2.213534e-06
2.3468144e-06
2.5096271e-06
2.7017792e-06
2.9225371e-06
3.1732211e-06
3.4555329e-06
3.7719947e-06
4.1256241e-06
4.5172596e-06
4.9555818e-06
5.4436855e-06
5.9874454e-06
6.5938807e-06
7.2714817e-06
8.0306074e-06
8.8839902e-06
9.8473671e-06
1.0940258e-05
1.2186914e-05
1.3617483e-05
1.5269416e-05
1.7189164e-05
1.9434227e-05
2.2075616e-05
2.5200884e-05
2.8917806e-05
3.3358825e-05
3.8684174e-05
4.5401982e-05
5.3190841e-05
6.2602653e-05
7.3993037e-05
8.7793846e-05
0.00010452906
0.00012483409
0.00014947896
0.00018100199
0.00021759089
0.00026200416
0.00031591863
0.00038504119
0.00046507706
0.00056222654
0.00068017444
0.00082341703
0.00099744202
0.0010215726
0.0010203289
0.0010190313
0.001017675
0.0010162553
0.0010147668
0.0010132035
0.0010115592
0.0010098268
0.0010080485
0.001006532
0.0010052439
0.0010041561
0.0010032457
0.00100249
0.0010018686
0.0010013771
0.0010010128
0.0010007225
0.001000481
0.0010004639
0.0010005826
5.0457955e-07
2.7190698e-06
2.9485973e-06
2.1184897e-06
2.0539223e-06
1.7584588e-06
1.7190621e-06
1.666818e-06
1.6943731e-06
1.7492197e-06
1.8445605e-06
1.9620347e-06
2.1125478e-06
2.2899973e-06
2.4945372e-06
2.7265662e-06
2.9877249e-06
3.2800691e-06
3.6062397e-06
3.9693291e-06
4.3729728e-06
4.8188603e-06
5.3159932e-06
5.8684628e-06
6.4832421e-06
7.1687858e-06
7.9354434e-06
8.7959766e-06
9.7662074e-06
1.086581e-05
1.2119281e-05
1.3557113e-05
1.5217211e-05
1.7146605e-05
1.9403461e-05
2.2059541e-05
2.5203135e-05
2.9101349e-05
3.3605393e-05
3.9007627e-05
4.5507363e-05
5.3347214e-05
6.2821832e-05
7.4288605e-05
8.8181702e-05
0.00010502804
0.0001254674
0.00015159267
0.0001819201
0.00021872663
0.00026340161
0.00031763249
0.00038708228
0.00046757788
0.00056529343
0.00068394395
0.00082806588
0.0010031995
0.0010208555
0.0010196196
0.0010183323
0.0010169895
0.0010155869
0.0010141196
0.0010125825
0.0010109701
0.0010092762
0.0010075945
0.0010061628
0.0010049487
0.0010039252
0.0010030688
0.0010023571
0.0010017716
0.0010013072
0.0010009535
0.0010006631
0.0010004296
0.0010003805
0.0010004335
4.0457031e-07
2.0785725e-06
2.2372944e-06
1.6607512e-06
1.5888115e-06
1.4186284e-06
1.3981042e-06
1.3927692e-06
1.4437311e-06
1.5243674e-06
1.6380782e-06
1.7743241e-06
1.939015e-06
2.1288035e-06
2.3442781e-06
2.5865046e-06
2.8573326e-06
3.1589973e-06
3.4941876e-06
3.8660114e-06
4.278075e-06
4.734568e-06
5.2404068e-06
5.8014294e-06
6.4246542e-06
7.1186145e-06
7.8937814e-06
8.7630956e-06
9.7426254e-06
1.0852373e-05
1.2117253e-05
1.3568285e-05
1.5244022e-05
1.7192265e-05
1.9472114e-05
2.2156464e-05
2.5334944e-05
2.9117497e-05
3.3638545e-05
3.9062279e-05
4.5588954e-05
5.3462309e-05
6.2978703e-05
7.4495816e-05
8.8448578e-05
0.00010625458
0.00012692702
0.00015200455
0.0001824331
0.00021936015
0.00026417965
0.00032159423
0.00038811558
0.00046885847
0.00056688611
0.00068593473
0.00083056984
0.0010063703
0.001020197
0.0010189722
0.0010176987
0.0010163727
0.0010149903
0.0010135475
0.0010120396
0.001010462
0.0010088094
0.001007212
0.0010058542
0.0010047048
0.0010037372
0.001002928
0.0010022551
0.0010017017
0.0010012608
0.0010009166
0.00100063
0.0010004063
0.0010003319
0.0010003274
3.0789179e-07
1.6036152e-06
1.6658902e-06
1.3083544e-06
1.2366647e-06
1.1494716e-06
1.1494975e-06
1.1788357e-06
1.2508058e-06
1.3518744e-06
1.4807976e-06
1.632496e-06
1.8083007e-06
2.0078954e-06
2.2322239e-06
2.4827267e-06
2.7613721e-06
3.0704818e-06
3.412758e-06
3.7913034e-06
4.2097018e-06
4.6721148e-06
5.1834139e-06
5.7493788e-06
6.3769677e-06
7.074658e-06
7.8528768e-06
8.72454e-06
9.7057169e-06
1.0816441e-05
1.2081696e-05
1.3532607e-05
1.5207864e-05
1.7155436e-05
1.9434664e-05
2.2118807e-05
2.529759e-05
2.9081087e-05
3.3603813e-05
3.9029978e-05
4.5559525e-05
5.3829937e-05
6.3422296e-05
7.5027469e-05
8.9082078e-05
0.00010611585
0.00012677126
0.00015182776
0.00018223144
0.00021912764
0.00026631583
0.00032105825
0.00038749877
0.00046815453
0.00056609283
0.0006850569
0.00082962286
0.0010053853
0.0010196079
0.0010183975
0.0010171407
0.0010158344
0.0010144752
0.0010130593
0.001011583
0.0010100421
0.0010084323
0.001006905
0.0010056087
0.001004513
0.0010035918
0.0010028216
0.0010021813
0.001001655
0.0010012333
0.0010008979
0.0010006183
0.0010004048
0.0010003109
0.0010002629
1.9173653e-07
1.2589957e-06
1.2039625e-06
1.0403093e-06
9.7717391e-07
9.4570574e-07
9.6822603e-07
1.0255571e-06
1.1173423e-06
1.2359501e-06
1.378526e-06
1.5430182e-06
1.7293726e-06
1.9383514e-06
2.1712758e-06
2.4293475e-06
2.7155121e-06
3.0317445e-06
3.3807462e-06
3.7656237e-06
4.1899744e-06
4.657967e-06
5.1744261e-06
5.7450558e-06
6.3767499e-06
7.0779176e-06
7.8589229e-06
8.7326244e-06
9.7150399e-06
1.0826162e-05
1.2090936e-05
1.3540441e-05
1.5213287e-05
1.7157307e-05
1.9505405e-05
2.2201225e-05
2.5393425e-05
2.9192216e-05
3.3732283e-05
3.9177985e-05
4.5729296e-05
5.3629172e-05
6.3172705e-05
7.4718134e-05
8.8698549e-05
0.00010563999
0.00012618036
0.00015244258
0.00018288989
0.00021982518
0.00026463988
0.00031902545
0.00038503983
0.00046518927
0.00056252922
0.00068078993
0.00082453369
0.00099933967
0.0010191002
0.0010179068
0.0010166695
0.0010153854
0.0010140514
0.0010126644
0.001011221
0.0010097175
0.0010081503
0.001006677
0.0010054281
0.0010043737
0.0010034879
0.0010027477
0.0010021324
0.001001627
0.0010012197
0.0010008912
0.0010006186
0.0010004122
0.0010003005
0.0010002181
2.6744314e-07
1.0044652e-06
8.8039672e-07
8.2999668e-07
7.9705493e-07
7.9834504e-07
8.3958935e-07
9.1520919e-07
1.019524e-06
1.1475312e-06
1.296594e-06
1.4658963e-06
1.6558175e-06
1.8673995e-06
2.1021187e-06
2.3617619e-06
2.6484032e-06
2.9644505e-06
3.3126485e-06
3.6961422e-06
4.1185098e-06
4.5838038e-06
5.096477e-06
5.6620898e-06
6.2875774e-06
6.9813134e-06
7.7536013e-06
8.6172073e-06
9.5880262e-06
1.0685892e-05
1.1935549e-05
1.3367821e-05
1.5021004e-05
1.6942554e-05
1.9191045e-05
2.1838343e-05
2.4972693e-05
2.8702403e-05
3.3159849e-05
3.8506401e-05
4.4938352e-05
5.2694166e-05
6.2545355e-05
7.3967589e-05
8.7796256e-05
0.00010455143
0.00012486414
0.00014950019
0.00017938943
0.00021566141
0.00025968917
0.00031314305
0.00037805658
0.00045690785
0.00055271973
0.00066918491
0.00081082139
0.00098315671
0.0010186858
0.0010175122
0.0010162967
0.0010150369
0.00101373
0.0010123732
0.0010109638
0.0010094987
0.0010079748
0.0010065366
0.0010053186
0.0010042911
0.0010034283
0.0010027071
0.0010021079