/*--------------------------------*- C++ -*----------------------------------*\
  =========                 |
  \\      /  F ield         | OpenFOAM: The Open Source CFD Toolbox
   \\    /   O peration     | Website:  https://openfoam.org
    \\  /    A nd           | Version:  6
     \\/     M anipulation  |
\*---------------------------------------------------------------------------*/
FoamFile
{
    version     2.0;
    format      ascii;
    class       volScalarField;
    location    "750";
    object      omega;
}
// * * * * * * * * * * * * * * * * * * * * * * * * * * * * * * * * * * * * * //

dimensions      [0 0 -1 0 0 0 0];

internalField   nonuniform List<scalar> 
16000
(
1429.8598
1494.9321
766.14331
495.72414
333.10743
257.10478
192.46814
159.72476
129.16162
110.52845
93.632381
81.560197
71.00625
62.710081
55.587181
49.715678
44.713996
40.485486
36.846864
33.713444
30.989359
28.613225
26.527743
24.690574
23.065256
21.622828
20.338762
19.192868
18.168114
17.250244
16.427231
15.688911
15.026567
14.43266
13.900633
13.424723
12.999808
12.621286
12.284978
11.987039
11.723919
11.492387
11.289419
11.112176
10.95801
10.824469
10.709264
10.610288
10.52564
10.45363
10.392826
10.342128
10.300983
10.270039
10.248772
10.235182
10.226661
10.220255
10.21384
10.206445
10.19716
10.186169
10.173047
10.157235
10.13837
10.116706
10.093327
10.070608
10.049934
10.032557
10.016976
10.005833
9.9941967
9.9888237
9.9807355
9.9888307
9.9831993
10.024505
9.992958
10.03602
1335.5233
1535.788
768.13047
503.18583
335.06693
260.94599
194.14055
161.86622
130.40114
111.71591
94.423822
82.189535
71.438026
62.99563
55.799393
49.889321
44.852821
40.59881
36.939261
33.789499
31.052422
28.666113
26.572654
24.729214
23.098989
21.652727
20.365682
19.21747
18.190899
17.271562
16.447322
15.707934
15.044633
14.449833
13.916947
13.440197
13.01445
12.635099
12.297974
11.999229
11.7353
11.502962
11.299203
11.121187
10.96627
10.832006
10.716109
10.61647
10.531174
10.45851
10.397002
10.345443
10.302994
10.269464
10.245875
10.230718
10.221444
10.214841
10.20847
10.201419
10.193389
10.183558
10.171554
10.156781
10.138799
10.117668
10.094421
10.071439
10.050629
10.032874
10.017447
10.005679
9.9949464
9.9896402
9.9815647
9.9866448
9.9823161
10.019672
9.9932742
10.036649
1088.2371
1575.3994
768.0173
509.83897
336.35566
264.29515
195.47493
163.67823
131.41801
112.64732
95.02302
82.599252
71.686754
63.162112
55.91927
49.978552
44.916146
40.643374
36.969536
33.808971
31.06403
28.67205
26.574731
24.728721
23.09695
21.649914
20.362688
19.214722
18.188695
17.270078
16.446629
15.708043
15.045518
14.45143
13.919176
13.442966
13.017664
12.638668
12.301816
12.003275
11.739461
11.507164
11.303383
11.125293
10.970252
10.835828
10.719743
10.61989
10.534352
10.461407
10.399554
10.347537
10.30439
10.26959
10.243496
10.226566
10.216387
10.20951
10.203088
10.196049
10.188208
10.17931
10.168664
10.155155
10.138274
10.117911
10.094948
10.071851
10.050923
10.032984
10.017622
10.005553
9.9952897
9.9901522
9.982426
9.9856124
9.9822621
10.015695
9.9934629
10.033522
1114.4138
1609.428
766.34107
515.62634
337.07658
267.07649
196.52718
165.09201
132.21704
113.26564
95.409656
82.751875
71.776474
63.216731
55.942252
49.979009
44.900446
40.616074
36.935086
33.769646
31.022317
28.629489
26.532682
24.688036
23.058289
21.613715
20.329254
19.184229
18.161223
17.245604
16.425045
15.689192
15.029226
14.4375
13.907396
13.433129
13.009566
12.63211
12.29662
11.99929
11.736511
11.505088
11.302043
11.124564
10.970012
10.835976
10.720194
10.620563
10.535174
10.4623
10.400431
10.348281
10.304819
10.269341
10.241676
10.222749
10.211498
10.204278
10.197773
10.190689
10.182852
10.174097
10.164115
10.152137
10.13662
10.11729
10.094818
10.07175
10.05078
10.032779
10.017497
10.005278
9.9953653
9.9896535
9.9832458
9.9856073
9.9824776
10.011269
9.9937817
10.031731
1138.3492
1635.1883
763.47712
520.43532
337.25214
269.20705
197.30106
166.04549
132.78404
113.52124
95.556262
82.758428
71.745676
63.158536
55.867076
49.889813
44.804756
40.516178
36.835214
33.670975
30.926799
28.53802
26.446175
24.606897
22.982794
21.543968
20.265265
19.125914
18.108436
17.198126
16.382584
15.65142
14.995819
14.408116
13.881696
13.410784
12.990261
12.615539
12.282502
11.98739
11.726563
11.496847
11.295289
11.119101
10.965645
10.832539
10.717541
10.618558
10.533698
10.461234
10.399654
10.347661
10.304192
10.268453
10.240044
10.219286
10.206764
10.199122
10.192511
10.185357
10.17748
10.168742
10.158925
10.147611
10.133748
10.115748
10.094007
10.071117
10.050196
10.032244
10.017083
10.004851
9.9952241
9.989177
9.9838396
9.9855546
9.9829202
10.007329
9.9941665
10.028232
1160.0036
1648.783
759.91688
524.12662
336.92036
270.57969
197.80782
166.45631
133.09939
113.43592
95.443338
82.615966
71.591323
62.985147
55.691378
49.709142
44.627379
40.342312
36.668712
33.511954
30.776619
28.396948
26.314631
24.484831
22.87009
21.440383
20.170504
19.03962
18.030233
17.127588
16.31923
15.594743
14.945337
14.363345
13.84216
13.376028
12.959854
12.589065
12.25957
11.967682
11.709725
11.482543
11.283219
11.108996
10.957238
10.825594
10.711852
10.613936
10.529974
10.458249
10.397252
10.345687
10.302471
10.266765
10.238033
10.216219
10.202187
10.194029
10.187293
10.180051
10.172111
10.16335
10.153587
10.142527
10.12958
10.113246
10.092509
10.069959
10.049185
10.031382
10.016396
10.004261
9.9948848
9.9886664
9.9841727
9.985363
9.9834719
10.0043
9.9946129
10.02588
1179.4043
1647.8367
755.8887
526.5087
336.13897
271.06927
198.06322
166.23222
133.12982
113.15158
95.18088
82.325232
71.312836
62.696772
55.414828
49.437024
44.368167
40.094462
36.435568
33.292676
30.571899
28.206451
26.138264
24.322112
22.720487
21.303305
20.045344
18.925748
17.927029
17.03442
16.235424
15.519606
14.878226
14.303625
13.789214
13.329272
12.918742
12.553067
12.228174
11.940495
11.686299
11.462454
11.266082
11.094474
10.944988
10.815315
10.703279
10.606826
10.524112
10.453434
10.393296
10.342405
10.299675
10.264242
10.235498
10.213202
10.197772
10.188982
10.182103
10.17476
10.166742
10.157936
10.148182
10.137242
10.124701
10.109721
10.090311
10.068277
10.047753
10.030197
10.01545
10.003502
9.9943641
9.988133
9.9842574
9.9847589
9.9840416
10.001814
9.9950103
10.023203
1196.6447
1644.13
750.81133
527.40237
334.98868
270.5543
198.08529
165.61286
132.80995
112.67439
94.770224
81.889051
70.91071
62.294576
55.037674
49.07399
44.02734
39.772933
36.136032
33.013433
30.312956
27.966879
25.917468
24.119167
22.534446
21.13323
19.890308
18.784838
17.799377
16.919183
16.131735
15.426575
14.795043
14.229503
13.723391
13.271026
12.867408
12.508004
12.188738
11.906219
11.656645
11.436908
11.244172
11.075798
10.929132
10.801907
10.692002
10.59738
10.51624
10.446898
10.387873
10.337882
10.295846
10.260889
10.232361
10.209895
10.193542
10.183965
10.176928
10.169474
10.161368
10.152503
10.142736
10.131861
10.119549
10.105188
10.087415
10.066094
10.045923
10.028705
10.014271
10.002587
9.9936934
9.9875687
9.9841617
9.9840974
9.9845591
9.9994824
9.9952665
10.020756
1211.8567
1641.5689
744.73399
526.65354
333.55233
268.89537
197.85138
164.72982
132.18909
112.01273
94.212911
81.311229
70.386027
61.780483
54.56082
48.621162
43.605726
39.378538
35.770886
32.675024
30.000591
27.679053
25.653074
23.876857
22.31285
20.931054
19.706303
18.617798
17.648181
16.782774
16.00905
15.316516
14.696629
14.141787
13.645461
13.20202
12.806536
12.454523
12.141846
11.865391
11.621252
11.406346
11.217879
11.053316
10.909974
10.785637
10.67825
10.585795
10.506524
10.438777
10.381093
10.332208
10.291049
10.256742
10.228616
10.206243
10.189538
10.178965
10.171754
10.164184
10.155984
10.147053
10.137259
10.126425
10.114278
10.100366
10.083824
10.06344
10.043722
10.026931
10.012883
10.001533
9.9929097
9.9869838
9.9839311
9.983562
9.9850045
9.9973472
9.9954239
10.018181
1225.208
1639.7885
737.79234
524.0154
331.90588
266.80572
197.2929
163.61261
131.41135
111.17436
93.50965
80.595393
69.739763
61.156273
53.98522
48.07972
43.10428
38.912246
35.341103
32.27847
29.635856
27.344058
25.346195
23.596326
22.056863
20.697956
19.494515
18.425814
17.474608
16.626337
15.868493
15.190518
14.584031
14.04148
13.556378
13.123146
12.736954
12.393405
12.088199
11.818646
11.580697
11.371289
11.187659
11.027432
10.88787
10.76681
10.662287
10.572294
10.495152
10.429228
10.373087
10.325485
10.285365
10.251856
10.224279
10.202162
10.185311
10.173972
10.16657
10.158884
10.150587
10.141587
10.131762
10.120953
10.10893
10.095333
10.079538
10.060357
10.041188
10.024909
10.011321
10.000366
9.9920497
9.9863879
9.9836061
9.9831441
9.9853733
9.9954796
9.9955029
10.015539
1236.8936
1638.3167
730.11194
519.15307
330.07228
264.36987
196.29262
162.27969
130.47744
110.16781
92.661658
79.745453
68.97331
60.423959
53.312171
47.4511
42.524313
38.375307
34.848017
31.825149
29.220175
26.963345
24.998314
23.279102
21.768027
20.435486
19.256497
18.21042
17.280158
16.451327
15.711486
15.049947
14.458552
13.929817
13.457305
13.035489
12.659653
12.325598
12.028631
11.766738
11.535655
11.33235
11.154041
10.998613
10.863231
10.745776
10.644416
10.557131
10.482336
10.418428
10.364
10.317832
10.278886
10.246302
10.219398
10.197675
10.180852
10.168983
10.16137
10.153567
10.145177
10.136108
10.126251
10.115463
10.103545
10.090203
10.07495
10.0569
10.038369
10.022679
10.009621
9.9991174
9.9911518
9.9857979
9.9832305
9.9828311
9.9856709
9.9939766
9.9955961
10.013195
1247.1842
1636.535
721.87322
511.62278
328.04563
261.65017
194.80221
160.75131
129.38792
109.00206
91.670645
78.765313
68.088347
59.585552
52.543115
46.736863
41.867393
37.769184
34.286529
31.309762
28.74848
26.532232
24.605217
22.921483
21.443129
20.140881
18.989888
17.969613
17.063124
16.256283
15.536823
14.893788
14.319341
13.806092
13.347667
12.93858
12.574215
12.250832
11.964092
11.710516
11.486885
11.290219
11.117613
10.967374
10.836513
10.722922
10.624971
10.540588
10.46831
10.40657
10.35399
10.309378
10.271716
10.240159
10.214029
10.192813
10.176172
10.164
10.156147
10.148234
10.139755
10.130624
10.120739
10.109972
10.098151
10.085035
10.070246
10.053135
10.035319
10.020289
10.007823
9.9978204
9.9902522
9.9852331
9.9828476
9.9826058
9.9858867
9.9928758
9.9956861
10.011268
1256.3559
1633.5597
713.26211
503.51761
325.75273
258.71152
193.21072
159.04387
128.14031
107.68339
90.536929
77.657111
67.085655
58.642112
51.666985
45.923035
41.119172
37.081731
33.657614
30.735133
28.224744
26.055315
24.171799
22.528529
21.087217
19.819084
18.699479
17.70799
16.82786
16.045275
15.348353
14.725626
14.169716
13.673357
13.23027
12.834994
12.482873
12.170723
11.894079
11.649561
11.434036
11.24466
11.07901
10.934272
10.808214
10.698661
10.604314
10.522964
10.453324
10.393861
10.343228
10.300262
10.263968
10.233515
10.208236
10.187616
10.171285
10.159042
10.150901
10.142887
10.134327
10.125143
10.11524
10.104499
10.092774
10.079863
10.065474
10.049138
10.032103
10.01779
10.005969
9.9965125
9.9893846
9.9847133
9.9824933
9.9824527
9.9859857
9.9920824
9.9957847
10.009639
1264.706
1628.2368
704.42623
494.95297
323.03117
255.59283
191.50914
157.17524
126.7338
106.21816
89.261935
76.423046
65.939781
57.564775
50.676725
45.010467
40.284778
36.319368
32.963481
30.103708
27.65169
25.535438
23.700922
22.103196
20.703237
19.472998
18.388112
17.428316
16.577
15.820704
15.148411
14.54764
14.011691
13.533461
13.10682
12.726371
12.387126
12.08686
11.820855
11.585855
11.378796
11.196818
11.037867
10.899007
10.778136
10.673428
10.582834
10.504584
10.437644
10.380518
10.33189
10.290629
10.255759
10.226464
10.20209
10.182127
10.166195
10.154054
10.145636
10.137532
10.128904
10.119679
10.109769
10.099067
10.087441
10.074724
10.060687
10.04499
10.028787
10.01524
10.004105
9.9952314
9.9885814
9.9842614
9.9822017
9.9823762
9.9859557
9.9911312
9.9958604
10.008324
1272.539
1618.8446
695.50595
485.96877
319.55287
252.33003
189.68001
155.16061
125.16727
104.61006
87.80101
75.0051
64.639248
56.355986
49.572259
44.000013
39.365964
35.484382
32.206967
29.418575
27.032771
24.976205
23.196108
21.649122
20.294781
19.106109
18.059151
17.133844
16.313658
15.585274
14.937251
14.359973
13.845314
13.386364
12.977205
12.612726
12.288487
12.000596
11.745619
11.520467
11.322198
11.147718
10.995661
10.862807
10.747077
10.646939
10.560348
10.485789
10.421549
10.366769
10.320162
10.280627
10.24721
10.219107
10.195669
10.1764
10.160913
10.148944
10.140363
10.132182
10.1235
10.11425
10.104348
10.093698
10.082183
10.069657
10.05594
10.04078
10.025446
10.012695
10.002273
9.9940136
9.9878707
9.9839042
9.9820098
9.982378
9.9858781
9.9903734
9.9958467
10.0072
1280.1324
1602.8012
686.61452
476.60273
315.89895
248.95349
187.69394
153.00931
123.43986
102.76274
86.121914
73.405541
63.180208
55.014019
48.353716
42.893005
38.365243
34.579909
31.391958
28.683769
26.3725
24.382309
22.661709
21.166795
19.862017
18.718356
17.712401
16.824364
16.037757
15.339756
14.719192
14.1667
13.674385
13.235551
12.844471
12.496206
12.186458
11.911465
11.667925
11.452954
11.263969
11.098161
10.953104
10.826369
10.71573
10.620155
10.537447
10.466376
10.405334
10.352853
10.308233
10.270409
10.238445
10.211544
10.189058
10.170502
10.155494
10.143748
10.135095
10.126854
10.118136
10.108876
10.099002
10.088422
10.077032
10.064706
10.051291
10.036597
10.022154
10.010213
10.000519
9.9928908
9.9872722
9.9836622
9.9819522
9.9824718
9.9857624
9.9897482
9.9956682
10.006181
1287.7162
1576.1429
677.83529
466.82923
312.38735
245.49032
185.51835
150.65126
121.37739
100.65841
84.212073
71.616543
61.55856
53.537397
47.022148
41.691926
37.286655
33.61049
30.524019
27.904601
25.670409
23.753105
22.09844
20.6631
19.412173
18.316929
17.354816
16.506553
15.755425
15.089337
14.497456
13.970719
13.501512
13.083388
12.71085
12.379159
12.084187
11.822296
11.590274
11.385353
11.205399
11.047578
10.909694
10.789389
10.68463
10.593602
10.514604
10.446848
10.38879
10.339025
10.296304
10.26013
10.229586
10.203879
10.182341
10.164506
10.149992
10.138509
10.129856
10.121572
10.112834
10.103585
10.093756
10.083268
10.072023
10.05991
10.046797
10.03253
10.018981
10.007849
9.9988806
9.9918894
9.9867977
9.9835448
9.9820451
9.9826801
9.9856647
9.9892255
9.9953663
10.005248
1295.4448
1532.5368
669.05191
456.55049
308.91367
241.92989
183.81992
147.95878
118.95608
98.274759
82.056742
69.627809
59.769769
51.925341
45.580249
40.40102
36.136671
32.582466
29.600717
27.080638
24.935835
23.098712
21.515849
20.14475
18.95158
17.907578
16.991471
16.185177
15.470949
14.837858
14.275465
13.77507
13.329377
12.932234
12.578407
12.263393
11.983265
11.734541
11.514068
11.318908
11.147828
10.997737
10.866815
10.752672
10.65331
10.567031
10.492274
10.427598
10.372327
10.325091
10.284595
10.249954
10.220757
10.196215
10.175608
10.158484
10.144471
10.133273
10.124674
10.116366
10.107627
10.098407
10.088644
10.078268
10.067191
10.055314
10.042515
10.028663
10.015996
10.005656
9.9973949
9.9910285
9.9864517
9.9835545
9.9822879
9.9830075
9.9856465
9.9888703
9.9950879
10.004312
1303.1241
1475.3909
659.60065
445.57017
305.30975
239.80854
181.41953
144.79525
116.14848
95.570329
79.63454
67.427092
57.80949
50.178942
44.034045
39.027058
34.909356
31.49333
28.63525
26.22532
24.178441
22.428237
20.92243
19.619355
18.487478
17.496816
16.627632
15.862124
15.185664
14.586188
14.05371
13.579929
13.157908
12.781817
12.44671
12.14835
11.883053
11.647572
11.439
11.254705
11.092277
10.949436
10.825184
10.71699
10.622808
10.541037
10.470212
10.409011
10.356245
10.311391
10.272937
10.240068
10.212078
10.188657
10.168947
10.152513
10.138993
10.128093
10.119585
10.111272
10.102552
10.093379
10.0837
10.073455
10.062569
10.050951
10.038493
10.025067
10.01326
10.00368
9.9960921
9.9903189
9.9862301
9.9836823
9.9826531
9.9834212
9.9857418
9.988743
9.9947687
10.003309
1310.6617
1428.9188
649.41527
440.21251
303.65448
235.82647
177.99413
141.11551
112.9009
92.519446
76.928369
65.010025
55.680945
48.30578
42.375672
37.565879
33.623994
30.363064
27.641477
25.351484
23.409992
21.752398
20.328171
19.095039
18.023543
17.087968
16.267441
15.544937
14.906504
14.340673
13.83797
13.390545
12.991856
12.63642
12.319599
12.037427
11.786463
11.563671
11.366325
11.19195
11.038336
10.90345
10.785371
10.68285
10.593592
10.516079
10.448925
10.390873
10.340794
10.298178
10.261616
10.230336
10.203666
10.181305
10.162446
10.14667
10.133626
10.123024
10.114632
10.106334
10.097651
10.088543
10.078964
10.068865
10.058184
10.046848
10.034763
10.021803
10.010821
10.00196
9.9949992
9.9897699
9.9861262
9.9839095
9.9831014
9.9838873
9.9859694
9.9888211
9.9943434
10.002152
1317.6085
1406.6233
641.37911
442.49295
303.64451
230.42607
173.94445
136.81835
109.15415
89.09687
73.930033
62.382168
53.398494
46.301892
40.630179
36.046534
32.301338
29.210665
26.63651
24.474358
22.643918
21.082706
19.739306
18.578791
17.570744
16.690688
15.918815
15.239006
14.638091
14.105265
13.631627
13.209815
12.83371
12.498189
12.19893
11.932246
11.694948
11.484226
11.297536
11.13248
10.986983
10.859185
10.747887
10.650694
10.566054
10.492538
10.428831
10.373738
10.326192
10.285662
10.250866
10.22107
10.195633
10.174259
10.156193
10.141033
10.128439
10.118127
10.109864
10.101603
10.092977
10.08395
10.074484
10.064539
10.054066
10.043013
10.031319
10.018914
10.008713
10.000526
9.9941433
9.9894004
9.9861449
9.9842222
9.9836157
9.9844124
9.9862501
9.9887959
9.9937816
10.000689
1322.4813
1414.3304
634.05484
436.37711
299.13779
224.48754
168.95212
131.9638
104.89313
85.308394
70.654778
59.56731
50.96171
44.206309
38.830154
34.498603
30.967836
28.059414
25.640547
23.611274
21.895344
20.429559
19.170402
18.082651
17.137595
16.312202
15.587871
14.949507
14.384797
13.883661
13.43781
13.040397
12.685735
12.369067
12.086378
11.834246
11.609723
11.410253
11.233612
11.077333
10.939378
10.818813
10.713187
10.620908
10.540519
10.470679
10.410151
10.357789
10.312624
10.274003
10.240824
10.212392
10.188092
10.167618
10.150276
10.135681
10.123503
10.113465
10.105337
10.097134
10.088586
10.079659
10.070322
10.060536
10.050261
10.039454
10.028066
10.016431
10.006956
9.9993944
9.9935423
9.9892353
9.9863147
9.9846394
9.9841961
9.9849874
9.9866254
9.9889432
9.9933549
9.9992135
1323.0213
1424.3022
624.83024
426.05578
293.11893
217.39462
162.95626
126.4031
100.09351
81.148341
67.118771
56.570338
48.427603
42.063863
37.015884
32.957534
29.654371
26.935894
24.675953
22.779988
21.176161
19.809257
18.633089
17.616346
16.732238
15.959322
15.280317
14.681219
14.150627
13.679217
13.259333
12.884658
12.549942
12.25079
11.983476
11.744799
11.53196
11.342477
11.175184
11.027243
10.896811
10.782167
10.681695
10.593861
10.517295
10.450746
10.39309
10.343119
10.300271
10.263352
10.231618
10.204413
10.181158
10.161485
10.144788
10.130697
10.118893
10.109107
10.10111
10.09299
10.084543
10.07574
10.066553
10.056947
10.046888
10.036337
10.025253
10.01437
10.00555
9.9985525
9.9931801
9.9892641
9.9866428
9.9851881
9.984877
9.9856479
9.987152
9.9893637
9.9933107
9.998384
1316.5895
1377.3775
615.87952
414.66661
285.14982
209.02607
155.95514
120.17834
94.833571
76.71098
63.421658
53.490642
45.872034
39.937501
35.239781
31.467204
28.398037
25.872024
23.771008
22.006726
20.512312
19.236466
18.139359
17.189732
16.362814
15.63881
15.001789
14.438858
13.939527
13.495231
13.098942
12.744868
12.428204
12.144928
11.891633
11.665381
11.463595
11.28402
11.124626
10.983556
10.8591
10.749673
10.653813
10.569937
10.496725
10.432955
10.378001
10.330425
10.28932
10.253868
10.223362
10.197186
10.174945
10.155962
10.139821
10.126165
10.114686
10.105121
10.097245
10.08923
10.080907
10.072251
10.063235
10.053831
10.044008
10.033733
10.022972
10.012741
10.004489
9.997981
9.9930221
9.9894415
9.9870789
9.9858167
9.985613
9.986361
9.9877719
9.989906
9.9934625
9.9978465
1300.3549
1324.3813
607.0625
400.97429
275.47568
199.57819
148.11823
113.46685
89.302863
72.174178
59.72178
50.461231
43.399883
37.910362
33.568477
30.081271
27.241773
24.902259
22.95359
21.314481
19.923514
18.73366
17.708448
16.81927
16.043452
15.362864
14.762902
14.231737
13.759739
13.339036
12.96317
12.626821
12.325576
12.055751
11.814237
11.59838
11.40566
11.233977
11.081425
10.946247
10.826806
10.721564
10.62979
10.549491
10.479412
10.418414
10.365455
10.319592
10.279979
10.24577
10.216278
10.191131
10.169578
10.151159
10.135474
10.122175
10.110963
10.101581
10.093808
10.085919
10.07774
10.06925
10.060423
10.051237
10.041665
10.031678
10.021248
10.011558
10.003774
9.9976689
9.9930483
9.9897402
9.9875884
9.9864819
9.9863578
9.9870851
9.9884397
9.9905173
9.9937533
9.9975907
1268.438
1271.404
599.82474
384.76208
263.58658
188.75355
139.29393
106.22931
83.535406
67.594216
56.0778
47.534001
41.039965
35.999178
32.013403
28.810528
26.19267
24.030681
22.225211
20.702418
19.406583
18.295069
17.334807
16.499822
15.769495
15.127312
14.559942
14.056565
13.608355
13.20808
12.849798
12.528594
12.240382
11.981729
11.749718
11.542737
11.357769
11.192863
11.046243
10.916273
10.801427
10.700275
10.611477
10.53378
10.465903
10.406752
10.355317
10.310681
10.272356
10.239263
10.210746
10.186226
10.165192
10.147198
10.131854
10.118822
10.10781
10.098564
10.090868
10.083123
10.075106
10.066796
10.058173
10.049216
10.039902
10.030206
10.020103
10.010826
10.003399
9.9975985
9.9932313
9.9901251
9.9881293
9.9871347
9.9870591
9.9877626
9.9890762
9.9910917
9.9940471
9.9974437
1218.6442
1205.2949
587.963
365.10621
248.31879
176.6415
130.18078
99.384762
78.443874
63.768688
53.155184
45.25394
39.223082
34.536044
30.823266
27.832995
25.389259
23.366326
21.672636
20.240325
19.018266
17.96734
17.057166
16.26382
15.568291
14.955347
14.412681
13.930285
13.499986
13.115083
12.770058
12.460353
12.182171
11.932329
11.708123
11.50713
11.327292
11.166762
11.023857
10.897017
10.784781
10.685772
10.598691
10.522908
10.456681
10.398958
10.348768
10.305227
10.267535
10.234974
10.206901
10.182751
10.162022
10.144276
10.129129
10.116248
10.105343
10.096164
10.088494
10.08091
10.073068
10.064952
10.056543
10.047822
10.038772
10.029371
10.019599
10.010587
10.003388
9.9977805
9.9935695
9.990584
9.9886781
9.9877417
9.9876765
9.9883456
9.9896308
9.9916108
9.9943744
9.9974684
1161.5102
1126.1591
563.09451
342.09744
228.07653
160.55427
118.248
90.553061
71.90036
58.877873
49.466551
42.456568
37.0995
32.900131
29.546942
26.826016
24.586834
22.721241
21.149984
19.813948
18.668297
17.678524
16.817497
16.063926
15.400892
14.814691
14.294181
13.830247
13.415402
13.043475
12.709365
12.408837
12.138354
11.894932
11.676848
11.481068
11.305655
11.148876
11.009156
10.885026
10.775102
10.678072
10.592697
10.517805
10.4523
10.395159
10.345438
10.302276
10.264889
10.232573
10.204699
10.180706
10.160103
10.142455
10.127383
10.114556
10.103688
10.094528
10.086861
10.079443
10.071779
10.063852
10.055646
10.047146
10.038333
10.02919
10.019698
10.01081
10.003716
9.9981906
9.9940387
9.9910891
9.9891977
9.9882481
9.9881311
9.9887259
9.9899511
9.9918285
9.9943232
9.9971235
1124.4308
1168.9325
574.29834
345.44601
228.38742
159.69107
117.16801
89.748392
71.407245
58.622787
49.371656
42.458639
37.152523
32.986746
29.653731
26.943064
24.707078
22.839779
21.26354
19.920459
18.766595
17.768049
16.898512
16.13707
15.46684
14.874143
14.347808
13.878671
13.45919
13.08314
12.745369
12.441595
12.168244
11.922302
11.701208
11.502744
11.324943
11.165957
11.02418
10.898143
10.786458
10.687816
10.600977
10.524767
10.458084
10.399901
10.349265
10.305305
10.267227
10.234316
10.205933
10.181507
10.160535
10.142576
10.12724
10.11419
10.103131
10.093807
10.085996
10.078774
10.071312
10.063595
10.055609
10.047337
10.038762
10.029869
10.02064
10.011627
10.004435
9.9988333
9.9946201
9.9916184
9.9896793
9.9886767
9.9884951
9.9890267
9.9901994
9.9919831
9.9943026
9.996988
1161.2174
1237.4315
595.60115
360.94754
237.94419
166.40729
121.85308
93.159723
73.951104
60.573491
50.896617
43.668548
38.122856
33.772294
30.294528
27.469341
25.142102
23.201715
21.566703
20.176214
18.98403
17.954496
17.059695
16.277429
15.589883
14.982658
14.444029
13.964394
13.535861
13.151921
12.807191
12.497203
12.21823
11.967142
11.741283
11.538369
11.356411
11.193699
11.048587
10.919548
10.805164
10.704097
10.615086
10.536939
10.468537
10.408836
10.356866
10.31174
10.272648
10.238861
10.209722
10.184649
10.163126
10.144699
10.128969
10.115588
10.104254
10.094704
10.08671
10.079714
10.072483
10.065003
10.057259
10.049235
10.040917
10.032288
10.023331
10.01403
10.006472
10.000557
9.9960746
9.9928409
9.9906995
9.9895153
9.9891692
9.9895586
9.9906045
9.9922428
9.9943971
9.9969879
30542.978
33010.647
19001.367
13154.887
9539.0935
6949.4852
5068.1915
3714.7716
2740.1712
2037.5662
1523.9555
1147.3192
866.20495
660.5122
501.14736
382.24675
289.58332
219.83347
168.22048
130.30931
102.159
81.472385
66.185148
54.850495
46.403979
40.010979
35.121666
31.314088
28.290624
25.8226
23.758288
22.003781
20.491974
19.175509
18.020283
17.001304
16.099723
15.300889
14.593065
13.966591
13.413229
12.925777
12.497874
12.123791
11.79827
11.516443
11.273766
11.065876
10.889149
10.740856
10.619016
10.521
10.442338
10.380147
10.332406
10.297016
10.271991
10.254703
10.241646
10.230983
10.219896
10.20932
10.195313
10.182063
10.161037
10.143871
10.113629
10.095227
10.05246
10.036341
10.005521
10.00004
9.9734773
9.980141
9.9502502
9.9802561
9.9497766
10.002158
9.9621873
10.001153
33390.956
28309.364
21549.704
16321.781
12102.31
8813.765
6383.331
4625.0456
3367.2988
2467.2543
1818.7773
1347.1667
1002.0991
747.81567
559.8681
420.54928
317.15932
240.61143
183.91183
141.99053
110.83733
87.845398
70.854553
58.289455
48.963743
41.925263
36.563047
32.41359
29.147175
26.508424
24.313876
22.457468
20.865343
19.484453
18.276799
17.214613
16.277092
15.44817
14.715057
14.067292
13.495994
12.993448
12.552874
12.168194
11.833852
11.544732
11.29609
11.083294
10.90247
10.750699
10.626018
10.525346
10.444226
10.380069
10.330799
10.294626
10.26962
10.252575
10.239855
10.229601
10.218856
10.208664
10.194921
10.182034
10.161163
10.144271
10.114063
10.095834
10.053544
10.037664
10.006456
10.001253
9.9743624
9.9812686
9.9513709
9.981062
9.9510918
10.003154
9.9633872
10.002601
36721.969
20124.78
12975.214
8344.726
4655.6998
2265.0781
1036.8015
497.24906
279.93742
188.713
146.30043
120.97129
104.29908
91.030054
80.690256
72.128803
64.644338
58.729935
53.173225
48.728686
44.471316
40.994988
37.75272
34.940443
32.413801
30.051211
27.962537
26.085492
24.378363
22.811903
21.38263
20.093385
18.932728
17.887675
16.947328
16.102019
15.343257
14.663431
14.055764
13.514183
13.033031
12.607132
12.23176
11.902475
11.61509
11.365634
11.150352
10.965363
10.807783
10.675641
10.567767
10.480053
10.408816
10.352602
10.309741
10.27954
10.25918
10.245377
10.234496
10.225463
10.215053
10.205436
10.191364
10.179017
10.157218
10.141272
10.109721
10.093233
10.049534
10.03693
10.004263
10.00172
9.973223
9.9824215
9.9507637
9.9828044
9.9510946
10.005021
9.9637462
10.004138
33961.753
23470.699
13804.123
7754.5386
3592.0266
1414.9994
558.98085
280.55302
192.65198
152.62532
129.95851
111.52518
98.362687
86.525995
77.354894
69.492069
62.439494
57.049748
51.649213
47.523375
43.332857
40.09828
36.852219
34.233397
31.678306
29.472914
27.389143
25.594495
23.9002
22.373943
20.997929
19.757308
18.639802
17.633168
16.726791
15.911405
15.178954
14.522222
13.934799
13.410908
12.94518
12.532715
12.169012
11.849837
11.571172
11.329205
11.120323
10.940754
10.7878
10.659638
10.554892
10.468982
10.399155
10.344131
10.302856
10.274284
10.255175
10.24228
10.232018
10.223431
10.213316
10.203931
10.190017
10.177781
10.156071
10.14017
10.108744
10.092424
10.049462
10.037652
10.004564
10.002902
9.9738201
9.9838216
9.9516642
9.9843242
9.9520974
10.006806
9.9647281
10.005761
35963.913
23072.846
13355.837
7272.3662
3260.3732
1237.3503
490.78382
258.80305
184.32479
147.30587
125.79087
107.82975
95.243649
83.815258
75.263471
67.46962
61.095486
55.385606
50.546706
46.221023
42.462816
39.068423
36.091119
33.389963
30.982779
28.801157
26.838786
25.044458
23.422694
21.95728
20.634883
19.442075
18.366225
17.395938
16.521295
15.733655
15.025511
14.39009
13.821359
13.313841
12.862435
12.46249
12.109704
11.80001
11.529548
11.294645
11.091815
10.917378
10.768818
10.644441
10.542466
10.458186
10.38968
10.335921
10.296528
10.269491
10.251561
10.239477
10.229808
10.221576
10.211775
10.20252
10.188831
10.176568
10.155081
10.139021
10.107947
10.091422
10.049317
10.037498
10.004841
10.002646
9.9744788
9.984134
9.9525485
9.9851011
9.9530736
10.008211
9.9656897
10.007206
36522.722
22749.23
12969.884
6716.1119
2737.6557
954.55963
389.50076
227.45972
173.95632
141.22931
121.76757
104.25233
92.342226
81.141542
73.0421
65.445472
59.344479
53.804799
49.165106
44.987163
41.359826
38.114354
35.23355
32.64255
30.315496
28.21246
26.30913
24.581031
23.01364
21.596491
20.317748
19.163707
18.122268
17.182525
16.335013
15.571479
14.884745
14.268323
13.716421
13.223761
12.785444
12.397008
12.054304
11.753406
11.490581
11.262272
11.065104
10.895479
10.75105
10.630239
10.530574
10.447763
10.380489
10.328546
10.290937
10.26531
10.248446
10.237087
10.22793
10.220004
10.210457
10.201304
10.187792
10.175489
10.154183
10.137967
10.107202
10.090607
10.049347
10.037811
10.005288
10.003254
9.9751641
9.9850592
9.9534685
9.9860966
9.9540796
10.009702
9.9666643
10.008668
37459.105
22490.319
12536.51
6155.145
2378.4217
799.11792
342.96086
214.587
168.65523
137.9292
119.02397
101.80554
90.210616
79.13366
71.297001
63.830082
57.946327
52.54216
48.055223
43.987234
40.473447
37.31188
34.517509
31.997226
29.739234
27.697027
25.850921
24.170898
22.648738
21.273221
20.032063
18.911802
17.900623
16.987943
16.164609
15.422661
14.755192
14.155944
13.619319
13.140202
12.713873
12.336025
12.002632
11.709885
11.454158
11.231997
11.040119
10.874999
10.734447
10.616988
10.519111
10.437643
10.371983
10.322026
10.286063
10.261711
10.245799
10.235071
10.226355
10.218671
10.209335
10.200238
10.186879
10.174499
10.153368
10.136962
10.106517
10.08985
10.049346
10.037763
10.005593
10.003422
9.9758351
9.9857189
9.9543936
9.9869704
9.9550884
10.011145
9.9676392
10.010101
38216.218
22134.313
12046.038
5601.2182
2018.2883
660.3118
305.80747