/*--------------------------------*- C++ -*----------------------------------*\
  =========                 |
  \\      /  F ield         | OpenFOAM: The Open Source CFD Toolbox
   \\    /   O peration     | Website:  https://openfoam.org
    \\  /    A nd           | Version:  6
     \\/     M anipulation  |
\*---------------------------------------------------------------------------*/
FoamFile
{
    version     2.0;
    format      ascii;
    class       volScalarField;
    location    "750";
    object      p;
}
// * * * * * * * * * * * * * * * * * * * * * * * * * * * * * * * * * * * * * //

dimensions      [1 -1 -2 0 0 0 0];

internalField   nonuniform List<scalar> 
16000
(
99098.959
99156.991
99160.971
99216.852
99228.991
99279.982
99301.271
99347.896
99376.975
99421.026
99455.971
99499.195
99538.362
99581.974
99624.198
99668.852
99713.356
99759.273
99805.508
99852.618
99900.128
99948.174
99996.513
100045.11
100093.79
100142.46
100190.95
100239.14
100286.86
100333.96
100380.29
100425.68
100469.97
100513.01
100554.64
100594.71
100633.08
100669.62
100704.21
100736.74
100767.11
100795.23
100821.04
100844.49
100865.52
100884.13
100900.3
100914.02
100925.33
100934.23
100940.78
100945.01
100946.99
100946.77
100944.43
100940.03
100933.64
100925.36
100915.26
100903.41
100889.89
100874.82
100858.18
100840.21
100820.65
100800.21
100777.66
100755.5
100729.16
100707.12
100673.92
100657.37
100608.79
100614.02
100521.63
100589.33
100386.71
100616.28
100188.41
100671.43
99150.649
99212.837
99216.784
99277.147
99289.62
99344.751
99367.091
99417.337
99448.159
99495.398
99532.577
99578.717
99620.386
99666.76
99711.581
99758.888
99805.961
99854.409
99903.093
99952.561
100002.32
100052.48
100102.78
100153.16
100203.44
100253.49
100303.13
100352.21
100400.56
100448
100494.36
100539.48
100583.18
100625.31
100665.7
100704.22
100740.72
100775.09
100807.23
100837.03
100864.42
100889.35
100911.77
100931.66
100949.01
100963.83
100976.13
100985.96
100993.37
100998.4
101001.12
101001.61
100999.94
100996.19
100990.46
100982.83
100973.38
100962.2
100949.38
100934.99
100919.12
100901.85
100883.22
100863.36
100842.21
100820.05
100796.47
100772.4
100746.08
100720.98
100690.35
100667.19
100626.41
100616.59
100545.56
100581.76
100419.81
100597.59
100220.17
100657.39
99223.638
99290.899
99294.867
99360.083
99373.303
99432.65
99456.562
99510.415
99543.462
99593.889
99633.678
99682.772
99727.207
99776.402
99823.986
99873.995
99923.72
99974.707
100025.84
100077.61
100129.53
100181.67
100233.76
100285.71
100337.31
100388.41
100438.81
100488.35
100536.83
100584.07
100629.88
100674.09
100716.51
100757
100795.4
100831.56
100865.38
100896.75
100925.57
100951.79
100975.36
100996.25
101014.45
101029.98
101042.85
101053.12
101060.84
101066.08
101068.92
101069.45
101067.76
101063.94
101058.11
101050.36
101040.8
101029.52
101016.61
101002.18
100986.31
100969.09
100950.58
100930.87
100910.01
100888.07
100865.08
100841.14
100816.13
100790.4
100763.27
100736.14
100706.09
100679.06
100642.51
100622.7
100565.13
100580.16
100447.04
100583.47
100247.68
100645.88
99319.381
99392.109
99396.128
99466.732
99480.804
99544.843
99570.547
99628.393
99663.965
99717.902
99760.622
99812.954
99860.45
99912.712
99963.299
100016.2
100068.74
100122.39
100176.05
100230.15
100284.21
100338.24
100391.97
100445.26
100497.9
100549.7
100600.46
100649.96
100698.02
100744.42
100788.98
100831.52
100871.85
100909.83
100945.32
100978.19
101008.35
101035.71
101060.21
101081.84
101100.57
101116.41
101129.41
101139.61
101147.07
101151.89
101154.16
101153.99
101151.5
101146.79
101140
101131.25
101120.66
101108.35
101094.44
101079.05
101062.27
101044.2
101024.93
101004.56
100983.14
100960.75
100937.44
100913.27
100888.26
100862.48
100835.88
100808.6
100780.36
100751.7
100721.41
100692.02
100657.58
100631.77
100582.37
100582.26
100471.55
100575.41
100275.56
100646.26
99437.438
99516.372
99520.649
99597.386
99612.639
99681.924
99709.859
99772.097
99810.658
99868.424
99914.487
99970.329
100021.21
100076.76
100130.58
100186.53
100242.01
100298.37
100354.57
100410.94
100467
100522.73
100577.83
100632.14
100685.39
100737.4
100787.92
100836.74
100883.64
100928.42
100970.86
101010.81
101048.08
101082.54
101114.07
101142.57
101167.97
101190.23
101209.33
101225.29
101238.13
101247.92
101254.73
101258.67
101259.85
101258.39
101254.43
101248.13
101239.62
101229.07
101216.61
101202.41
101186.6
101169.31
101150.68
101130.83
101109.86
101087.88
101064.97
101041.22
101016.7
100991.46
100965.56
100939.03
100911.9
100884.2
100855.91
100827.07
100797.58
100767.59
100736.62
100705.63
100671.98
100642.21
100598.46
100586.29
100493.91
100571.81
100301.94
100649.35
99580.761
99666.934
99671.52
99754.998
99771.57
99846.507
99876.99
99943.894
99985.815
100047.64
100097.38
100156.95
100211.48
100270.49
100327.72
100386.82
100445.31
100504.39
100563.05
100621.56
100679.43
100736.57
100792.66
100847.5
100900.83
100952.39
101001.95
101049.26
101094.1
101136.26
101175.55
101211.79
101244.85
101274.6
101300.95
101323.85
101343.27
101359.22
101371.73
101380.85
101386.69
101389.36
101388.97
101385.7
101379.69
101371.13
101360.2
101347.06
101331.92
101314.95
101296.33
101276.22
101254.77
101232.15
101208.48
101183.89
101158.5
101132.39
101105.66
101078.39
101050.62
101022.42
100993.83
100964.87
100935.55
100905.9
100875.89
100845.52
100814.74
100783.56
100751.77
100719.64
100686.16
100653.88
100613.97
100592.63
100515.31
100571.55
100328.42
100656.11
99750.457
99844.887
99849.599
99940.517
99958.617
100039.64
100073.09
100144.97
100190.71
100256.86
100310.69
100374.22
100432.71
100495.38
100556.18
100618.53
100680.05
100741.8
100802.8
100863.21
100922.55
100980.67
101037.22
101091.96
101144.6
101194.86
101242.5
101287.25
101328.9
101367.24
101402.09
101433.32
101460.8
101484.46
101504.26
101520.19
101532.28
101540.6
101545.24
101546.33
101544.03
101538.5
101529.93
101518.54
101504.52
101488.11
101469.52
101448.97
101426.68
101402.83
101377.64
101351.28
101323.92
101295.72
101266.8
101237.31
101207.34
101177
101146.35
101115.47
101084.41
101053.21
101021.9
100990.49
100958.98
100927.38
100895.66
100863.8
100831.74
100799.46
100766.82
100733.83
100700.19
100666.41
100629.22
100601.27
100536.33
100573.33
100355.06
100666.45
99946.324
100050.11
100055.08
100154.37
100174.45
100262.18
100299.21
100376.53
100426.71
100497.58
100556
100623.82
100686.61
100753.15
100817.71
100883.36
100947.9
101012.18
101075.27
101137.22
101197.54
101256.02
101312.28
101366.04
101416.98
101464.83
101509.32
101550.19
101587.24
101620.29
101649.18
101673.83
101694.16
101710.16
101721.85
101729.3
101732.6
101731.9
101727.37
101719.2
101707.62
101692.86
101675.17
101654.81
101632.05
101607.14
101580.34
101551.89
101522.03
101490.98
101458.94
101426.11
101392.66
101358.74
101324.48
101290.02
101255.43
101220.82
101186.25
101151.78
101117.44
101083.27
101049.27
101015.45
100981.8
100948.31
100914.94
100881.65
100848.39
100815.1
100781.67
100748.05
100714.12
100679.57
100644.14
100611.63
100557.25
100577.1
100383.34
100679.23
100169.4
100283.96
100289.39
100398.12
100420.74
100515.89
100557.25
100640.5
100695.82
100771.83
100835.38
100907.83
100975.25
101045.86
101114.28
101183.21
101250.61
101317.12
101381.86
101444.77
101505.33
101563.27
101618.19
101669.78
101717.72
101761.7
101801.47
101836.81
101867.53
101893.51
101914.64
101930.9
101942.29
101948.88
101950.77
101948.11
101941.1
101929.96
101914.94
101896.32
101874.39
101849.45
101821.81
101791.78
101759.66
101725.74
101690.31
101653.64
101615.96
101577.51
101538.51
101499.13
101459.55
101419.9
101380.33
101340.93
101301.8
101263
101224.59
101186.61
101149.09
101112.04
101075.45
101039.32
101003.63
100968.35
100933.43
100898.83
100864.47
100830.29
100796.19
100762.1
100727.9
100693.11
100658.78
100623.4
100578
100582.72
100413.32
100693.18
100421.49
100548.48
100554.59
100673.96
100699.78
100803.07
100849.61
100939.33
101000.54
101082.13
101151.33
101228.71
101301.04
101375.8
101448.05
101520.07
101589.98
101658.21
101723.89
101786.86
101846.58
101902.72
101954.87
102002.69
102045.87
102084.12
102117.22
102144.99
102167.3
102184.1
102195.39
102201.21
102201.67
102196.95
102187.25
102172.83
102153.98
102131.01
102104.26
102074.1
102040.87
102004.95
101966.69
101926.45
101884.54
101841.3
101797.01
101751.95
101706.38
101660.52
101614.58
101568.72
101523.11
101477.87
101433.12
101388.96
101345.44
101302.62
101260.55
101219.24
101178.7
101138.94
101099.93
101061.65
101024.07
100987.15
100950.83
100915.04
100879.73
100844.81
100810.18
100775.78
100741.4
100706.79
100673.13
100636.36
100598.39
100590.14
100444.67
100707.13
100704.78
100846.03
100853.04
100984.29
101014.11
101126.3
101178.99
101275.73
101343.65
101431.25
101506.61
101589.19
101666.57
101745.45
101821.31
101895.98
101967.75
102036.81
102102.33
102164.02
102221.36
102273.94
102321.38
102363.34
102399.52
102429.7
102453.7
102471.45
102482.91
102488.13
102487.21
102480.35
102467.78
102449.77
102426.68
102398.86
102366.71
102330.65
102291.1
102248.49
102203.23
102155.75
102106.43
102055.65
102003.76
101951.08
101897.92
101844.55
101791.2
101738.08
101685.39
101633.28
101581.89
101531.32
101481.67
101433.01
101385.37
101338.81
101293.33
101248.94
101205.63
101163.39
101122.18
101081.96
101042.69
101004.32
100966.78
100930
100893.9
100858.41
100823.42
100788.87
100754.5
100720.35
100687.09
100650.12
100618.07
100598.95
100476.21
100720
101020.53
101178.44
101186.86
101331.53
101366.46
101488.45
101548.5
101652.9
101728.4
101822.47
101904.43
101992.35
102074.75
102157.44
102236.35
102312.86
102385.38
102453.89
102517.59
102576.09
102628.87
102675.53
102715.69
102749.06
102775.42
102794.64
102806.67
102811.53
102809.34
102800.3
102784.66
102762.77
102735.01
102701.8
102663.61
102620.92
102574.23
102524.05
102470.87
102415.17
102357.43
102298.08
102237.54
102176.19
102114.38
102052.43
101990.61
101929.19
101868.37
101808.35
101749.29
101691.31
101634.53
101579.02
101524.85
101472.06
101420.68
101370.72
101322.17
101275.02
101229.25
101184.81
101141.67
101099.77
101059.06
101019.47
100980.92
100943.36
100906.68
100870.81
100835.66
100801.14
100766.97
100733.49
100700.55
100664.35
100636.78
100608.62
100507.55
100732.38
101372.38
101549.58
101559.97
101719.64
101760.96
101893.61
101962.28
102074.93
102158.8
102259.68
102348.44
102441.57
102528.58
102614.38
102695.26
102772.2
102843.7
102909.58
102969.04
103021.66
103066.93
103104.5
103134.07
103155.46
103168.56
103173.41
103170.11
103158.88
103140.01
103113.9
103080.98
103041.77
102996.8
102946.65
102891.91
102833.18
102771.03
102706.05
102638.78
102569.74
102499.42
102428.25
102356.66
102285.01
102213.63
102142.81
102072.8
102003.82
101936.06
101869.67
101804.76
101741.44
101679.78
101619.83
101561.63
101505.19
101450.5
101397.57
101346.36
101296.83
101248.95
101202.66
101157.9
101114.62
101072.74
101032.19
100992.9
100954.78
100917.75
100881.72
100846.61
100812.3
100778.59
100745.94
100713.37
100678.77
100654.65
100619.17
100538.21
100744.02
101763.75
101963.29
101976.43
102152.85
102202.12
102346.27
102424.94
102546.35
102639.22
102747.04
102842.5
102940.28
103030.95
103118.45
103199.48
103274.59
103342.41
103402.6
103454.43
103497.49
103531.36
103555.8
103570.67
103575.96
103571.79
103558.38
103536.1
103505.38
103466.76
103420.82
103368.23
103309.65
103245.8
103177.38
103105.08
103029.58
102951.53
102871.54
102790.17
102707.95
102625.36
102542.81
102460.69
102379.33
102299.02
102220.01
102142.5
102066.68
101992.67
101920.58
101850.5
101782.49
101716.59
101652.8
101591.13
101531.58
101474.1
101418.68
101365.25
101313.78
101264.19
101216.42
101170.4
101126.06
101083.32
101042.11
101002.33
100963.92
100926.77
100890.8
100855.95
100822.05
100789.05
100757.33
100725.33
100693.03
100671.3
100630.46
100567.99
100754.48
102198.5
102424.03
102441.02
102635.99
102695.06
102851.51
102941.82
103072.54
103174.68
103289.1
103390.52
103491.65
103584.11
103670.93
103749.15
103819.01
103879.23
103929.45
103969.05
103997.72
104015.25
104021.61
104016.9
104001.39
103975.49
103939.73
103894.73
103841.23
103779.99
103711.83
103637.61
103558.16
103474.32
103386.88
103296.61
103204.23
103110.41
103015.74
102920.79
102826.03
102731.91
102638.79
102547.01
102456.84
102368.52
102282.23
102198.12
102116.32
102036.91
101959.96
101885.5
101813.54
101744.09
101677.14
101612.64
101550.57
101490.86
101433.47
101378.32
101325.35
101274.48
101225.63
101178.72
101133.68
101090.4
101048.82
101008.85
100970.4
100933.38
100897.73
100863.35
100830.08
100798.01
100767.29
100736.16
100706.55
100686.13
100642.17
100596.68
100762.82
102681.9
102937.61
102959.83
103174.89
103245.82
103415.2
103518.61
103659.11
103770.32
103890.04
103995.67
104097.72
104188.81
104271.15
104342.12
104401.74
104448.94
104483.43
104504.82
104513.09
104508.32
104490.84
104461.11
104419.78
104367.62
104305.51
104234.39
104155.27
104069.16
103977.09
103880.04
103778.99
103674.84
103568.42
103460.52
103351.85
103243.02
103134.61
103027.1
102920.91
102816.42
102713.91
102613.65
102515.84
102420.64
102328.17
102238.52
102151.76
102067.92
101987.01
101909.02
101833.93
101761.7
101692.29
101625.64
101561.67
101500.31
101441.49
101385.13
101331.14
101279.42
101229.9
101182.49
101137.09
101093.61
101051.98
101012.09
100973.88
100937.24
100902.13
100868.43
100836.02
100805.08
100775.44
100745.54
100718.84
100698.98
100654.12
100623.91
100768.57
103219.57
103510.54
103540.54
103777.73
103864.1
104047.45
104163.04
104310.34
104429.95
104553
104659.68
104758.62
104843.36
104915.48
104972.77
105015.22
105042.13
105053.49
105049.35
105030.11
104996.33
104948.82
104888.52
104816.54
104734.03
104642.24
104542.41
104435.79
104323.58
104206.94
104086.93
103964.56
103840.73
103716.26
103591.87
103468.2
103345.79
103225.11
103106.57
102990.48
102877.11
102766.69
102659.37
102555.28
102454.49
102357.08
102263.06
102172.43
102085.18
102001.28
101920.66
101843.28
101769.06
101697.92
101629.78
101564.54
101502.12
101442.43
101385.35
101330.81
101278.69
101228.91
101181.36
101135.96
101092.61
101051.22
101011.71
100973.99
100937.99
100903.63
100870.82
100839.48
100809.82
100781.33
100753.05
100729.26
100709.21
100665.42
100648.94
100771.75
103818.74
104151.35
104193.62
104453.67
104557.38
104751.95
104880.37
105034.98
105158.59
105280.55
105382.47
105471.49
105542.12
105595.54
105630.18
105646.28
105643.74
105623.1
105585.06
105530.63
105461.01
105377.58
105281.83
105175.27
105059.48
104935.98
104806.23
104671.63
104533.46
104392.9
104251.01
104108.72
103966.87
103826.15
103687.18
103550.48
103416.46
103285.47
103157.79
103033.63
102913.16
102796.48
102683.68
102574.79
102469.82
102368.75
102271.57
102178.2
102088.59
102002.66
101920.32
101841.48
101766.03
101693.88
101624.92
101559.03
101496.12
101436.07
101378.78
101324.14
101272.04
101222.38
101175.07
101130
101087.08
101046.23
101007.36
100970.39
100935.25
100901.86
100870.12
100840.05
100811.75
100784.53
100758.23
100737.04
100716.24
100675.44
100670.59
100772.01
104505.26
104882.12
104937.92
105216.93
105334.06
105537.59
105676.91
105834.39
105956.8
106069.8
106157.88
106226.63
106272.03
106295.26
106295.73
106274.32
106231.82
106169.61
106089.2
105992.39
105881.06
105757.15
105622.64
105479.4
105329.26
105173.89
105014.84
104853.49
104691.08
104528.68
104367.23
104207.5
104050.17
103895.78
103744.78
103597.52
103454.27
103315.24
103180.57
103050.36
102924.66
102803.5
102686.84
102574.67
102466.91
102363.5
102264.34
102169.33
102078.38
101991.36
101908.16
101828.65
101752.72
101680.24
101611.08
101545.13
101482.26
101422.35
101365.3
101310.99
101259.3
101210.14
101163.39
101118.97
101076.78
101036.74
100998.75
100962.75
100928.67
100896.43
100865.94
100837.27
100810.41
100784.62
100760.44
100741.31
100719.95
100683.94
100687.88
100769.01
105278.4
105697.98
105763.23
106055.98
106201.73
106424.64
106562.65
106711.12
106820.14
106910.63
106970.6
107004.46
107009.96
106988.82
106941.8
106870.82
106777.83
106665.21
106535.39
106390.92
106234.26
106067.81
105893.81
105714.31
105531.17
105346.01
105160.27
104975.17
104791.75
104610.86
104433.22
104259.4
104089.83
103924.88
103764.79
103609.74
103459.85
103315.19
103175.77
103041.57
102912.55
102788.63
102669.73
102555.74
102446.54
102342
102242
102146.4
102055.05
101967.82
101884.56
101805.12
101729.38
101657.19
101588.41
101522.92
101460.59
101401.28
101344.89
101291.29
101240.37
101192.03
101146.16
101102.67
101061.47
101022.46
100985.58
100950.75
100917.91
100886.98
100857.89
100830.74
100805.39
100781.18
100759.13
100741.85
100721.16
100689.84
100699.46
100762.29
106139.04
106602.16
106697.37
107027.95
107176.94
107384.8
107519.71
107644.65
107725.29
107776.32
107790.33
107771.68
107720.47
107639.76
107532.05
107400.61
107248.68
107079.59
106896.55
106702.62
106500.57
106292.93
106081.93
105869.47
105657.21
105446.53
105238.54
105034.18
104834.18
104639.09
104449.36
104265.3
104087.12
103914.95
103748.87
103588.89
103434.97
103287.06
103145.06
103008.85
102878.31
102753.29
102633.63
102519.19
102409.78
102305.26
102205.45
102110.18
102019.3
101932.63
101850.03
101771.33
101696.39
101625.04
101557.16
101492.61
101431.24
101372.93
101317.57
101265.02
101215.19
101167.96
101123.23
101080.92
101040.92
101003.16
100967.57
100934.07
100902.61
100873.11
100845.54
100819.99
100796.21
100773.69
100753.85
100738.42
100718.57
100690.7
100705.15
100752.98
107130.73
107650.12
107770.19
108092.29
108246.33
108430.77
108536.57
108615.58
108642.06
108629.39
108574.35
108482.81
108357.55
108203.43
108024.69
107825.87
107611.16
107384.47
107149.32
106908.79
106665.54
106421.82
106179.5
105940.07
105704.76
105474.51
105250.04
105031.89
104820.42
104615.9
104418.46
104228.17
104045.03
103868.97
103699.91
103537.72
103382.23
103233.29
103090.71
102954.31
102823.87
102699.22
102580.14
102466.45
102357.94
102254.41
102155.69
102061.59
101971.92
101886.51
101805.19
101727.8
101654.17
101584.16
101517.62
101454.4
101394.37
101337.41
101283.39
101232.2
101183.72
101137.85
101094.49
101053.54
101014.94
100978.59
100944.43
100912.39
100882.41
100854.43
100828.44
100804.5
100782.29
100761.53
100743.79
100729.73
100710.87
100687.73
100704.26
100739.07
108293.03
108837.68
108968.25
109267.17
109393.35
109522.44
109565.6
109566.38
109508.64
109405.91
109259.85
109078.36
108866.94
108631.98
108378.98
108113.09
107838.72
107559.69
107279.16
106999.72
106723.43
106451.91
106186.4
105927.83
105676.84
105433.88
105199.23
104973.03
104755.33
104546.07
104345.16
104152.45
103967.74
103790.84
103621.52
103459.55
103304.67
103156.65
103015.24
102880.2
102751.28
102628.26
102510.9
102398.99
102292.3
102190.62
102093.76
102001.51
101913.68
101830.11
101750.6
101675
101603.14
101534.87
101470.04
101408.5
101350.14
101294.81
101242.4
101192.8
101145.89
101101.58
101059.77
101020.37
100983.3
100948.48
100915.86
100885.37
100856.94
100830.54
100806.17
100783.82
100763.19
100744.24
100728.42
100715.44
100698.11
100679.9
100695.96
100719.17
109608.11
110135.35
110245.5
110482.8
110544.89
110579.44
110522.26
110411.29
110241.16
110027.15
109775.7
109496.59
109197.07
108884.09
108563.24
108239.23
107915.77
107595.78
107281.48
106974.52
106676.08
106386.96
106107.67
105838.49
105579.55
105330.81
105092.17
104863.43
104644.37
104434.71
104234.16
104042.42
103859.17
103684.09
103516.88
103357.23
103204.84
103059.41
102920.67
102788.33
102662.13
102541.82
102427.15
102317.9
102213.82
102114.71
102020.35
101930.55
101845.12
101763.87
101686.63
101613.24
101543.52
101477.34
101414.54
101354.98
101298.55
101245.1
101194.53
101146.72
101101.58
101058.99
101018.87
100981.14
100945.72
100912.53
100881.52
100852.63
100825.8
100800.99
100778.22
100757.43
100738.36
100721.17
100707.03
100694.99
100679.52
100665.87
100679.95
100693.8
110946.85
111466.52
111534.09
111658.37
111605.92
111496.46
111297.48
111044.47
110742.79
110409.08
110052.6
109683.13
109307.59
108931.74
108559.78
108194.85
107839.16
107494.23
107161.02
106840.08
106531.65
106235.76
105952.27
105680.94
105421.45
105173.42
104936.46
104710.16
104494.08
104287.82
104090.97
103903.12
103723.88
103552.89
103389.78
103234.21
103085.86
102944.4
102809.54
102680.99
102558.49
102441.76
102330.57
102224.67
102123.84
102027.86
101936.54
101849.66
101767.05
101688.52
101613.91
101543.04
101475.77
101411.94
101351.42
101294.07
101239.77
101188.39
101139.83
101093.97
101050.71
101009.97
100971.65
100935.67
100901.96
100870.46
100841.09
100813.82
100788.58
100765.34
100744.13
100724.83
100707.26
100691.71
100678.99
100667.79
100654.36
100644.5
100655.8
100662.44
112456.69
112804.13
112755.57
112669.01
112434.16
112134.98
111769.9
111369.06
110943.4
110507.02
110068.09
109633.54
109207.75
108793.9
108393.92
108008.96
107639.57
107285.88
106947.74
106624.81
106316.65
106022.74
105742.51
105475.38
105220.75
104978.05
104746.72
104526.21
104316
104115.62
103924.58
103742.46
103568.83
103403.3
103245.49
103095.06
102951.67
102815.01
102684.76
102560.66
102442.43
102329.82
102222.58
102120.48
102023.3
101930.82
101842.86
101759.22
101679.71
101604.16
101532.42
101464.31
101399.69
101338.42
101280.37
101225.39
101173.38
101124.22
101077.79
101034
100992.74
100953.93
100917.49
100883.34
100851.4
100821.61
100793.92
100768.26
100744.6
100722.92
100703.19
100685.32
100669.2
100655.16
100643.64
100633.27
100621.85
100614.96
100623.26
100624.93
113793.76
113761.36
113510.49
113165.71
112731.64
112255.86
111753.47
111244.47
110738.37
110243.35
109763.73
109302.37
108860.45
108438.42
108036.26
107653.53
107289.56
106943.57
106614.7
106302.09
106004.92
105722.34
105453.54
105197.75
104954.26
104722.41
104501.59
104291.21
104090.76
103899.73
103717.65
103544.09
103378.65
103220.94
103070.59
102927.27
102790.65
102660.42
102536.31
102418.05
102305.37
102198.04
102095.82
101998.51
101905.89
101817.77
101733.96
101654.27
101578.54
101506.61
101438.31
101373.5
101312.04
101253.79
101198.63
101146.42
101097.07
101050.45
101006.47
100965.02
100926.02
100889.37
100855.01
100822.84
100792.82
100764.87
100738.94
100714.97
100692.93
100672.8
100654.53
100638.04
100623.3
100610.59
100600.06
100590.45
100580.79
100576.26
100582.49
100579.69
114208.25
113884.94
113442.33
112922.38
112371
111812.45
111260.82
110725.37
110210.39
109718.34
109249.78
108804.65
108382.32
107981.82
107601.91
107241.4
106899.12
106573.95
106264.87
105970.88
105691.09
105424.69
105171
104929.33
104699.02
104479.49
104270.17
104070.55
103880.15
103698.51
103525.22
103359.88
103202.12
103051.59
102907.96
102770.93
102640.19
102515.5
102396.62
102283.29
102175.3
102072.41
101974.42
101881.12
101792.32
101707.84
101627.49
101551.11
101478.55
101409.63
101344.23
101282.19
101223.38
101167.68
101114.95
101065.09
101017.99
100973.54
100931.63
100892.18
100855.1
100820.3
100787.71
100757.25
100728.85
100702.46
100678.02
100655.48
100634.8
100615.95
100598.89
100583.55
100569.93
100558.2
100548.35
100539.63
100531.75
100527.69
100529.81
100527.52
112811.6
112554.51
112173.48
111704.64
111216.71
110722.28
110237.17
109766.57
109313.83
108880.2
108465.93
108070.71
107693.87
107334.76
106992.58
106666.53
106355.81
106059.64
105777.26
105507.96
105251.05
105005.86
104771.81
104548.42
104335.19
104131.65
103937.35
103751.87
103574.81
103405.77
103244.42
103090.4
102943.4
102803.12
102669.28
102541.61
102419.86
102303.77
102193.09
102087.59
101987.06
101891.28
101800.08
101713.26
101630.65
101552.07
101477.38
101406.4
101339.01
101275.04
101214.38
101156.87
101102.42
101050.88
101002.15
100956.11
100912.67
100871.72
100833.18
100796.94
100762.93
100731.06
100701.26
100673.46
100647.59
100623.59
100601.42
100581.01
100562.33
100545.33
100530
100516.26
100504.14
100493.68
100484.84
100477.31
100471.09
100467.37
100466.82
100465.62
108134.74
109178.51
109341.92
109398.15
109259.51
109049.71
108782.49
108489.13
108180.27
107866.43
107552.75
107243.27
106940.26
106645.27
106359.22
106082.63
105815.76
105558.7
105311.38
105073.67
104845.4
104626.33
104416.15
104214.55
104021.22
103835.88
103658.24
103488.02
103324.96
103168.81
103019.31
102876.22
102739.31
102608.36
102483.16
102363.51
102249.19
102139.97
102035.67
101936.1
101841.09
101750.48
101664.1
101581.79
101503.41
101428.81
101357.85
101290.4
101226.32
101165.49
101107.78
101053.08
101001.28
100952.26
100905.92
100862.15
100820.86
100781.96
100745.36
100710.97
100678.71
100648.5
100620.26
100593.94
100569.46
100546.77
100525.81
100506.52
100488.86
100472.8
100458.29
100445.29
100433.79
100423.79
100415.24
100408.08
100402.33
100398.2
100395.8
100394.72
110377.68
110420.22
110300.18
110054.8
109695.71
109267.68
108798.39
108307.22
107806.71
107302.82
106809.45
106326.22
105863.24
105416.66
104989.77
104595.4
104229.71
103902
103606.96
103343.1
103109.16
102901.49
102718.12
102555.94
102412.75
102284.99
102168.94
102062.73
101966.42
101883.44
101809.11
101740.25
101676.21
101616.07
101559.19
101505.08
101453.43
101404.02
101356.7
101311.36
101267.93
101226.33
101186.52
101148.45
101112.07
101077.34
101044.19
101012.57
100982.42
100953.68
100926.27
100900.15
100875.19
100851.4
100828.53
100806.78
100785.58
100765.59
100745.5
100727.11
100707.34
100690.69
100669.99
100655.84
100632.07
100622.43
100591.87
100590.83
100547.1
100562.28
100493.51
100539.56
100428.2
100526.29
100345.53
100528.02
100240.01
100550.42
100105.17
100604.82
97165.762
97362.575
97742.258
98151.573
98594.696
99071.553
99480.106
99829.946
100157.02
100450.84
100704.34
100925.46
101116.07
101278.43
101415.94
101530.18
101625.15
101700.1
101757.08
101797.39
101824.46
101838.42
101841.82
101834.63
101819.01
101795.91
101767.73
101735.56
101699.37
101661.35
101621.59
101580.42
101537.57
101494.07
101450.62
101407.6
101365.35
101324.13
101284.07
101245.3
101207.85
101171.75
101137.02
101103.64
101071.6
101040.88
101011.44
100983.27
100956.29
100930.5
100905.8
100882.19
100859.53
100837.87
100816.94
100796.97
100777.39
100758.86
100740.14
100722.91
100704.32
100688.49
100668.91
100655.14
100632.62
100622.75
100593.82
100591.69
100550.35
100563.57
100499.06
100540.79
100434.79
100527.9
100351.81
100530.41
100244.17
100556.26
100105.81
100613.22
104086.52
104120.29
104119.5
104092.6
104037.26
103959.85
103866.72
103761.45
103647.65
103529.77
103408.57
103286.83
103164.99
103044.81
102926.32
102812.24
102700.11
102596.47
102495.23
102403.32
102309.76
102227.19
102141.72
102067.89
101996.15
101930.96
101872.98
101818.11
101767.35
101706.44
101649.04
101594.98
101543.31
101494.06
101446.99
101401.89
101358.61
101317.03
101277.05
101238.6
101201.63
101166.11
101132.01
101099.29
101067.92
101037.88
101009.13
100981.63
100955.33
100930.19
100906.15
100883.17
100861.11
100840.03
100819.65
100800.2
100781.08
100763
100744.64
100727.76
100709.42
100693.83
100674.41
100660.74
100638.33
100628.35
100599.52
100597.07
100555.49
100568.27
100504.39
100544.39
100440.51
100530.31
100357.74
100531.97
100249.63
100557.91
100109.71
100616.06
101638.19
101640.34
101648.19
101663.18
101682.35
101702.04
101722.38
101744.18
101765.75
101787.58
101807.95
101827.29
101844.14
101858.43
101868.9
101875.86
101877.94
101876.22
101869.79
101859.68
101845.73
101828.63
101808.34
101783.23
101753.66
101720.15
101684.3
101646.44
101608.49
101570.52
101531.86
101493.23
101454.66
101416.31
101378.36
101340.96
101304.26
101268.37
101233.37
101199.36
101166.38
101134.48
101103.68
101074
101045.43
101017.98
100991.63
100966.36
100942.13
100918.92
100896.66
100875.34
100854.81
100835.15
100816.07
100797.81
100779.77
100762.68
100745.18
100729.12
100711.43
100696.5
100677.51
100664.39
100642.18
100632.69
100603.83
100601.88
100560.19
100573.29
100508.9
100549.5
100444.4
100535.26
100361.38
100536.85
100252.66
100562.34
100111.91
100620.04
102022.3
102029.87
102030.91
102029.48
102026.45
102021.21
102014.39
102006.92
101998.15
101988.55
101977.17
101965.61
101951.43
101936.83
101920.11
101901.55
101882.26
101859.13
101836.35
101809.14
101782.93
101752.01
101722.29
101689.1
101657.01
101623.05
101590.31
101555.5
101521.18
101486.7
101452.28
101418.06
101384.13
101350.56
101317.44
101284.84
101252.81
101221.41
101190.7
101160.73
101131.55
101103.19
101075.7
101049.09
101023.39
100998.6
100974.72
100951.75
100929.65
100908.43
100888
100868.37
100849.41
100831.18
100813.42
100796.35
100779.4
100763.27
100746.64
100731.31
100714.29
100699.91
100681.39
100668.63
100646.74
100637.41
100608.76
100606.82
100565.19
100578.07
100513.88
100554.01
100449.46
100539.4
100366.06
100540.41
100256.72
100565.82
100114.72
100623.26
101502.73
101507.88
101512.8
101519.7
101526.71
101533.76
101538.92
101545.16
101549.14
101553.5
101555.22
101557.01
101556.29
101555.64
101552.7
101549.34
101544.07
101538.09
101530.32
101521.73
101511.32
101500.23
101487.16
101473.05
101457.02
101439.77
101420.82
101400.76
101379.43
101357.19
101334.08
101310.26
101285.87
101261.06
101235.97
101210.73
101185.46
101160.29
101135.32
101110.65
101086.38
101062.57
101039.29
101016.6
100994.52
100973.1
100952.34
100932.26
100912.85
100894.09
100875.95
100858.42
100841.39
100824.92
100808.76
100793.14
100777.5
100762.53
100746.95
100732.52
100716.31
100702.57
100684.67
100672.32
100650.87
100641.75
100613.42
100611.45
100570.18
100582.76
100518.72
100558.52
100453.86
100543.59
100370.32
100544.27
100260.37
100569.31
100117.34
100626.32
101318.55
101325.29
101330.29
101335.98
101341.99
101347.73
101352.45
101357.36
101360.08
101364.2
101365.47
101368.73
101369.06
101370.71
101370
101369.22
101366.41
101363.54
101359.02
101353.9
101347.41
101339.99
101331.36
101321.68
101310.89
101299.06
101286.22
101272.38
101257.62
101242
101225.6
101208.5
101190.78
101172.54
101153.86
101134.85
101115.6
101096.2
101076.74
101057.31
101037.99
101018.85
100999.97
100981.4
100963.18
100945.37
100927.97
100911.01
100894.5
100878.42
100862.76
100847.51
100832.57
100818
100803.58
100789.52
100775.3
100761.56
100747.11
100733.62
100718.29
100705.21
100687.97
100676.01
100655.08
100646.08
100618.19
100616.06
100575.18
100587.33
100523.74
100562.88
100458.92
100547.56
100374.89
100547.82
100264.25
100572.59
100120.04
100629.11
101059.75
101066.56
101072.04
101078.6