/*--------------------------------*- C++ -*----------------------------------*\
  =========                 |
  \\      /  F ield         | OpenFOAM: The Open Source CFD Toolbox
   \\    /   O peration     | Website:  https://openfoam.org
    \\  /    A nd           | Version:  6
     \\/     M anipulation  |
\*---------------------------------------------------------------------------*/
FoamFile
{
    version     2.0;
    format      ascii;
    class       surfaceScalarField;
    location    "750";
    object      phi;
}
// * * * * * * * * * * * * * * * * * * * * * * * * * * * * * * * * * * * * * //

dimensions      [1 0 -1 0 0 0 0];

internalField   nonuniform List<scalar> 
31760
(
-0.00058049996
-0.038331988
0.038912488
-0.0012912247
-0.042492856
0.043203581
-0.002018676
-0.043603914
0.044331365
-0.0028007633
-0.046146911
0.046928998
-0.0036029165
-0.047978552
0.048780705
-0.0044597697
-0.050424576
0.051281429
-0.0053453793
-0.052643336
0.053528945
-0.0062834175
-0.055191448
0.056129486
-0.0072588925
-0.057708117
0.058683593
-0.0082867022
-0.060441022
0.061468832
-0.0093596478
-0.063234666
0.064307611
-0.010486817
-0.06620036
0.067327529
-0.01166534
-0.069275326
0.070453849
-0.012901222
-0.072510218
0.0737461
-0.014194445
-0.07588295
0.077176173
-0.01554927
-0.07941849
0.080773315
-0.016966947
-0.08311307
0.084530747
-0.018450768
-0.08698078
0.088464601
-0.020002768
-0.091026016
0.092578016
-0.021626015
-0.095259152
0.0968824
-0.023322781
-0.099688047
0.10138481
-0.025096146
-0.10432262
0.10609598
-0.026948113
-0.10917258
0.11102455
-0.028881571
-0.11424846
0.11618192
-0.030898857
-0.11956105
0.12157833
-0.033002048
-0.12512254
0.12722573
-0.035193476
-0.13094457
0.133136
-0.037475428
-0.13704061
0.13932256
-0.039849516
-0.14342425
0.14579834
-0.042317111
-0.15011025
0.15257784
-0.044879907
-0.15711365
0.15967645
-0.047538675
-0.16445119
0.16710996
-0.0502945
-0.17213944
0.17489526
-0.053147266
-0.18019701
0.18304977
-0.056096907
-0.1886432
0.19159284
-0.059143012
-0.19749801
0.20054411
-0.062284657
-0.20678264
0.20992429
-0.065519708
-0.21652024
0.21975529
-0.068846283
-0.22673425
0.23006082
-0.072261306
-0.23744973
0.24086476
-0.075761418
-0.2486931
0.25219322
-0.079341974
-0.26049237
0.26407293
-0.082998064
-0.27287638
0.27653247
-0.086723188
-0.28587662
0.28960174
-0.090510496
-0.29952468
0.30331198
-0.094351942
-0.31385514
0.31769659
-0.098237769
-0.32890344
0.33278926
-0.10215761
-0.34470739
0.34862723
-0.10609946
-0.36130621
0.36524806
-0.11004916
-0.37874184
0.38269154
-0.11399165
-0.39705728
0.40099978
-0.11790907
-0.41629858
0.420216
-0.12178171
-0.43651364
0.44038629
-0.125587
-0.457753
0.46155829
-0.12930027
-0.48006919
0.48378246
-0.13289301
-0.50351815
0.50711089
-0.13633368
-0.52815829
0.53159896
-0.13958607
-0.55405116
0.55730354
-0.14261032
-0.58125995
0.5842842
-0.14536105
-0.60985224
0.61260298
-0.14778745
-0.63989916
0.64232557
-0.14983233
-0.67147364
0.67351853
-0.1514329
-0.70465485
0.70625541
-0.15251526
-0.7395217
0.74060406
-0.15300359
-0.776162
0.77665033
-0.15279953
-0.81465792
0.81445386
-0.15181757
-0.85511139
0.85412943
-0.14991506
-0.89758506
0.89568255
-0.14702407
-0.94222888
0.9393379
-0.14290334
-0.98902478
0.98490404
-0.13757736
-1.0382883
1.0329623
-0.13058408
-1.0897093
1.082716
-0.12221586
-1.1441816
1.1358134
-0.1114556
-1.2003511
1.1895908
-0.099295286
-1.2609906
1.2488303
-0.083681489
-1.3211488
1.305535
-0.066831558
-1.3893808
1.3725309
-0.045293985
-1.4516368
1.4300993
-0.022214207
-1.5291142
1.5060344
-1.5943972
1.5657431
-0.00056114523
-0.037770843
-0.0012327349
-0.041821267
-0.0019223551
-0.042914294
-0.0026623949
-0.045406871
-0.0034249391
-0.047216008
-0.004236212
-0.049613304
-0.0050779915
-0.051801556
-0.0059685197
-0.05430092
-0.0068971492
-0.056779488
-0.0078753885
-0.059462783
-0.0088983552
-0.062211699
-0.0099736053
-0.06512511
-0.011099438
-0.068149493
-0.01228143
-0.071328227
-0.013519319
-0.074645061
-0.014817564
-0.078120245
-0.016177407
-0.081753227
-0.017602348
-0.08555584
-0.01909439
-0.089533974
-0.020656498
-0.093697044
-0.022291049
-0.098053496
-0.024000651
-0.10261302
-0.025788237
-0.107385
-0.027655938
-0.11238076
-0.029606072
-0.11761091
-0.031641273
-0.12308734
-0.033763583
-0.12882226
-0.035975048
-0.13482914
-0.038277107
-0.14112219
-0.040671745
-0.14771561
-0.043160083
-0.15462531
-0.045743104
-0.16186817
-0.048421431
-0.16946111
-0.051194982
-0.17742345
-0.054064201
-0.18577398
-0.057028137
-0.19453407
-0.060085477
-0.2037253
-0.063234946
-0.21337077
-0.066474198
-0.223495
-0.069800274
-0.23412366
-0.073209896
-0.24528348
-0.07669885
-0.25700341
-0.080261964
-0.26931327
-0.083893697
-0.28224488
-0.087587279
-0.29583109
-0.091335261
-0.31010716
-0.095128674
-0.32511002
-0.098957786
-0.34087828
-0.1028112
-0.3574528
-0.10667661
-0.37487643
-0.11053943
-0.39319446
-0.11438384
-0.41245417
-0.11819172
-0.43270576
-0.12194265
-0.45400207
-0.12561372
-0.47639813
-0.12917923
-0.49995264
-0.13261011
-0.5247274
-0.13587443
-0.55078684
-0.13893494
-0.57819944
-0.14175052
-0.60703667
-0.14427582
-0.63737386
-0.14645819
-0.66929127
-0.14824072
-0.70287232
-0.14955693
-0.73820548
-0.15033521
-0.77538372
-0.15049284
-0.81450029
-0.14994108
-0.85566315
-0.14856849
-0.89895765
-0.14628212
-0.94451526
-0.14291034
-0.99239656
-0.13839559
-1.042803
-0.13243854
-1.0956663
-0.12512639
-1.1514938
-0.11582457
-1.2096529
-0.10501243
-1.2718027
-0.091327157
-1.3348341
-0.076173325
-1.4045347
-0.057064646
-1.4707455
-0.036431052
-1.5497478
-1.6199307
-0.00052958703
-0.037241256
-0.0011781894
-0.041172665
-0.0018289855
-0.042263498
-0.0025338534
-0.044702004
-0.0032564818
-0.046493379
-0.0040304817
-0.048839304
-0.0048316851
-0.051000353
-0.0056826829
-0.053449922
-0.0065695701
-0.055892601
-0.0075066104
-0.058525743
-0.0084867895
-0.06123152
-0.0095189001
-0.064092999
-0.01060092
-0.067067473
-0.011738104
-0.070191043
-0.012931341
-0.073451824
-0.014183913
-0.076867673
-0.015498113
-0.080439026
-0.016876443
-0.08417751
-0.018321905
-0.088088512
-0.019836831
-0.092182118
-0.021424064
-0.096466263
-0.023086405
-0.10095068
-0.024825644
-0.10564576
-0.026645147
-0.11056125
-0.028547085
-0.11570898
-0.03053356
-0.12110086
-0.032606702
-0.12674912
-0.03476838
-0.13266747
-0.037020591
-0.13886998
-0.0393647
-0.1453715
-0.041801524
-0.15218849
-0.044332558
-0.15933713
-0.046957699
-0.16683597
-0.049677712
-0.17470344
-0.052491932
-0.18295976
-0.055399819
-0.19162618
-0.058400185
-0.20072494
-0.061491263
-0.2102797
-0.064670981
-0.22031528
-0.067936983
-0.23085765
-0.071285197
-0.24193527
-0.074712177
-0.25357643
-0.078213201
-0.26581224
-0.081783035
-0.27867505
-0.085415346
-0.29219878
-0.089103024
-0.30641949
-0.092838315
-0.32137473
-0.096612151
-0.33710444
-0.10041456
-0.35365039
-0.10423397
-0.37105702
-0.10805757
-0.38937086
-0.11187097
-0.40864077
-0.11565771
-0.42891902
-0.11939973
-0.45026005
-0.12307656
-0.47272131
-0.12666486
-0.49636434
-0.13013885
-0.52125341
-0.13346932
-0.54745637
-0.13662336
-0.5750454
-0.13956416
-0.60409587
-0.14225002
-0.634688
-0.14463485
-0.66690644
-0.14666611
-0.70084106
-0.14828566
-0.73658593
-0.14942781
-0.77424157
-0.15001649
-0.81391161
-0.14997598
-0.85570367
-0.1492047
-0.89972893
-0.14760884
-0.94611111
-0.14505699
-0.99494841
-0.14145774
-1.0464023
-0.13659828
-1.1005258
-0.1304589
-1.1576332
-0.12263101
-1.2174808
-0.11332951
-1.2811042
-0.10159044
-1.3465731
-0.088330304
-1.4177948
-0.071696586
-1.4873792
-0.053406607
-1.5680378
-1.6422692
-0.00050034917
-0.036740907
-0.0011308031
-0.040542211
-0.0017490809
-0.04164522
-0.0024244868
-0.044026598
-0.0031140229
-0.045803843
-0.00385661
-0.048096717
-0.004624348
-0.050232615
-0.0054424103
-0.05263186
-0.0062953954
-0.055039616
-0.0071985246
-0.057622614
-0.0081445819
-0.060285463
-0.0091423986
-0.063095183
-0.010189923
-0.066019949
-0.011292898
-0.069088068
-0.012451582
-0.07229314
-0.013670096
-0.075649159
-0.01495009
-0.079159032
-0.016294987
-0.082832614
-0.017707024
-0.086676475
-0.019189325
-0.090699817
-0.020744222
-0.094911366
-0.022374306
-0.099320593
-0.02408257
-0.10393749
-0.025871323
-0.1087725
-0.027742731
-0.11383757
-0.029699371
-0.11914422
-0.031742963
-0.12470553
-0.033875728
-0.1305347
-0.036099053
-0.13664665
-0.03841446
-0.14305609
-0.040822913
-0.14978003
-0.043325143
-0.1568349
-0.04592186
-0.16423925
-0.048612676
-0.17201263
-0.051397325
-0.18017511
-0.054275385
-0.18874812
-0.057245457
-0.19775487
-0.06030589
-0.20721926
-0.06345467
-0.2171665
-0.066689115
-0.22762321
-0.070006317
-0.23861807
-0.07340243
-0.25018032
-0.076873205
-0.26234147
-0.080413874
-0.27513438
-0.084018859
-0.2885938
-0.087681929
-0.30275642
-0.091396065
-0.3176606
-0.09515333
-0.33334717
-0.098944727
-0.34985899
-0.10276017
-0.36724158
-0.10658871
-0.38554232
-0.11041699
-0.40481249
-0.11423128
-0.42510472
-0.11801546
-0.44647587
-0.12175092
-0.46898585
-0.12541777
-0.49269748
-0.12899339
-0.51767779
-0.13245137
-0.54399839
-0.13576298
-0.57173379
-0.13889564
-0.60096321
-0.14181253
-0.63177111
-0.14447238
-0.66424659
-0.14682912
-0.69848431
-0.14883031
-0.73458475
-0.15041798
-0.7726539
-0.15152643
-0.81280315
-0.15208193
-0.85514817
-0.15199988
-0.89981098
-0.15119338
-0.94691761
-0.14955069
-0.9965911
-0.14697087
-1.0489821
-0.14329889
-1.1041977
-0.13845982
-1.1624722
-0.13216965
-1.2237709
-0.12451792
-1.288756
-0.11478267
-1.3563084
-0.10357442
-1.429003
-0.089478779
-1.5014749
-0.073811494
-1.5837051
-1.6614277
-0.00047357845
-0.036267328
-0.0010880041
-0.039927785
-0.0016785902
-0.041054634
-0.0023301112
-0.043375077
-0.002992494
-0.045141461
-0.0037102417
-0.047378969
-0.0044516545
-0.049491202
-0.0052445396
-0.051838975
-0.0060720755
-0.05421208
-0.0069499838
-0.056744706
-0.0078714134
-0.059364033
-0.0088452408
-0.062121356
-0.009869481
-0.064995709
-0.010949495
-0.068008054
-0.012086237
-0.071156398
-0.013283789
-0.074451607
-0.014543937
-0.077898884
-0.015870111
-0.08150644
-0.017264604
-0.085281983
-0.018730285
-0.089234136
-0.020270208
-0.093371443
-0.021886834
-0.097703967
-0.023582919
-0.10224141
-0.025360498
-0.10699492
-0.027222582
-0.11197548
-0.029170932
-0.11719587
-0.031207795
-0.12266866
-0.033334582
-0.12840791
-0.035553317
-0.13442792
-0.037864571
-0.14074484
-0.040269919
-0.14737469
-0.042769631
-0.15433519
-0.045364097
-0.16164479
-0.048053288
-0.16932344
-0.050836809
-0.17739159
-0.053713488
-0.18587144
-0.056682547
-0.19478581
-0.059742493
-0.20415932
-0.062891034
-0.21401796
-0.066125744
-0.2243885
-0.069444184
-0.23529963
-0.072842774
-0.24678173
-0.076317821
-0.25886642
-0.079865295
-0.27158691
-0.083480185
-0.28497891
-0.087157393
-0.29907921
-0.09089059
-0.3139274
-0.094673029
-0.32956474
-0.098497259
-0.34603476
-0.1023548
-0.36338404
-0.10623562
-0.38166151
-0.11012949
-0.40091861
-0.11402385
-0.42121036
-0.11790502
-0.4425947
-0.1217578
-0.46513307
-0.1255644
-0.48889088
-0.12930504
-0.51393715
-0.13295775
-0.54034568
-0.13649736
-0.56819419
-0.13989552
-0.59756505
-0.14312003
-0.6285466
-0.14613527
-0.66123135
-0.14890068
-0.6957189
-0.1513708
-0.73211462
-0.1534946
-0.77053011
-0.15521418
-0.81108357
-0.15646467
-0.85389768
-0.15717385
-0.8991018
-0.15726167
-0.94682979
-0.15662971
-0.99722306
-0.15518923
-1.0504226
-0.15280958
-1.1065774
-0.14940259
-1.1658792
-0.14475627
-1.2284173
-0.13888363
-1.2946286
-0.1312646
-1.3639274
-0.12226726
-1.4380004
-0.11078598
-1.5129562
-0.09784808
-1.596643
-1.6773165
-0.00045328266
-0.035814046
-0.0010444184
-0.03933665
-0.0016147652
-0.040484288
-0.0022501911
-0.042739651
-0.0028938341
-0.044497818
-0.0035952379
-0.046677566
-0.0043195787
-0.048766861
-0.0050966875
-0.051061867
-0.0059088518
-0.053399916
-0.0067725715
-0.055880986
-0.0076805422
-0.058456062
-0.008642027
-0.061159871
-0.0096554912
-0.063982245
-0.010726268
-0.066937277
-0.011855518
-0.070027148
-0.013046844
-0.073260281
-0.014303001
-0.076642726
-0.015626784
-0.080182657
-0.017021266
-0.083887501
-0.018489356
-0.087766046
-0.020033416
-0.091827383
-0.021656841
-0.096080542
-0.023361576
-0.10053667
-0.025150658
-0.10520584
-0.027026053
-0.11010009
-0.028989897
-0.11523203
-0.031044266
-0.12061429
-0.033190627
-0.12626155
-0.03543038
-0.13218817
-0.037764642
-0.13841058
-0.040194282
-0.14494505
-0.042719403
-0.15181007
-0.045340509
-0.15902368
-0.048057238
-0.16660671
-0.050869105
-0.17457972
-0.053775313
-0.18296524
-0.056774726
-0.19178639
-0.059865872
-0.20106817
-0.063046864
-0.21083696
-0.066315762
-0.2211196
-0.069670039
-0.23194535
-0.07310689
-0.24334488
-0.076623521
-0.25534979
-0.080215991
-0.26799444
-0.083880676
-0.28131422
-0.087613191
-0.29534669
-0.091408765
-0.31013183
-0.095262135
-0.32571137
-0.09916664
-0.34213026
-0.10311581
-0.35943487
-0.10710197
-0.37767534
-0.11111612
-0.39690446
-0.11514855
-0.41717794
-0.11918784
-0.4385554
-0.12322119
-0.46109973
-0.12723437
-0.4848777
-0.131211
-0.50996053
-0.13513223
-0.53642445
-0.13897735
-0.56434907
-0.14272177
-0.59382062
-0.14633932
-0.62492906
-0.14979869
-0.65777198
-0.15306589
-0.6924517
-0.15610195
-0.72907856
-0.15886297
-0.7677691
-0.16129926
-0.80864728
-0.16335604
-0.8518409
-0.1649698
-0.89748804
-0.16606692
-0.94573267
-0.16657208
-0.9967179
-0.16639442
-1.0506002
-0.16543487
-1.1075369
-0.16359677
-1.1677174
-0.16072531
-1.2312887
-0.15678757
-1.2985663
-0.1514029
-1.3693121
-0.14479072
-1.4446126
-0.13605818
-1.5216887
-0.12605204
-1.6066491
-1.6898434
-0.00043949718
-0.035374549
-0.0010116805
-0.038764466
-0.0015684827
-0.039927485
-0.0021950734
-0.042113061
-0.002827871
-0.04386502
-0.0035211682
-0.045984268
-0.0042376123
-0.048050417
-0.0050083795
-0.050291099
-0.0058158064
-0.052592489
-0.0066761943
-0.055020599
-0.0075830435
-0.057549213
-0.0085451518
-0.060197763
-0.0095614162
-0.06296598
-0.010637106
-0.065861588
-0.011774252
-0.068890002
-0.012976197
-0.072058336
-0.014245595
-0.075373328
-0.015586087
-0.078842165
-0.016999958
-0.08247363
-0.018490715
-0.086275289
-0.020061011
-0.090257087
-0.021713424
-0.094428129
-0.023451038
-0.098799059
-0.025275716
-0.10338116
-0.027189734
-0.10818607
-0.029195464
-0.1132263
-0.031294331
-0.11851543
-0.033487961
-0.12406792
-0.035777225
-0.1298989
-0.038163172
-0.13602463
-0.040646451
-0.14246177
-0.043227371
-0.14922915
-0.045905686
-0.15634536
-0.048681429
-0.16383097
-0.051553733
-0.17170742
-0.054521957
-0.17999701
-0.057585099
-0.18872325
-0.06074143
-0.19791184
-0.063990178
-0.20758822
-0.067329031
-0.21778075
-0.070756392
-0.22851799
-0.074270194
-0.23983108
-0.077867812
-0.25175217
-0.081547069
-0.26431518
-0.085305054
-0.27755624
-0.089138529
-0.29151322
-0.093043926
-0.30622643
-0.097017323
-0.32173797
-0.10105468
-0.3380929
-0.10515056
-0.35533899
-0.10929944
-0.37352647
-0.11349455
-0.39270935
-0.11772866
-0.41294383
-0.12199316
-0.43429091
-0.12627803
-0.45681486
-0.13057219
-0.48058354
-0.13486235
-0.50567037
-0.13913417
-0.53215263
-0.14337024
-0.560113
-0.14755186
-0.589639
-0.1516563
-0.62082462
-0.15565902
-0.65376925
-0.15953126
-0.68857946
-0.16324119
-0.72536864
-0.16675247
-0.76425782
-0.17002408
-0.80537566
-0.17300744
-0.84885754
-0.17564977
-0.89484571
-0.17789354
-0.9434889
-0.17966959
-0.99494185
-0.18090302
-1.0493668
-0.18150775
-1.1069322
-0.18139955
-1.1678255
-0.18045466
-1.2322336
-0.17861989
-1.3004011
-0.17561634
-1.3723156
-0.17157264
-1.4486563
-0.16575509
-1.5275062
-0.15885965
-1.6135445
-1.698885
-0.00043098683
-0.034943562
-0.00099931169
-0.038196142
-0.0015493008
-0.039377496
-0.0021742529
-0.041488109
-0.0028045373
-0.043234736
-0.0034982997
-0.045290506
-0.0042166676
-0.047332049
-0.0049915866
-0.049516181
-0.0058056805
-0.051778395
-0.0066749481
-0.054151331
-0.0075939252
-0.056630236
-0.0085706747
-0.059221013
-0.0096053853
-0.06193127
-0.010702981
-0.064763992
-0.011865366
-0.067727617
-0.013096647
-0.070827055
-0.014399505
-0.074070471
-0.015777134
-0.077464536
-0.017232939
-0.081017825
-0.018769476
-0.084738752
-0.020390037
-0.088636527
-0.022097063
-0.092721102
-0.023893093
-0.09700303
-0.025780684
-0.10149357
-0.027761695
-0.10620506
-0.029837755
-0.11115024
-0.032010543
-0.11634264
-0.034281137
-0.12179733
-0.036650712
-0.12752933
-0.039119703
-0.13355564
-0.041688493
-0.13989298
-0.04435714
-0.1465605
-0.047125606
-0.1535769
-0.049993242
-0.16096333
-0.052959867
-0.16874079
-0.056024755
-0.17693212
-0.059186457
-0.18556155
-0.062444722
-0.19465358
-0.065798075
-0.20423486
-0.069245636
-0.21433319
-0.07278577
-0.22497786
-0.076417632
-0.23619922
-0.080139844
-0.24802996
-0.083950871
-0.26050415
-0.087849029
-0.27365808
-0.091832476
-0.28752977
-0.095899748
-0.30215916
-0.1000484
-0.31758932
-0.1042755
-0.3338658
-0.10857849
-0.35103599
-0.11295366
-0.3691513
-0.11739695
-0.38826606
-0.12190345
-0.40843733
-0.12646722
-0.42972714
-0.13108195
-0.45220012
-0.1357389
-0.47592659
-0.14042944
-0.50097983
-0.14514239
-0.52743967
-0.14986542
-0.55538997
-0.15458347
-0.58492095
-0.15928024
-0.61612785
-0.16393592
-0.64911358
-0.1685285
-0.68398687
-0.17303267
-0.72086448
-0.17741944
-0.75987104
-0.18165615
-0.80113896
-0.18570444
-0.84480925
-0.18952241
-0.89102774
-0.19305899
-0.93995231
-0.19626123
-0.99173961
-0.19906421
-1.0465638
-0.20139764
-1.1045988
-0.20319197
-1.1660312
-0.20435151
-1.2310741
-0.20481308
-1.2999395
-0.20437501
-1.3727537
-0.20310066
-1.4499306
-0.2003893
-1.5302176
-0.19681404
-1.6171198
-1.7042596
-0.00042838674
-0.034515175
-0.0010019062
-0.037622622
-0.001553473
-0.03882593
-0.0021856002
-0.040855981
-0.0028233639
-0.042596972
-0.0035279919
-0.044585878
-0.0042600372
-0.046600004
-0.0050511668
-0.048725051
-0.0058855366
-0.050944025
-0.0067780712
-0.053258797
-0.0077247202
-0.055683587
-0.0087330519
-0.058212681
-0.0098039247
-0.060860397
-0.010942082
-0.063625834
-0.01215013
-0.066519569
-0.013432083
-0.069545103
-0.014790806
-0.072711747
-0.016229844
-0.076025498
-0.01775208
-0.079495588
-0.019360831
-0.083130001
-0.021058818
-0.086938539
-0.022848649
-0.090931272
-0.02473254
-0.095119138
-0.026712556
-0.099513554
-0.028790868
-0.10412675
-0.030968677
-0.10897243
-0.033247131
-0.11406419
-0.035627324
-0.11941714
-0.038109737
-0.12504691
-0.040695022
-0.13097035
-0.043382756
-0.13720524
-0.04617338
-0.14376988
-0.049066181
-0.1506841
-0.052061152
-0.15796836
-0.055157819
-0.16564413
-0.058355191
-0.17373475
-0.061653478
-0.18226326
-0.065051714
-0.19125534
-0.068549414
-0.20073716
-0.07214637
-0.21073623
-0.075842529
-0.2212817
-0.079637205
-0.23240454
-0.083530243
-0.24413692
-0.087521702
-0.25651269
-0.091611704
-0.26956808
-0.095799747
-0.28334173
-0.10008572
-0.29787318
-0.10446923
-0.31320581
-0.10894992
-0.32938511
-0.11352679
-0.34645913
-0.11819883
-0.36447926
-0.12296456
-0.38350033
-0.12782163
-0.40358026
-0.1327675
-0.42478127
-0.13779821
-0.44716941
-0.14290993
-0.47081487
-0.14809655
-0.49579321
-0.15335176
-0.52218446
-0.15866727
-0.55007446
-0.16403346
-0.57955477
-0.16943856
-0.61072275
-0.17486936
-0.64368278
-0.18031018
-0.67854605
-0.18574232
-0.71543233
-0.1911451
-0.75446826
-0.19649363
-0.79579043
-0.20176054
-0.83954234
-0.2069102
-0.88587808
-0.2119086
-0.93495391
-0.21670828
-0.98693994
-0.22126172
-1.0420104
-0.22551495
-1.1003456
-0.22940491
-1.1621413
-0.23286525
-1.2276137
-0.23583757
-1.2969672
-0.23817441
-1.3704169
-0.23989489
-1.4482101
-0.24051284
-1.5295996
-0.24048411
-1.6171485
-1.705736
-0.00043257574
-0.0340826
-0.0010200103
-0.037035188
-0.0015827155
-0.038263225
-0.0022322358
-0.040206461
-0.0028890193
-0.041940189
-0.0036164459
-0.043858452
-0.0043755801
-0.04584087
-0.0051971557
-0.047903475
-0.0060672579
-0.050073923
-0.0069996998
-0.052326355
-0.0079918803
-0.054691407
-0.0090508298
-0.057153732
-0.010178348
-0.059732879
-0.011378964
-0.062425218
-0.012656011
-0.065242522
-0.014012956
-0.068188158
-0.015453433
-0.07127127
-0.016980656
-0.074498275
-0.018598007
-0.077878237
-0.020308178
-0.081419831
-0.022113703
-0.085133015
-0.024017252
-0.089027723
-0.026020873
-0.093115517
-0.028126415
-0.097408012
-0.030334924
-0.10191824
-0.03264795
-0.10665941
-0.035066291
-0.11164584
-0.037590412
-0.11689302
-0.040220261
-0.12241706
-0.042956344
-0.12823427
-0.045798423
-0.13436316
-0.048746285
-0.14082202
-0.051799561
-0.14763082
-0.054958354
-0.15480957
-0.058221915
-0.16238057
-0.061590718
-0.17036595
-0.065064341
-0.17878964
-0.068643009
-0.18767667
-0.072327624
-0.19705255
-0.076118307
-0.20694555
-0.080015743
-0.21738426
-0.084021526
-0.22839876
-0.088136511
-0.24002194
-0.092362305
-0.2522869
-0.096700096
-0.26523029
-0.10115216
-0.27888966
-0.10571965
-0.29330569
-0.1104048
-0.30852066
-0.11520903
-0.32458089
-0.12013393
-0.34153422
-0.12518113
-0.35943206
-0.13035156
-0.3783299
-0.13564629
-0.39828553
-0.14106534
-0.41936222
-0.14660919
-0.44162556
-0.15227654
-0.46514752
-0.15806603
-0.49000372
-0.16397539
-0.5162751
-0.17000106
-0.54404879
-0.17613834
-0.57341749
-0.18238174
-0.60447935
-0.18872348
-0.63734104
-0.19515416
-0.67211537
-0.20166332
-0.70892317
-0.20823731
-0.74789427
-0.2148606
-0.78916714
-0.22151315
-0.83288979
-0.2281754
-0.87921584
-0.23481711
-0.9283122
-0.24141024
-0.9803468
-0.24791779
-1.0355028
-0.25429786
-1.0939655
-0.26050386
-1.1559353
-0.26649139
-1.2216262
-0.2722061
-1.2912525
-0.27755923
-1.3650637
-0.2825301
-1.4432392
-0.28673233
-1.5253974
-0.29052221
-1.6133587
-1.7030372
-0.00044490572
-0.033637694
-0.0010565511
-0.036423542
-0.0016415594
-0.037678216
-0.0023198776
-0.039528143
-0.0030087212
-0.041251345
-0.0037725222
-0.043094651
-0.004573982
-0.04503941
-0.0054422102
-0.047035247
-0.0063658042
-0.049150329
-0.0073571409
-0.051335018
-0.0084154614
-0.053633086
-0.0095470409
-0.056022153
-0.010754689
-0.058525231
-0.012042866
-0.061137041
-0.013414982
-0.063870406
-0.014874988
-0.066728152
-0.016426442
-0.069719817
-0.018072439
-0.072852278
-0.019816074
-0.076134602
-0.02166002
-0.079575885
-0.023606942
-0.083186092
-0.025658503
-0.086976162
-0.027816561
-0.090957458
-0.030082224
-0.09514235
-0.032456802
-0.09954366
-0.034940837
-0.10417537
-0.037534514
-0.10905217
-0.040237997
-0.11418953
-0.043051502
-0.11960356
-0.045974378
-0.12531139
-0.049006968
-0.13133057
-0.052148561
-0.13768043
-0.05539958
-0.1443798
-0.058759681
-0.15144946
-0.062229461
-0.15891079
-0.06580902
-0.16678639
-0.069499658
-0.175099
-0.073302259
-0.18387407
-0.077218307
-0.1931365
-0.081249738
-0.20291412
-0.085398946
-0.21323505
-0.089667955
-0.22412975
-0.094060414
-0.23562948
-0.09857875
-0.24776856
-0.10322699
-0.26058205
-0.1080084
-0.27410825
-0.11292732
-0.28838676
-0.11798731
-0.30346068
-0.12319276
-0.31937544
-0.12854792
-0.33617906
-0.13405688
-0.3539231
-0.13972366
-0.37266312
-0.14555227
-0.39245692
-0.15154665
-0.41336783
-0.15770985
-0.43546237
-0.16404532
-0.45881205
-0.17055593
-0.48349311
-0.17724328
-0.50958775
-0.18410944
-0.53718263
-0.19115511
-0.56637182
-0.19837955
-0.5972549
-0.20578231
-0.62993828
-0.21336097
-0.66453671
-0.22111172
-0.70117242
-0.22902953
-0.73997646
-0.23710786
-0.78108881
-0.24533817
-0.82465948
-0.25370756
-0.87084645
-0.26220233
-0.91981743
-0.27080091
-0.97174822
-0.27948374
-1.02682
-0.28822416
-1.0852251
-0.2969925
-1.1471669
-0.30575832
-1.2128604
-0.3144821
-1.2825287
-0.32311161
-1.3564342
-0.33162055
-1.4347303
-0.33969745
-1.5173205
-0.34761225
-1.6054439
-1.6958392
-0.00046517333
-0.033172521
-0.0011113931
-0.035777323
-0.0017302282
-0.037059381
-0.002449844
-0.038808527
-0.0031852722
-0.040515917
-0.004000738
-0.042279185
-0.0048618946
-0.044178253
-0.0057953682
-0.046101774
-0.0067928662
-0.048152831
-0.0078651324
-0.050262752
-0.0090132454
-0.052484973
-0.010242964
-0.054792434
-0.011557848
-0.057210346
-0.012962254
-0.059732635
-0.014460077
-0.062372583
-0.016054898
-0.065133331
-0.017750305
-0.06802441
-0.019549216
-0.071053367
-0.021454394
-0.074229424
-0.023468184
-0.077562095
-0.025592458
-0.081061819
-0.027828706
-0.084739914
-0.030178224
-0.088607941
-0.032641504
-0.09267907
-0.035218902
-0.096966261
-0.037910532
-0.10148374
-0.04071633
-0.10624637
-0.043635988
-0.11126988
-0.046669321
-0.11657023
-0.049816051
-0.12216466
-0.053075721
-0.1280709
-0.056448738
-0.13430741
-0.059935317
-0.14089322
-0.063535865
-0.14784892
-0.067251685
-0.15519497
-0.071084201
-0.16295387
-0.075035316
-0.17114789
-0.0791076
-0.17980179
-0.083303471
-0.18894063
-0.087626841
-0.19859075
-0.092081302
-0.20878059
-0.096671597
-0.21953945
-0.10140178
-0.2308993
-0.10627767
-0.24289267
-0.11130454
-0.25555518
-0.11648839
-0.26892441
-0.12183541
-0.28303974
-0.12735201
-0.29794407
-0.13304511
-0.31368235
-0.13892158
-0.33030258
-0.1449883
-0.34785639
-0.15125291
-0.36639851
-0.15772234
-0.38598749
-0.16440411
-0.40668607
-0.1713055
-0.42856098
-0.1784337
-0.45168385
-0.18579581
-0.476131
-0.19339902
-0.50198454
-0.20124944
-0.52933222
-0.20935407
-0.55826719
-0.21771862
-0.58889035
-0.22634842
-0.62130849
-0.23524854
-0.65563658
-0.24442321
-0.69199774
-0.25387597
-0.7305237
-0.26360893
-0.77135585
-0.27362363
-0.81464477
-0.28391977
-0.86055031
-0.2944934
-0.9092438
-0.30533937
-0.96090224
-0.31644853
-1.0157108
-0.32781105
-1.0738625
-0.33941065
-1.1355673
-0.35123282
-1.2010382
-0.3632588
-1.2705027
-0.37546645
-1.3442266
-0.38783001
-1.4223667
-0.40011474
-1.5050358
-0.41250819
-1.5930504
-1.6837889
-0.00049577534
-0.032676745
-0.0011893151
-0.035083783
-0.0018563673
-0.036392329
-0.0026321388
-0.038032756
-0.0034314261
-0.039716629
-0.0043168022
-0.041393809
-0.0052580493
-0.043237006
-0.0062788628
-0.04508096
-0.0073742217
-0.047057472
-0.0085533405
-0.049083633
-0.0098190599
-0.051219254
-0.01117648
-0.053435014
-0.012630036
-0.05575679
-0.014183733
-0.058178939
-0.015841617
-0.060714699
-0.017607127
-0.063367821
-0.019483184
-0.066148353
-0.021472835
-0.069063716
-0.023578029
-0.07212423
-0.025800498
-0.075339626
-0.028141225
-0.078721092
-0.030601082
-0.082280057
-0.033180404
-0.086028619
-0.035879202
-0.089980271
-0.03869708
-0.094148384
-0.041633634
-0.098547187
-0.044688249
-0.10319175
-0.047860646
-0.10809748
-0.051150049
-0.11328082
-0.054556537
-0.11875818
-0.058080506
-0.12454693
-0.061722255
-0.13066566
-0.06548286
-0.13713262
-0.06936389
-0.14396789
-0.073367611
-0.15119125
-0.077497016
-0.15882447
-0.08175485
-0.16689005
-0.086145728
-0.17541091
-0.090674009
-0.18441235
-0.095344753
-0.19392
-0.10016403
-0.20396132
-0.1051379
-0.21456558
-0.1102734
-0.2257638
-0.11557797
-0.2375881
-0.12105931
-0.25007384
-0.126726
-0.26325772
-0.13258644
-0.27717929
-0.1386499
-0.29188061
-0.1449261
-0.30740615
-0.15142456
-0.32380412
-0.15815575
-0.3411252
-0.16513008
-0.35942418
-0.17235837
-0.3787592
-0.1798517
-0.39919273
-0.18762159
-0.42079109
-0.19567961
-0.44362582
-0.20403743
-0.46777319
-0.21270712
-0.49331484
-0.22170088
-0.52033845
-0.23103081
-0.54893726
-0.24070959
-0.57921157
-0.25074933
-0.61126875
-0.26116262
-0.6452233
-0.27196151
-0.68119885
-0.28315861
-0.7193266
-0.29476586
-0.7597486
-0.30679522
-0.80261541
-0.31925704
-0.8480885
-0.3321601
-0.89634074
-0.34551661
-0.94754574
-0.35932772
-1.0018997
-0.37359522
-1.059595
-0.38832475
-1.1208378
-0.40352029
-1.1858427
-0.41917549
-1.2548475
-0.43529476
-1.3281073
-0.4518577
-1.4058038
-0.46871864
-1.4881748
-0.48599325
-1.5757758
-1.6664904
-0.00053726491
-0.03213948
-0.0012922973
-0.034328751
-0.0020237159
-0.03566091
-0.0028726633
-0.037183808
-0.0037556654
-0.038833627
-0.0047320591
-0.040417415
-0.0057771937
-0.042191872
-0.0069111309
-0.043947023
-0.008132364
-0.045836239
-0.0094485062
-0.047767491
-0.010864021
-0.049803739
-0.012383474
-0.05191556
-0.014011709
-0.054128556
-0.015752408
-0.05643824
-0.017609404
-0.058857703
-0.019585528
-0.061391697
-0.021683472
-0.064050409
-0.023904826
-0.066842362
-0.026250982
-0.069778074
-0.028722731
-0.072867877
-0.031320194
-0.076123629
-0.034043353
-0.079556898
-0.036891238
-0.083180734
-0.039863415
-0.087008095
-0.042958713
-0.091053085
-0.046176418
-0.095329482
-0.049515466
-0.099852706
-0.052975494
-0.10463745
-0.056556639
-0.10969968
-0.060258997
-0.11505582
-0.064083477
-0.12072245
-0.068031569
-0.12671757
-0.072105671
-0.13305852
-0.076308833
-0.13976472
-0.080644418
-0.14685566
-0.085116751
-0.15435214
-0.089731586
-0.16227522
-0.094494153
-0.17064834
-0.099411544
-0.17949496
-0.10449075
-0.1888408
-0.10973973
-0.19871233
-0.11516711
-0.20913821
-0.12078223
-0.22014868
-0.12659453
-0.2317758
-0.13261446
-0.24405391
-0.13885282
-0.25701937
-0.14532104
-0.27071107
-0.15203137
-0.28517028
-0.15899582
-0.3004417
-0.16622783
-0.31657211
-0.17374045
-0.33361258
-0.18154814
-0.3516165
-0.18966544
-0.37064191
-0.1981073
-0.39075087
-0.20688926
-0.41200913
-0.21602777
-0.4344873
-0.22553956
-0.4582614
-0.23544193
-0.48341247
-0.24575298
-0.5100274
-0.25649091
-0.53819934
-0.26767519
-0.56802729
-0.27932524
-0.5996187
-0.29146147
-0.63308707
-0.30410479
-0.66855553
-0.31727635
-0.70615504
-0.33099905
-0.74602591
-0.34529489
-0.78831957
-0.36018675
-0.83319664
-0.37569844
-0.88082904
-0.39184976
-0.93139442
-0.40866128
-0.98508822
-0.42615521
-1.0421011
-0.44434651
-1.1026465
-0.46325519
-1.166934
-0.48289866
-1.2352041
-0.50330396
-1.307702
-0.52446255
-1.3846452
-0.54629729
-1.4663401
-0.5688858
-1.5531873
-1.6434857
-0.00059043342
-0.031549047
-0.0014225076
-0.033496676
-0.0022371057
-0.034846312
-0.0031790273
-0.036241887
-0.0041693486
-0.037843306
-0.0052622194
-0.039324544
-0.0064396891
-0.041014402
-0.007717135
-0.042669577
-0.0090972374
-0.044456136
-0.010585906
-0.046278822
-0.012188954
-0.048200691
-0.013910224
-0.05019429
-0.015754518
-0.052284262
-0.017724881
-0.054467877
-0.019824441
-0.056758143
-0.022055147
-0.05916099
-0.024418472
-0.061687084
-0.02691503
-0.064345805
-0.029544957
-0.067148147
-0.032307559
-0.070105275
-0.035202087
-0.073229102
-0.03822685
-0.076532134
-0.041380747
-0.080026837
-0.044662006
-0.083726836
-0.048069578
-0.087645513
-0.051602047
-0.091797012
-0.055259149
-0.096195605
-0.059040789
-0.10085581
-0.06294716
-0.10579331
-0.066980181
-0.1110228
-0.071141394
-0.11656124
-0.075434473
-0.12242449
-0.079862734
-0.12863026
-0.084431165
-0.13519629
-0.089145147
-0.14214168
-0.094011531
-0.14948575