/*--------------------------------*- C++ -*----------------------------------*\
  =========                 |
  \\      /  F ield         | OpenFOAM: The Open Source CFD Toolbox
   \\    /   O peration     | Website:  https://openfoam.org
    \\  /    A nd           | Version:  6
     \\/     M anipulation  |
\*---------------------------------------------------------------------------*/
FoamFile
{
    version     2.0;
    format      ascii;
    class       volScalarField;
    location    "750";
    object      rho;
}
// * * * * * * * * * * * * * * * * * * * * * * * * * * * * * * * * * * * * * //

dimensions      [1 -3 0 0 0 0 0];

internalField   nonuniform List<scalar> 
16000
(
1.1566738
1.1618915
1.1603143
1.1616047
1.1611837
1.1618968
1.1618724
1.162375
1.1625322
1.1629462
1.1632007
1.1635797
1.1638909
1.1642618
1.1646081
1.1649837
1.1653535
1.1657388
1.1661253
1.1665208
1.1669195
1.1673236
1.1677304
1.1681401
1.1685509
1.1689621
1.1693724
1.1697806
1.1701856
1.170586
1.1709804
1.1713676
1.1717462
1.172115
1.1724726
1.1728179
1.1731496
1.1734666
1.173768
1.1740529
1.1743203
1.1745697
1.1748005
1.1750121
1.1752044
1.175377
1.1755298
1.175663
1.1757765
1.1758707
1.1759457
1.176002
1.1760399
1.1760599
1.1760626
1.1760484
1.1760181
1.1759721
1.1759109
1.1758352
1.1757453
1.1756422
1.1755255
1.1753972
1.1752543
1.175103
1.1749311
1.1747608
1.1745497
1.1743744
1.1740924
1.1739577
1.1735244
1.1735769
1.172715
1.1733114
1.1713523
1.173455
1.1691939
1.1738784
1.1571695
1.1623971
1.1607509
1.1621061
1.1616679
1.1624297
1.1624053
1.1629438
1.1631123
1.1635548
1.1638273
1.1642312
1.1645634
1.1649576
1.1653258
1.1657238
1.1661154
1.1665219
1.1669292
1.1673446
1.1677624
1.1681843
1.1686078
1.1690326
1.1694569
1.1698799
1.1703
1.170716
1.1711263
1.1715297
1.1719247
1.1723098
1.1726836
1.1730449
1.1733924
1.1737247
1.1740409
1.1743398
1.1746207
1.1748828
1.1751254
1.175348
1.1755504
1.1757322
1.1758935
1.1760343
1.1761548
1.1762552
1.1763359
1.1763975
1.1764403
1.1764651
1.1764724
1.1764629
1.1764371
1.1763959
1.1763399
1.1762696
1.1761858
1.176089
1.1759797
1.1758585
1.1757256
1.1755819
1.1754264
1.1752612
1.1750819
1.1748962
1.1746874
1.1744861
1.1742299
1.1740365
1.1736741
1.1735935
1.1729294
1.1732453
1.1716603
1.1732914
1.1694783
1.1738037
1.1578305
1.1630604
1.1613744
1.1627925
1.1623463
1.1631505
1.1631348
1.1637052
1.1638912
1.1643603
1.1646546
1.1650825
1.165438
1.1658552
1.1662465
1.1666667
1.1670803
1.1675077
1.1679354
1.1683698
1.1688055
1.1692438
1.169682
1.1701198
1.1705551
1.1709868
1.1714133
1.1718331
1.1722447
1.1726465
1.173037
1.1734146
1.1737781
1.1741259
1.174457
1.1747701
1.1750642
1.1753385
1.1755922
1.1758248
1.1760359
1.1762253
1.176393
1.1765389
1.1766633
1.1767666
1.1768493
1.1769119
1.176955
1.1769795
1.176986
1.1769754
1.1769484
1.1769059
1.1768486
1.1767774
1.176693
1.1765961
1.1764873
1.1763672
1.1762363
1.1760952
1.1759441
1.1757835
1.1756132
1.1754336
1.1752431
1.1750441
1.1748295
1.1746113
1.1743618
1.1741345
1.1738121
1.1736384
1.1731028
1.173228
1.1719101
1.1731572
1.1697295
1.1736828
1.1586798
1.1638976
1.1621932
1.1636761
1.163224
1.1640739
1.1640693
1.1646744
1.1648808
1.165379
1.165698
1.1661524
1.1665338
1.1669762
1.1673928
1.1678369
1.1682741
1.1687237
1.1691725
1.1696263
1.1700799
1.1705341
1.1709861
1.1714352
1.1718793
1.1723171
1.1727466
1.1731664
1.1735746
1.1739696
1.1743499
1.1747139
1.1750602
1.1753875
1.1756946
1.1759805
1.1762443
1.1764855
1.1767035
1.1768981
1.1770692
1.1772168
1.1773412
1.177443
1.1775225
1.1775806
1.177618
1.1776357
1.1776345
1.1776155
1.1775796
1.1775279
1.1774614
1.1773811
1.1772878
1.1771824
1.1770658
1.1769387
1.1768019
1.1766558
1.1765009
1.1763377
1.1761666
1.1759877
1.1758011
1.1756067
1.1754037
1.1751924
1.1749697
1.1747393
1.1744895
1.1742423
1.1739414
1.1737136
1.173254
1.1732445
1.1721393
1.1730799
1.1699926
1.1736978
1.1597126
1.1648992
1.163205
1.1647555
1.1643035
1.1652015
1.1652135
1.1658555
1.166087
1.1666163
1.166964
1.1674469
1.167857
1.1683263
1.1687702
1.1692393
1.1697012
1.1701733
1.1706432
1.171116
1.1715863
1.1720547
1.1725183
1.1729758
1.1734253
1.1738648
1.1742927
1.1747069
1.1751058
1.1754875
1.1758505
1.1761932
1.1765143
1.1768126
1.1770871
1.1773369
1.1775615
1.1777606
1.177934
1.1780817
1.1782041
1.1783016
1.1783749
1.1784248
1.1784523
1.1784584
1.1784442
1.178411
1.1783601
1.1782926
1.1782098
1.1781129
1.1780031
1.1778814
1.177749
1.1776067
1.1774555
1.177296
1.1771291
1.1769552
1.1767747
1.1765881
1.1763957
1.1761975
1.1759936
1.1757837
1.1755672
1.1753437
1.1751112
1.1748706
1.1746163
1.174356
1.1740641
1.1738003
1.173395
1.1732757
1.1723476
1.1730446
1.1702429
1.173725
1.1609551
1.1661084
1.1644383
1.1660579
1.1656098
1.1665571
1.1665897
1.1672698
1.1675303
1.1680921
1.1684715
1.1689843
1.1694255
1.169923
1.1703956
1.1708907
1.1713778
1.1718724
1.172363
1.1728536
1.1733391
1.1738193
1.1742913
1.1747535
1.1752037
1.1756399
1.1760599
1.1764619
1.176844
1.1772043
1.1775414
1.1778537
1.1781401
1.1783996
1.1786314
1.178835
1.1790103
1.1791572
1.179276
1.1793672
1.1794316
1.1794701
1.1794838
1.179474
1.1794419
1.1793891
1.179317
1.1792272
1.1791211
1.1790003
1.1788663
1.1787203
1.1785638
1.1783978
1.1782235
1.178042
1.177854
1.1776603
1.1774617
1.1772586
1.1770514
1.1768404
1.1766259
1.1764078
1.1761861
1.1759604
1.1757301
1.1754945
1.1752521
1.1750024
1.1747423
1.1744733
1.1741849
1.1738991
1.1735308
1.173325
1.1725478
1.1730405
1.1705008
1.1737861
1.1624146
1.1675737
1.1659001
1.1675904
1.1671509
1.1681487
1.168207
1.1689264
1.1692204
1.1698163
1.170231
1.1707756
1.1712504
1.1717776
1.1722803
1.1728021
1.1733146
1.1738313
1.1743415
1.174848
1.1753459
1.1758344
1.1763105
1.1767721
1.1772168
1.1776425
1.1780469
1.178428
1.1787839
1.1791129
1.1794136
1.1796846
1.1799251
1.1801344
1.1803121
1.1804582
1.1805729
1.1806567
1.1807105
1.1807353
1.1807323
1.1807029
1.1806488
1.1805717
1.1804732
1.1803553
1.1802197
1.1800683
1.1799028
1.179725
1.1795364
1.1793386
1.1791329
1.1789205
1.1787027
1.1784804
1.1782545
1.1780257
1.1777947
1.1775618
1.1773273
1.1770915
1.1768546
1.1766164
1.1763767
1.1761353
1.1758913
1.1756439
1.1753917
1.1751336
1.1748675
1.1745924
1.1743041
1.1740058
1.1736653
1.1733979
1.1727443
1.173054
1.1707606
1.1738814
1.1640862
1.1692698
1.1675909
1.1693557
1.1689314
1.1699827
1.1700733
1.1708348
1.171168
1.1718008
1.1722552
1.1728341
1.1733455
1.1739042
1.1744385
1.1749875
1.1755253
1.176063
1.1765908
1.1771102
1.1776165
1.1781082
1.1785821
1.179036
1.1794671
1.1798731
1.1802518
1.1806012
1.1809194
1.1812049
1.1814565
1.1816734
1.181855
1.1820011
1.1821119
1.1821879
1.18223
1.1822393
1.1822172
1.1821653
1.1820855
1.1819797
1.18185
1.1816985
1.1815275
1.181339
1.1811353
1.1809183
1.18069
1.1804522
1.1802068
1.1799552
1.1796988
1.179439
1.1791768
1.1789132
1.1786489
1.1783847
1.1781211
1.1778584
1.1775968
1.1773365
1.1770774
1.1768194
1.1765622
1.1763054
1.1760482
1.1757896
1.1755282
1.1752627
1.1749911
1.1747118
1.1744226
1.1741186
1.1737966
1.1734871
1.1729405
1.1730866
1.1710403
1.1740065
1.1659774
1.1712029
1.1695216
1.1713658
1.1709645
1.1720729
1.1722035
1.1730103
1.1733893
1.174062
1.1745608
1.1751766
1.1757274
1.1763192
1.176886
1.177462
1.1780238
1.1785801
1.1791219
1.1796495
1.1801581
1.1806457
1.181109
1.1815453
1.1819519
1.1823264
1.1826665
1.1829705
1.1832368
1.1834642
1.1836519
1.1837997
1.1839076
1.1839761
1.184006
1.1839986
1.1839554
1.1838784
1.1837695
1.1836311
1.1834655
1.1832754
1.1830632
1.1828314
1.1825828
1.1823195
1.1820442
1.1817588
1.1814656
1.1811664
1.180863
1.1805569
1.1802496
1.1799422
1.1796357
1.1793311
1.179029
1.17873
1.1784345
1.1781428
1.1778548
1.1775707
1.1772902
1.1770133
1.1767394
1.1764681
1.1761985
1.1759295
1.1756598
1.1753878
1.1751117
1.1748298
1.1745397
1.1742353
1.1739254
1.1735897
1.1731354
1.1731374
1.17134
1.1741405
1.1681085
1.1733854
1.1717095
1.173639
1.1732691
1.1744385
1.1746175
1.175473
1.1759043
1.1766203
1.1771679
1.1778231
1.1784154
1.1790411
1.1796401
1.1802417
1.1808246
1.1813954
1.1819453
1.1824738
1.1829759
1.1834492
1.18389
1.1842957
1.1846635
1.1849911
1.1852766
1.1855185
1.1857157
1.1858676
1.1859743
1.1860361
1.1860539
1.186029
1.1859633
1.1858586
1.1857176
1.1855426
1.1853367
1.1851027
1.1848436
1.1845624
1.1842621
1.1839456
1.1836157
1.183275
1.1829261
1.1825711
1.1822122
1.1818514
1.1814902
1.1811302
1.1807727
1.1804188
1.1800693
1.179725
1.1793864
1.179054
1.178728
1.1784086
1.1780957
1.1777891
1.1774887
1.177194
1.1769047
1.1766201
1.1763393
1.1760611
1.1757843
1.1755072
1.1752278
1.1749448
1.1746547
1.1743537
1.1740518
1.1737042
1.1733273
1.1732063
1.1716579
1.1742806
1.1705137
1.1758377
1.1741736
1.1761946
1.1758653
1.1770998
1.1773365
1.1782444
1.1787351
1.1794978
1.1800985
1.1807953
1.1814304
1.1820898
1.1827192
1.1833429
1.1839416
1.1845197
1.1850688
1.1855873
1.1860703
1.1865149
1.1869174
1.1872752
1.1875859
1.1878474
1.1880583
1.1882179
1.1883258
1.1883825
1.1883887
1.188346
1.1882562
1.1881217
1.1879453
1.1877299
1.1874789
1.1871956
1.1868837
1.1865465
1.1861877
1.1858106
1.1854185
1.1850146
1.1846018
1.1841828
1.1837601
1.1833359
1.1829123
1.1824911
1.1820738
1.1816618
1.1812561
1.1808578
1.1804674
1.1800856
1.1797128
1.1793492
1.1789949
1.1786499
1.178314
1.1779869
1.1776682
1.1773576
1.1770545
1.1767581
1.1764676
1.1761818
1.1758993
1.1756185
1.1753374
1.1750547
1.1747663
1.1744715
1.174175
1.1738274
1.1735128
1.1732899
1.1719787
1.1744071
1.173202
1.178572
1.1769296
1.1790508
1.1787746
1.1800797
1.1803852
1.1813503
1.181908
1.182721
1.1833784
1.1841181
1.1847958
1.1854865
1.1861418
1.1867809
1.1873865
1.1879607
1.1884955
1.1889884
1.1894346
1.1898309
1.1901741
1.1904618
1.1906921
1.1908638
1.1909764
1.1910301
1.1910258
1.190965
1.1908499
1.1906833
1.1904681
1.190208
1.1899068
1.1895685
1.1891971
1.188797
1.1883721
1.1879265
1.1874642
1.1869887
1.1865035
1.1860118
1.1855165
1.1850204
1.1845257
1.1840346
1.1835489
1.1830702
1.1825998
1.1821389
1.1816882
1.1812486
1.1808206
1.1804044
1.1800003
1.1796084
1.1792285
1.1788606
1.1785042
1.1781589
1.1778243
1.1774999
1.1771849
1.1768787
1.1765803
1.1762886
1.1760022
1.1757193
1.1754383
1.1751573
1.1748727
1.1745862
1.1742943
1.1739562
1.1736895
1.1733833
1.1723013
1.1745326
1.1761904
1.1816209
1.1800105
1.1822406
1.182031
1.1834116
1.1837974
1.1848237
1.1854552
1.1863212
1.187037
1.1878187
1.1885356
1.1892519
1.1899244
1.1905676
1.1911658
1.1917191
1.1922199
1.1926651
1.1930503
1.1933726
1.1936294
1.1938191
1.1939407
1.1939945
1.1939812
1.1939026
1.193761
1.1935596
1.193302
1.1929924
1.1926351
1.1922351
1.1917971
1.191326
1.1908267
1.190304
1.1897623
1.1892061
1.1886393
1.1880658
1.1874888
1.1869116
1.1863368
1.1857669
1.185204
1.18465
1.1841064
1.1835746
1.1830554
1.1825499
1.1820586
1.1815819
1.1811202
1.1806735
1.1802418
1.179825
1.1794229
1.1790351
1.1786612
1.1783005
1.1779526
1.1776168
1.1772923
1.1769785
1.1766742
1.1763786
1.17609
1.175807
1.1755279
1.1752503
1.1749716
1.1746949
1.1744083
1.1740883
1.1738587
1.1734859
1.1726184
1.1746536
1.1795084
1.1850141
1.1834482
1.1857971
1.1856702
1.1871312
1.1876097
1.1887008
1.1894116
1.1903317
1.1911052
1.1919244
1.192673
1.1934037
1.1940786
1.1947077
1.1952766
1.1957841
1.1962232
1.1965908
1.1968832
1.1970983
1.1972349
1.1972927
1.1972726
1.1971766
1.1970072
1.1967682
1.1964638
1.196099
1.1956791
1.1952096
1.1946964
1.1941452
1.193562
1.1929521
1.1923211
1.191674
1.1910155
1.1903499
1.1896813
1.1890132
1.1883487
1.1876908
1.1870417
1.1864036
1.1857783
1.1851672
1.1845715
1.1839921
1.1834298
1.1828851
1.1823582
1.1818494
1.1813586
1.1808859
1.1804308
1.1799931
1.1795725
1.1791684
1.1787802
1.1784073
1.1780489
1.1777044
1.177373
1.1770538
1.176746
1.1764484
1.1761597
1.1758785
1.1756031
1.1753309
1.1750605
1.1747944
1.1745152
1.1742204
1.1740183
1.1735979
1.1729284
1.1747656
1.1831882
1.1887866
1.1872812
1.1897591
1.1897335
1.1912793
1.1918648
1.1930252
1.1938175
1.1947892
1.1956146
1.196461
1.1972261
1.197952
1.1986053
1.1991924
1.1997003
1.2001271
1.2004669
1.2007173
1.2008763
1.2009436
1.2009198
1.200807
1.2006085
1.2003286
1.1999724
1.1995456
1.1990549
1.1985068
1.1979083
1.1972663
1.1965878
1.1958794
1.1951474
1.1943978
1.1936361
1.1928673
1.1920961
1.1913264
1.1905621
1.1898062
1.1890614
1.1883301
1.1876143
1.1869156
1.1862352
1.1855742
1.1849334
1.1843133
1.1837142
1.1831364
1.1825799
1.1820444
1.1815299
1.1810359
1.180562
1.1801078
1.1796726
1.1792559
1.178857
1.1784751
1.1781093
1.177759
1.1774233
1.1771014
1.1767922
1.1764949
1.1762082
1.1759308
1.1756609
1.175396
1.1751361
1.1748813
1.1746124
1.1743467
1.1741608
1.173715
1.1732276
1.1748596
1.1872748
1.1929838
1.1915581
1.194172
1.1942682
1.1959019
1.196607
1.1978419
1.1987145
1.1997274
1.2005905
1.2014446
1.2022006
1.2028909
1.2034866
1.2039911
1.2043937
1.2046927
1.2048843
1.2049682
1.2049449
1.2048169
1.2045879
1.2042631
1.2038487
1.203352
1.2027806
1.2021427
1.2014468
1.2007012
1.1999142
1.1990938
1.1982473
1.1973818
1.1965038
1.1956191
1.194733
1.1938502
1.1929748
1.1921102
1.1912597
1.1904256
1.1896103
1.1888153
1.1880421
1.1872917
1.186565
1.1858625
1.1851846
1.1845312
1.1839026
1.1832983
1.1827183
1.1821621
1.1816293
1.1811192
1.1806313
1.180165
1.1797195
1.1792941
1.178888
1.1785003
1.1781304
1.1777772
1.1774399
1.1771177
1.1768096
1.1765148
1.176232
1.1759603
1.1756978
1.1754422
1.1751945
1.1749517
1.1746969
1.1744629
1.1742855
1.1738352
1.1735131
1.174932
1.1918169
1.1976533
1.1963384
1.1990997
1.1993538
1.2010833
1.2018962
1.2031839
1.2041322
1.2051709
1.2060463
1.2068759
1.2075826
1.2081908
1.2086765
1.2090419
1.2092798
1.2093904
1.2093736
1.2092325
1.2089715
1.2085972
1.2081173
1.2075404
1.2068764
1.2061352
1.2053271
1.2044624
1.2035511
1.2026025
1.2016257
1.2006289
1.1996196
1.1986047
1.19759
1.196581
1.1955822
1.1945976
1.1936304
1.1926835
1.1917592
1.1908591
1.1899849
1.1891374
1.1883175
1.1875258
1.1867624
1.1860274
1.1853207
1.1846421
1.1839911
1.1833674
1.1827704
1.1821994
1.1816538
1.1811328
1.1806357
1.1801617
1.17971
1.1792797
1.17887
1.1784801
1.1781089
1.1777557
1.1774195
1.1770996
1.1767949
1.1765047
1.1762279
1.1759636
1.17571
1.1754657
1.1752315
1.1750015
1.1747644
1.1745622
1.1743862
1.1739503
1.1737777
1.1749822
1.1968887
1.2028578
1.2017079
1.2046147
1.2050492
1.2068476
1.2077854
1.2091237
1.2101115
1.2111407
1.2119818
1.2127318
1.2133262
1.2137833
1.2140857
1.214237
1.214235
1.2140842
1.2137901
1.2133607
1.2128057
1.2121364
1.2113649
1.2105036
1.2095654
1.2085628
1.207508
1.2064123
1.2052866
1.2041404
1.2029826
1.201821
1.2006625
1.1995129
1.1983774
1.1972602
1.196165
1.1950946
1.1940514
1.1930373
1.1920536
1.1911013
1.1901811
1.1892934
1.1884383
1.1876158
1.1868256
1.1860674
1.1853406
1.1846447
1.1839789
1.1833426
1.1827349
1.182155
1.181602
1.1810752
1.1805735
1.1800961
1.1796422
1.1792107
1.1788009
1.1784117
1.1780423
1.1776918
1.1773593
1.177044
1.1767449
1.1764612
1.1761922
1.1759369
1.1756937
1.1754622
1.1752424
1.1750262
1.1748103
1.1746366
1.1744564
1.1740541
1.1740094
1.1750049
1.2027163
1.2087848
1.2078415
1.2108392
1.2114214
1.2132691
1.2143097
1.2156692
1.2166577
1.2176143
1.2183477
1.2189341
1.2193252
1.2195374
1.2195619
1.2194072
1.2190787
1.2185877
1.2179463
1.2171692
1.2162715
1.2152694
1.2141789
1.2130155
1.2117942
1.2105289
1.2092322
1.2079157
1.2065896
1.2052628
1.2039432
1.2026372
1.2013504
1.2000874
1.1988519
1.197647
1.1964749
1.1953375
1.194236
1.1931712
1.1921437
1.1911537
1.190201
1.1892855
1.1884068
1.1875642
1.1867571
1.1859847
1.1852461
1.1845406
1.183867
1.1832246
1.1826122
1.182029
1.1814738
1.1809458
1.1804439
1.1799672
1.1795147
1.1790856
1.1786787
1.1782933
1.1779284
1.1775831
1.1772565
1.1769479
1.1766564
1.1763812
1.1761216
1.1758766
1.1756451
1.1754272
1.1752221
1.1750212
1.1748283
1.1746775
1.1744941
1.174144
1.1741967
1.1749968
1.2092761
1.2153762
1.2146169
1.2176586
1.2185607
1.2205343
1.2215742
1.2228517
1.2237392
1.2245114
1.2250197
1.2253227
1.2253902
1.2252409
1.224878
1.2243179
1.2235761
1.2226718
1.2216249
1.2204562
1.2191859
1.2178337
1.216418
1.2149558
1.2134624
1.2119512
1.2104342
1.2089214
1.2074215
1.2059418
1.204488
1.2030651
1.2016767
1.2003259
1.1990147
1.1977449
1.1965173
1.1953327
1.1941912
1.1930927
1.1920371
1.1910236
1.1900517
1.1891205
1.1882291
1.1873765
1.1865618
1.1857837
1.1850412
1.1843331
1.1836584
1.1830159
1.1824044
1.1818228
1.1812702
1.1807453
1.1802471
1.1797747
1.1793271
1.1789032
1.1785022
1.1781231
1.1777651
1.1774272
1.1771087
1.1768087
1.1765264
1.1762612
1.1760123
1.1757788
1.17556
1.1753564
1.1751662
1.1749818
1.174812
1.1746823
1.174508
1.1742079
1.174326
1.1749521
1.2165437
1.2226598
1.2223275
1.2256051
1.2264833
1.228355
1.2294063
1.2304876
1.2311564
1.2316094
1.2317477
1.2316239
1.2312299
1.2305941
1.2297349
1.2286797
1.2274545
1.2260868
1.2246027
1.2230273
1.2213836
1.2196923
1.2179717
1.2162378
1.2145042
1.2127822
1.2110813
1.2094093
1.2077721
1.2061746
1.2046204
1.2031123
1.2016521
1.200241
1.1988796
1.1975682
1.1963067
1.1950944
1.1939308
1.192815
1.191746
1.1907226
1.1897437
1.1888079
1.1879141
1.1870608
1.1862468
1.1854707
1.1847312
1.1840271
1.183357
1.1827197
1.182114
1.1815387
1.1809927
1.1804747
1.1799838
1.1795189
1.179079
1.1786632
1.1782704
1.1778999
1.1775508
1.1772222
1.1769133
1.1766234
1.1763518
1.1760977
1.1758606
1.1756395
1.1754341
1.175245
1.1750697
1.1749021
1.1747556
1.1746471
1.1744849
1.1742235
1.1743933
1.1748811
1.2249506
1.2311487
1.2310639
1.234219
1.2352457
1.2369053
1.2377362
1.2384425
1.238676
1.2386095
1.2381861
1.2374667
1.2364674
1.2352305
1.2337893
1.2321815
1.230441
1.2286001
1.2266876
1.224729
1.2227462
1.2207577
1.218779
1.2168226
1.2148985
1.2130148
1.2111774
1.2093909
1.2076584
1.2059823
1.2043637
1.2028034
1.2013014
1.1998573
1.1984705
1.1971399
1.1958645
1.1946429
1.1934736
1.1923553
1.1912864
1.1902651
1.18929
1.1883596
1.1874722
1.1866263
1.1858204
1.185053
1.1843227
1.183628
1.1829677
1.1823403
1.1817446
1.1811794
1.1806434
1.1801356
1.1796549
1.1792002
1.1787705
1.178365
1.1779826
1.1776225
1.1772839
1.176966
1.176668
1.1763893
1.1761293
1.1758872
1.1756624
1.1754543
1.1752626
1.1750878
1.1749266
1.1747757
1.1746503
1.1745574
1.1744091
1.1742016
1.1743905
1.1747601
1.23484
1.2406884
1.2409014
1.2438008
1.2446374
1.24583
1.2461678
1.2462325
1.2457845
1.2449822
1.2438164
1.2423612
1.2406569
1.2387577
1.2367077
1.2345495
1.2323192
1.2300482
1.2277625
1.2254836
1.2232286
1.2210108
1.2188406
1.2167257
1.2146716
1.2126823
1.2107601
1.2089063
1.2071213
1.2054051
1.2037569
1.2021754
1.2006595
1.1992073
1.1978173
1.1964875
1.1952161
1.194001
1.1928404
1.1917324
1.1906749
1.1896661
1.1887042
1.1877875
1.1869141
1.1860825
1.1852909
1.1845378
1.1838218
1.1831412
1.1824948
1.1818811
1.181299
1.180747
1.1802242
1.1797292
1.1792611
1.1788188
1.1784014
1.1780079
1.1776374
1.1772892
1.1769624
1.1766562
1.1763701
1.1761034
1.1758555
1.1756257
1.1754136
1.1752185
1.1750406
1.1748796
1.1747323
1.1745979
1.174491
1.1744088
1.1742771
1.1741249
1.1743132
1.1745737
1.2460489
1.2511376
1.2513492
1.2536811
1.2540569
1.2544647
1.2540034
1.2531543
1.2517937
1.2500819
1.2480554
1.2458013
1.2433757
1.2408371
1.2382306
1.2355953
1.2329615
1.2303536
1.2277898
1.2252838
1.2228456
1.2204819
1.218197
1.2159937
1.2138728
1.2118346
1.2098781
1.2080021
1.2062047
1.2044839
1.2028374
1.2012627
1.1997575
1.1983192
1.1969454
1.1956337
1.1943816
1.1931868
1.1920471
1.1909602
1.1899241
1.1889366
1.1879958
1.1870999
1.1862471
1.1854355
1.1846635
1.1839296
1.1832321
1.1825697
1.1819408
1.1813442
1.1807785
1.1802426
1.1797353
1.1792555
1.178802
1.178374
1.1779704
1.1775905
1.1772332
1.1768979
1.1765838
1.1762903
1.1760166
1.1757622
1.1755265
1.1753091
1.1751094
1.1749271
1.1747622
1.1746142
1.1744801
1.1743615
1.1742701
1.1741964
1.1740837
1.173981
1.1741526
1.174324
1.2572649
1.2618202
1.2618942
1.2632413
1.2627456
1.2619591
1.2603534
1.2583385
1.2559054
1.2532136
1.2503287
1.2473351
1.2442875
1.2412339
1.2382084
1.2352373
1.2323387
1.2295254
1.2268055
1.2241836
1.2216622
1.2192416
1.216921
1.2146985
1.2125718
1.2105381
1.2085941
1.2067367
1.2049626
1.2032685
1.2016511
1.2001073
1.198634
1.1972281
1.195887
1.1946077
1.1933876
1.1922245
1.1911156
1.1900589
1.1890519
1.1880928
1.1871795
1.1863102
1.1854829
1.184696
1.1839477
1.1832366
1.1825611
1.1819198
1.1813112
1.1807342
1.1801873
1.1796694
1.1791795
1.1787163
1.178279
1.1778664
1.1774779
1.1771124
1.1767692
1.1764475
1.1761466
1.1758658
1.1756046
1.1753625
1.1751389
1.1749334
1.1747455
1.174575
1.174422
1.1742855
1.1741636
1.1740589
1.1739796
1.1739127
1.1738195
1.1737559
1.173902
1.1740047
1.2692941
1.2726916
1.272029
1.2715265
1.2695877
1.267222
1.2642695
1.2610419
1.2575985
1.2540671
1.2505083
1.2469812
1.2435208
1.2401538
1.2368962
1.2337577
1.2307433
1.2278544
1.2250901
1.2224481
1.219925
1.2175169
1.2152194
1.2130279
1.2109379
1.2089447
1.207044
1.2052314
1.2035028
1.2018544
1.2002825
1.1987835
1.197354
1.195991
1.1946914
1.1934525
1.1922715
1.1911459
1.1900734
1.1890515
1.1880781
1.1871512
1.1862688
1.1854291
1.1846303
1.1838706
1.1831485
1.1824624
1.1818109
1.1811925
1.1806059
1.1800498
1.1795231
1.1790246
1.1785532
1.1781078
1.1776875
1.1772914
1.1769185
1.1765681
1.1762394
1.1759317
1.1756442
1.1753764
1.1751277
1.1748977
1.1746858
1.1744916
1.1743147
1.174155
1.1740125
1.1738861
1.1737747
1.1736816
1.1736113
1.1735502
1.1734753
1.1734413
1.1735578
1.1736098
1.2808527
1.2804061
1.2782992
1.2755513
1.272023
1.2681882
1.2641202
1.2600027
1.2559014
1.2518876
1.247994
1.244245
1.2406498
1.2372127
1.2339342
1.2308112
1.2278386
1.2250105
1.2223203
1.2197615
1.2173273
1.2150112
1.2128067
1.2107077
1.2087086
1.2068041
1.2049894
1.2032599
1.2016113
1.2000397
1.1985413
1.1971127
1.1957506
1.1944519
1.1932136
1.1920331
1.1909078
1.1898351
1.1888128
1.1878386
1.1869106
1.1860267
1.1851853
1.1843844
1.1836225
1.1828979
1.1822091
1.1815547
1.1809333
1.1803436
1.1797843
1.1792542
1.1787521
1.1782771
1.177828
1.1774038
1.1770037
1.1766268
1.1762722
1.1759392
1.175627
1.1753349
1.1750623
1.1748086
1.1745733
1.1743559
1.174156
1.1739731
1.1738069
1.1736573
1.1735241
1.1734064
1.1733037
1.1732192
1.1731544
1.1730967
1.1730358
1.1730229
1.1731176
1.1731266
1.2848275
1.2816371
1.2780545
1.2738337
1.2693638
1.2648375
1.2603614
1.2560136
1.251826
1.2478201
1.2440007
1.2403683
1.2369186
1.2336442
1.2305354
1.2275829
1.2247774
1.2221103
1.2195733
1.2171586
1.2148589
1.2126682
1.210581
1.2085916
1.2066949
1.204886
1.2031605
1.2015141
1.199943
1.1984436
1.1970126
1.1956467
1.194343
1.1930986
1.191911
1.1907776
1.1896962
1.1886648
1.1876812
1.1867436
1.1858501
1.1849989
1.1841884
1.1834168
1.1826826
1.1819844
1.1813206
1.1806899
1.180091
1.1795226
1.1789836
1.1784729
1.1779892
1.1775316
1.1770991
1.1766908
1.1763057
1.175943
1.175602
1.1752818
1.1749817
1.1747011
1.1744394
1.1741959
1.1739702
1.1737617
1.1735701
1.1733949
1.1732359
1.1730927
1.1729652
1.1728527
1.1727552
1.1726745
1.1726106
1.1725561
1.1725076
1.1724949
1.1725434
1.1725499
1.2741934
1.2710731
1.2680469
1.2640476
1.260029
1.2559481
1.2519646
1.2481022
1.2443898
1.2408354
1.2374402
1.2342015
1.2311137
1.2281712
1.2253673
1.2226953
1.2201484
1.2177202
1.2154043
1.213195
1.2110865
1.2090731
1.2071505
1.2053145
1.2035613
1.2018869
1.200288
1.1987609
1.1973025
1.1959097
1.1945797
1.1933098
1.1920973
1.1909399
1.1898353
1.1887814
1.1877762
1.1868175
1.1859034
1.185032
1.1842015
1.1834105
1.1826572
1.1819402
1.181258
1.1806093
1.1799928
1.1794073
1.1788514
1.1783241
1.1778242
1.1773508
1.1769027
1.176479
1.1760788
1.1757012
1.1753453
1.1750104
1.1746956
1.1744003
1.1741237
1.1738653
1.1736243
1.1734003
1.1731927
1.1730011
1.1728249
1.1726639
1.1725177
1.172386
1.1722686
1.172165
1.1720753
1.1720002
1.1719392
1.1718893
1.1718504
1.1718343
1.1718485
1.1718559
1.2348444
1.2441643
1.2452845
1.2456571
1.2444371
1.2426624
1.2404271
1.2379925
1.2354383
1.2328511
1.2302695
1.2277257
1.2252365
1.2228138
1.2204642
1.2181916
1.2159979
1.2138835
1.2118478
1.2098897
1.2080079
1.2062005
1.2044648
1.2027985
1.2011993
1.199665
1.1981933
1.1967822
1.1954296
1.1941334
1.1928917
1.1917027
1.1905644
1.1894751
1.1884334
1.1874373
1.1864851
1.1855749
1.1847053
1.1838749
1.1830822
1.1823259
1.1816047
1.1809173
1.1802625
1.1796392
1.1790461
1.1784823
1.1779466
1.1774379
1.1769554
1.176498
1.1760648
1.175655
1.1752675
1.1749017
1.1745566
1.1742316
1.173926
1.1736389
1.1733698
1.173118
1.1728829
1.1726639
1.1724605
1.1722723
1.1720987
1.1719394
1.1717939
1.171662
1.1715434
1.1714376
1.1713448
1.1712648
1.1711972
1.1711415
1.171098
1.1710685
1.1710544
1.1710522
1.246227
1.2464199
1.2466707
1.2467127
1.2460358
1.2444663
1.2419723
1.2387689
1.2350786
1.2310499
1.227016
1.222891
1.2188477
1.2148684
1.2110455
1.2075114
1.2042417
1.2013223
1.1987167
1.1963899
1.1943568
1.1925466
1.1909723
1.1895818
1.1883719
1.1872854
1.1863019
1.185392
1.1845764
1.1838831
1.1832616
1.1826842
1.1821471
1.1816429
1.1811663
1.1807133
1.1802815
1.1798692
1.1794755
1.1790988
1.178739
1.1783957
1.1780679
1.1777559
1.1774592
1.1771773
1.1769097
1.1766558
1.1764151
1.1761871
1.175971
1.1757666
1.1755725
1.175389
1.1752137
1.1750486
1.174888
1.174739
1.1745879
1.1744537
1.1743041
1.1741862
1.1740258
1.173932
1.1737392
1.1736884
1.1734255
1.1734567
1.1730638
1.1732486
1.17259
1.1730748
1.1719864
1.1729696
1.171171
1.1729734
1.1700221
1.1731334
1.1683658
1.1736026
1.1025808
1.1072289
1.1139182
1.1215104
1.1297869
1.1380593
1.144945
1.1505897
1.1555372
1.1598297
1.16349
1.1666757
1.1694416
1.1718408
1.1739344
1.1757211
1.1772829
1.1785611
1.1796418
1.1804776
1.1811676
1.1816531
1.1820222
1.1822203
1.1823186
1.1823001
1.1822189
1.1820634
1.1818585
1.1816199
1.1813489
1.1810524
1.1807305
1.1803957
1.1800561
1.1797165
1.1793811
1.1790526
1.1787335
1.1784242
1.1781256
1.1778385
1.1775628
1.1772985
1.1770457
1.1768044
1.1765742
1.1763549
1.176146
1.1759473
1.1757582
1.1755786
1.1754073
1.1752448
1.1750885
1.1749409
1.1747962
1.1746615
1.1745238
1.1744008
1.1742629
1.1741529
1.1740038
1.1739134
1.1737337
1.1736801
1.1734344
1.173454
1.1730871
1.1732498
1.1726371
1.1730754
1.1720444
1.1729743
1.1712304
1.1729865
1.1700583
1.1731778
1.168372
1.1736689
1.2040345
1.2046515
1.2067363
1.2094178
1.2104832
1.2098416
1.2085641
1.2070088
1.2053012
1.2035533
1.2018035
1.2000972
1.1984398
1.1968564
1.1953466
1.1939147
1.1925756
1.191344
1.1902484
1.1892306
1.1882663
1.1873909
1.1865405
1.1857934
1.1851137
1.1844918
1.1839671
1.1834645
1.1830221
1.1824655
1.1819487
1.1814698
1.1810192
1.1805956
1.1801951
1.1798147
1.1794524
1.1791065
1.1787758
1.1784584
1.1781551
1.177865
1.1775873
1.1773224
1.1770698
1.176829
1.1765998
1.1763819
1.1761748
1.1759782
1.1757913
1.1756142
1.1754453
1.1752853
1.1751314
1.1749862
1.1748437
1.174711
1.174575
1.1744532
1.1743166
1.1742067
1.1740589
1.1739668
1.173789
1.1737305
1.1734885
1.1735002
1.1731353
1.1732855
1.1726888
1.1730974
1.1721038
1.1729809
1.1712903
1.1729801
1.1701176
1.173173
1.1684146
1.1736791
1.1662418
1.1661602
1.1684303
1.1734132
1.1770149
1.1781091
1.1786413
1.1790826
1.1794893
1.1799852
1.1804539
1.1809137
1.1813298
1.1817185
1.1819471
1.1823176
1.1823253
1.1826812
1.1825894
1.182827
1.1826554
1.18279
1.182582
1.1825809
1.1823446
1.1821735
1.1818377
1.1816072
1.1813229
1.1810356
1.1807381
1.1804366
1.1801321
1.1798267
1.1795227
1.1792219
1.1789261
1.1786366
1.1783541
1.1780798
1.1778147
1.1775591
1.1773132
1.177077
1.1768507
1.1766342
1.1764274
1.1762303
1.1760425
1.1758637
1.1756934
1.1755316
1.1753768
1.1752299
1.175088
1.1749537
1.1748212
1.1746977
1.1745697
1.1744555
1.1743251
1.1742215
1.1740778
1.173991
1.1738154
1.1737617
1.1735201
1.1735363
1.1731705
1.1733245
1.172722
1.1731381
1.172131
1.1730206
1.1713179
1.1730208
1.1701409
1.1732061
1.1684337
1.1737069
1.1737841
1.1753037
1.1788778
1.183511
1.1854119
1.1858418
1.1856729
1.1855561
1.1854312
1.1853282
1.1851805
1.1850468
1.18488
1.1847215
1.1845398
1.1843474
1.1841502
1.1839202
1.1836985
1.1834189
1.1831887
1.1828506
1.1825883
1.1822489
1.181963
1.1816459
1.181374
1.1810622
1.1807648
1.180469
1.1801763
1.1798876
1.1796034
1.1793243
1.1790505
1.1787823
1.17852
1.178264
1.1780142
1.1777714
1.1775361
1.1773085
1.1770888
1.1768771
1.1766736
1.1764785
1.1762916
1.1761129
1.1759423
1.1757795
1.175624
1.1754758
1.1753337
1.1751984
1.1750672
1.1749425
1.1748189
1.174703
1.1745822
1.1744739
1.1743491
1.1742495
1.1741102
1.1740256
1.1738534
1.1737998
1.1735615
1.1735757
1.1732131
1.1733611
1.1727675
1.1731712
1.1721785
1.1730489
1.1713621
1.1730416
1.170181
1.173226
1.168462
1.1737257
1.167484
1.1689186
1.1727399
1.1775104
1.1799715
1.1805072
1.1804223
1.1805055
1.1805569
1.1806433
1.1806598
1.1806958
1.1806963
1.1807096
1.1806945
1.1806839
1.180651
1.1806196
1.1805676
1.1805189
1.180443
1.1803807
1.1802858
1.1801942
1.1800755
1.1799503
1.1798013
1.1796484
1.1794826
1.1793081
1.1791252
1.1789359
1.1787414
1.178543
1.178342
1.1781397
1.1779372
1.1777358
1.1775358
1.1773389
1.1771459
1.1769574
1.1767738
1.1765956
1.1764231
1.1762567
1.1760964
1.1759425
1.1757946
1.1756529
1.1755169
1.1753866
1.175261
1.1751407
1.1750232
1.1749109
1.1747985
1.1746926
1.1745808
1.1744801
1.1743625
1.1742683
1.1741346
1.1740533
1.1738855
1.1738331
1.1735988
1.1736115
1.1732532
1.1733971
1.1728057
1.1732049
1.172215
1.173079
1.1713993
1.1730687
1.1702139
1.1732476
1.1684873
1.1737439
1.1666429
1.1684225
1.172678
1.1772812
1.1791836
1.1795581
1.1795031
1.1795286
1.1794997
1.1795336
1.1795147
1.1795416
1.1795238
1.1795348
1.1795161
1.1795036
1.1794688
1.1794383
1.179392
1.1793418
1.1792816
1.1792111
1.1791338
1.1790464
1.1789527
1.1788506
1.1787431
1.178627
1.1785046
1.1783759
1.1782414
1.178102
1.1779583
1.1778111
1.1776609
1.1775086
1.1773549
1.1772006
1.1770458
1.1768921
1.1767402
1.1765904
1.1764433
1.1762994
1.1761591
1.1760227
1.1758904
1.1757625
1.1756389
1.1755196
1.1754042
1.175293
1.1751849
1.1750804
1.1749775
1.1748783
1.1747778
1.1746822
1.17458
1.1744871
1.174377
1.1742882
1.1741603
1.174082
1.1739191
1.173867
1.1736377
1.1736474
1.1732945
1.173432
1.1728492
1.1732374
1.1722598
1.1731072
1.1714407
1.1730918
1.1702504
1.1732669
1.1685138
1.1737598
1.1641988
1.1662445