/*--------------------------------*- C++ -*----------------------------------*\
  =========                 |
  \\      /  F ield         | OpenFOAM: The Open Source CFD Toolbox
   \\    /   O peration     | Website:  https://openfoam.org
    \\  /    A nd           | Version:  6
     \\/     M anipulation  |
\*---------------------------------------------------------------------------*/
FoamFile
{
    version     2.0;
    format      ascii;
    class       volScalarField;
    location    "750";
    object      T;
}
// * * * * * * * * * * * * * * * * * * * * * * * * * * * * * * * * * * * * * //

dimensions      [0 0 0 1 0 0 0];

internalField   nonuniform List<scalar> 
16000
(
297.74149
296.59501
297.00431
296.84541
296.9874
296.95896
297.02795
297.03951
297.08577
297.1119
297.15099
297.1834
297.22076
297.25628
297.29385
297.33124
297.36964
297.40833
297.44763
297.48726
297.52726
297.5675
297.60791
297.64838
297.68881
297.72909
297.76909
297.80869
297.84776
297.88617
297.92378
297.96046
297.99606
298.03045
298.0635
298.09509
298.12508
298.15338
298.17988
298.20447
298.22709
298.24765
298.26611
298.28241
298.29653
298.30844
298.31813
298.32561
298.33089
298.33401
298.33498
298.33387
298.33073
298.32563
298.31862
298.30978
298.29918
298.2869
298.27305
298.25773
298.24102
298.22304
298.20385
298.18369
298.16248
298.14084
298.11815
298.09612
298.0722
298.05166
298.02541
298.0106
297.97769
297.97911
297.92602
297.97333
297.87483
298.01545
297.83977
298.06926
297.76536
296.62946
297.05584
296.894
297.04121
297.01284
297.08489
297.09818
297.14673
297.17511
297.21629
297.25106
297.29051
297.32835
297.36806
297.40767
297.44818
297.48899
297.53029
297.57187
297.61371
297.65569
297.6977
297.73963
297.78136
297.82275
297.86367
297.90399
297.94355
297.98221
298.01983
298.05625
298.09135
298.12497
298.15699
298.18728
298.21573
298.24225
298.26672
298.28909
298.30928
298.32724
298.34295
298.35637
298.3675
298.37634
298.38291
298.38725
298.38939
298.38937
298.38727
298.38313
298.37704
298.36908
298.35933
298.34786
298.33475
298.32009
298.304
298.28655
298.26785
298.248
298.22709
298.20526
298.18258
298.15936
298.13551
298.1118
298.0873
298.06443
298.03925
298.01987
297.99182
297.98279
297.94218
297.96804
297.89414
298.00238
297.86109
298.04701
297.81055
296.69009
297.12616
296.96284
297.11424
297.0877
297.16217
297.17813
297.2288
297.25995
297.30332
297.34076
297.38252
297.42289
297.46492
297.50693
297.54969
297.59271
297.6361
297.67968
297.72337
297.76705
297.81059
297.85385
297.8967
297.93898
297.98054
298.02123
298.06089
298.09936
298.13649
298.17211
298.2061
298.2383
298.2686
298.29687
298.32302
298.34696
298.3686
298.38791
298.40483
298.41935
298.43145
298.44115
298.44847
298.45344
298.45611
298.45654
298.45479
298.45094
298.44508
298.43728
298.42764
298.41626
298.40323
298.38864
298.37257
298.35512
298.3364
298.3165
298.29552
298.27354
298.25067
298.22701
298.20267
298.17785
298.15263
298.12743
298.102
298.07743
298.05217
298.03009
298.00425
297.98956
297.9559
297.9678
297.91091
297.99535
297.8786
298.04492
297.8757
296.7756
297.21578
297.05218
297.20746
297.1833
297.26022
297.27922
297.33219
297.36636
297.41212
297.45244
297.49667
297.53973
297.58421
297.62871
297.6738
297.71907
297.76456
297.81008
297.85554
297.90078
297.94566
297.99002
298.03369
298.07652
298.11833
298.15894
298.19819
298.2359
298.27193
298.3061
298.33828
298.36833
298.39615
298.42162
298.44466
298.46521
298.48321
298.49864
298.5115
298.52178
298.52952
298.53476
298.53755
298.53797
298.53609
298.53201
298.52581
298.5176
298.50748
298.49556
298.48195
298.46676
298.45009
298.43205
298.41273
298.39222
298.37063
298.34805
298.32458
298.3003
298.2753
298.24968
298.22355
298.19705
298.17033
298.14364
298.11704
298.09104
298.06515
298.04117
298.016
297.99749
297.96859
297.96985
297.92497
297.99172
297.89386
298.0423
297.96044
296.88772
297.32528
297.16282
297.32144
297.30068
297.37992
297.40259
297.45796
297.49558
297.54395
297.58743
297.63436
297.68031
297.72744
297.77456
297.82208
297.86965
297.91724
297.96466
298.01178
298.05842
298.10441
298.14958
298.19373
298.23667
298.27823
298.31821
298.35643
298.39271
298.42689
298.45883
298.48838
298.51542
298.53985
298.5616
298.58061
298.59684
298.61027
298.62092
298.6288
298.63399
298.63652
298.6365
298.634
298.62914
298.62204
298.6128
298.60156
298.58844
298.57357
298.55708
298.53908
298.51969
298.49905
298.47725
298.4544
298.43057
298.40589
298.38044
298.35431
298.32758
298.30034
298.27265
298.24463
298.21641
298.18812
298.15997
298.1321
298.10482
298.07806
298.05269
298.02753
298.00655
297.9805
297.9743
297.93802
297.99041
297.90797
298.04497
298.06618
297.02411
297.45595
297.29616
297.45758
297.44117
297.52266
297.54955
297.60751
297.64891
297.70013
297.74701
297.79685
297.84586
297.89576
297.94559
297.99558
298.04544
298.09505
298.14424
298.19282
298.24059
298.28735
298.3329
298.37703
298.41952
298.46019
298.49881
298.53522
298.56923
298.60069
298.62944
298.65538
298.67841
298.69845
298.71545
298.7294
298.7403
298.74818
298.75308
298.75509
298.75429
298.75079
298.74473
298.73622
298.72543
298.71248
298.69754
298.68076
298.66228
298.64225
298.62081
298.59811
298.57425
298.54938
298.5236
298.49703
298.46973
298.44181
298.41337
298.38448
298.35521
298.32564
298.29584
298.26589
298.23591
298.20602
298.17642
298.14725
298.11875
298.09101
298.0645
298.03893
298.01617
297.99198
297.98093
297.95043
297.99095
297.92064
298.04982
298.19486
297.17575
297.60928
297.45375
297.61738
297.60624
297.68991
297.72155
297.78227
297.82779
297.8821
297.9326
297.98557
298.03779
298.09058
298.14317
298.19563
298.2477
298.29921
298.34994
298.39967
298.44818
298.49524
298.54061
298.58406
298.62536
298.66431
298.70069
298.73432
298.76504
298.79269
298.81715
298.83835
298.8562
298.87069
298.88181
298.88958
298.89406
298.89533
298.89349
298.88867
298.88101
298.87066
298.85781
298.84261
298.82525
298.80592
298.78478
298.76202
298.7378
298.71228
298.68563
298.65797
298.62944
298.60017
298.57028
298.53985
298.50899
298.47776
298.44626
298.41456
298.38272
298.35081
298.31888
298.287
298.25526
298.2238
298.19276
298.16232
298.13267
298.10395
298.07647
298.05034
298.02634
298.00291
297.98798
297.96266
297.993
297.93308
298.05607
298.34742
297.34975
297.78558
297.63604
297.80145
297.79659
297.88254
297.91951
297.98333
298.03335
298.09108
298.14548
298.20181
298.25739
298.31319
298.36855
298.42343
298.47757
298.53072
298.58264
298.63308
298.68178
298.72847
298.77289
298.8148
298.85396
298.89014
298.92316
298.95282
298.979
299.00156
299.02044
299.03558
299.04696
299.05462
299.0586
299.05899
299.05591
299.04949
299.03991
299.02734
299.01197
298.99402
298.97369
298.95119
298.92675
298.90057
298.87285
298.84379
298.81356
298.78234
298.75028
298.71754
298.68424
298.6505
298.61643
298.58214
298.54768
298.51315
298.4786
298.44411
298.40973
298.3755
298.34148
298.30771
298.27427
298.24128
298.20886
298.1772
298.14646
298.1168
298.08847
298.06172
298.03686
298.01395
297.99636
297.97473
297.99612
297.94533
298.06216
298.5241
297.54843
297.98565
297.844
298.01091
298.01343
298.10192
298.14486
298.21219
298.26713
298.32867
298.38724
298.44718
298.50625
298.56511
298.62318
298.68032
298.73623
298.79063
298.84322
298.89371
298.94181
298.98723
299.02968
299.06891
299.10469
299.13679
299.16504
299.1893
299.20946
299.22544
299.23723
299.24483
299.2483
299.24774
299.24326
299.23503
299.22322
299.20806
299.18976
299.16857
299.14473
299.11849
299.09011
299.05983
299.0279
298.99455
298.95998
298.92441
298.88803
298.851
298.81349
298.77563
298.73756
298.69937
298.66118
298.62306
298.58509
298.54732
298.50981
298.47261
298.43577
298.39931
298.36328
298.32771
298.29266
298.25822
298.22452
298.19171
298.15997
298.12945
298.10038
298.07301
298.04756
298.02479
298.00538
297.98671
298.0001
297.95744
298.06947
298.72478
297.77373
298.21115
298.07936
298.24757
298.25858
298.34996
298.3995
298.47084
298.53109
298.59683
298.6598
298.72353
298.78613
298.84799
298.90856
298.96762
299.02482
299.07982
299.13229
299.18188
299.22829
299.2712
299.31033
299.34541
299.37624
299.40262
299.42442
299.44154
299.45395
299.46163
299.46465
299.4631
299.45711
299.44686
299.43257
299.41448
299.39283
299.36792
299.34003
299.30946
299.27651
299.24146
299.2046
299.1662
299.12653
299.08582
299.0443
299.00217
298.95962
298.91683
298.87392
298.83105
298.78831
298.74581
298.70363
298.66184
298.6205
298.57964
298.53931
298.49955
298.46039
298.42184
298.38394
298.3467
298.31017
298.2744
298.23953
298.20569
298.17305
298.14176
298.11206
298.08414
298.0583
298.03547
298.01495
297.99848
298.00478
297.96936
298.07555
298.94641
298.02742
298.46391
298.34403
298.51346
298.53409
298.62883
298.68559
298.76149
298.82744
298.89773
298.96528
299.03288
299.0989
299.16352
299.22617
299.28655
299.34424
299.39887
299.45005
299.49743
299.54065
299.57941
299.61344
299.6425
299.66643
299.68509
299.69842
299.7064
299.70908
299.70656
299.69898
299.68656
299.66952
299.64815
299.62274
299.59362
299.56112
299.5256
299.48741
299.44688
299.40435
299.36014
299.31456
299.26789
299.22041
299.17234
299.12392
299.07534
299.02678
298.97838
298.93029
298.8826
298.83543
298.78884
298.7429
298.69767
298.65319
298.60946
298.56653
298.52441
298.48313
298.44269
298.40309
298.36435
298.32649
298.28957
298.25367
298.21893
298.18551
298.15358
298.12335
298.09499
298.06889
298.04587
298.0248
298.0099
298.0099
297.9813
298.08206
299.19196
298.31138
298.7459
298.64014
298.81091
298.84232
298.94106
299.00566
299.08671
299.1587
299.23383
299.306
299.37738
299.44649
299.51334
299.57731
299.63801
299.69499
299.74781
299.79607
299.83938
299.87741
299.90988
299.93656
299.95728
299.97194
299.98051
299.98303
299.97961
299.9704
299.95564
299.93559
299.91058
299.88095
299.84709
299.80939
299.76826
299.7241
299.67733
299.62834
299.5775
299.52517
299.47169
299.41738
299.36251
299.30735
299.25213
299.19705
299.14228
299.088
299.03432
298.98135
298.92919
298.87791
298.82756
298.77819
298.72983
298.68249
298.63619
298.59093
298.54672
298.50356
298.46145
298.42037
298.38034
298.34136
298.30345
298.2667
298.23122
298.19718
298.16474
298.13409
298.1054
298.07916
298.05586
298.03466
298.02085
298.01521
297.99212
298.08711
299.46644
298.62828
299.05985
298.97054
299.14293
299.18629
299.28979
299.3628
299.44955
299.5278
299.60788
299.68447
299.75922
299.83072
299.89883
299.96286
300.02236
300.07682
300.12578
300.16883
300.20562
300.23584
300.25929
300.27583
300.28539
300.28802
300.2838
300.27294
300.25568
300.23234
300.20329
300.16895
300.12975
300.08617
300.03869
299.98778
299.93392
299.87759
299.81922
299.75923
299.69803
299.63596
299.57338
299.51056
299.4478
299.38532
299.32332
299.262
299.20149
299.14193
299.08341
299.02602
298.96982
298.91485
298.86115
298.80874
298.75763
298.70781
298.65927
298.612
298.566
298.52125
298.47774
298.43545
298.39436
298.35447
298.31579
298.27839
298.24235
298.20784
298.17504
298.14411
298.11523
298.08892
298.06534
298.04427
298.03117
298.02093
298.00244
298.09128
299.77211
298.98151
299.40914
299.33872
299.51317
299.56957
299.67868
299.76057
299.8534
299.93792
300.02273
300.10315
300.18037
300.25299
300.32074
300.38288
300.43889
300.48825
300.53052
300.56532
300.59237
300.61148
300.62257
300.62564
300.62082
300.6083
300.58839
300.56144
300.5279
300.48826
300.44304
300.39281
300.33812
300.27954
300.21765
300.153
300.08609
300.01743
299.94748
299.87666
299.80537
299.73393
299.66268
299.59187
299.52174
299.4525
299.38432
299.31734
299.25167
299.1874
299.12461
299.06334
299.00363
298.94549
298.88892
298.83393
298.7805
298.7286
298.67821
298.62931
298.58186
298.53584
298.49122
298.44798
298.4061
298.36555
298.32634
298.28849
298.25211
298.21731
298.1843
298.15322
298.12429
298.09798
298.07419
298.05344
298.04033
298.02647
298.01193
298.09438
300.1118
299.37481
299.79759
299.74858
299.92572
299.9962
300.11187
300.2029
300.30192
300.39229
300.48111
300.56412
300.64217
300.71382
300.77869
300.83601
300.88527
300.92597
300.95776
300.98037
300.99368
300.99769
300.99251
300.97837
300.95563
300.92472
300.88616
300.84054
300.78849
300.73068
300.66779
300.60049
300.52946
300.45534
300.37876
300.30028
300.22046
300.13978
300.05868
299.97758
299.89681
299.81669
299.73749
299.65943
299.5827
299.50746
299.43384
299.36193
299.29181
299.22353
299.15712
299.0926
299.02996
298.96921
298.91031
298.85324
298.79797
298.74444
298.69262
298.64247
298.59394
298.54699
298.50159
298.4577
298.4153
298.37435
298.33484
298.29679
298.26026
298.22538
298.19231
298.16122
298.13239
298.10614
298.08225
298.062
298.04863
298.03199
298.02116
298.09586
300.48875
299.8129
300.23
300.20492
300.38557
300.47097
300.59416
300.69396
300.7988
300.89388
300.98513
301.06854
301.14467
301.21208
301.27033
301.31868
301.35671
301.38405
301.40054
301.40612
301.40094
301.38527
301.35953
301.32424
301.28003
301.22762
301.16777
301.10129
301.029
300.95172
300.87025
300.78536
300.69777
300.60818
300.5172
300.42541
300.33331
300.24138
300.14999
300.05951
299.97023
299.88239
299.79621
299.71186
299.62947
299.54915
299.47096
299.39497
299.3212
299.24967
299.18036
299.11327
299.04836
298.9856
298.92493
298.86632
298.80969
298.75501
298.70219
298.65119
298.60196
298.55444
298.50858
298.46435
298.42171
298.38063
298.34108
298.30306
298.26662
298.23184
298.19889
298.16794
298.13931
298.11318
298.08934
298.06958
298.05568
298.0375
298.02965
298.09533
300.90618
300.30161
300.71232
300.71372
300.89891
300.99974
301.13152
301.23774
301.34712
301.44475
301.53554
301.61577
301.68572
301.74405
301.79037
301.82411
301.84505
301.85313
301.84849
301.83145
301.80252
301.76235
301.71173
301.65154
301.58272
301.50625
301.42314
301.33437
301.24092
301.1437
301.04358
300.94136
300.83777
300.73346
300.62903
300.52498
300.42178
300.3198
300.21936
300.12075
300.02419
299.92985
299.83786
299.74834
299.66137
299.57698
299.4952
299.41603
299.33948
299.26549
299.19405
299.12509
299.05857
298.99441
298.93256
298.87293
298.81546
298.76008
298.70671
298.65528
298.60572
298.55799
298.51201
298.46775
298.42515
298.3842
298.34485
298.3071
298.27097
298.23651
298.20386
298.1732
298.14486
298.11892
298.09532
298.07603
298.06118
298.04251
298.03711
298.09299
301.36616
300.84941
301.25249
301.28274
301.47243
301.58827
301.72447
301.83801
301.94899
302.04533
302.13083
302.20223
302.25966
302.30207
302.32929
302.34112
302.33778
302.31965
302.28737
302.24176
302.18382
302.11463
302.03539
301.94732
301.85165
301.7496
301.64233
301.53096
301.41651
301.29992
301.18204
301.06363
300.94536
300.82781
300.71147
300.59677
300.48405
300.37361
300.26568
300.16044
300.05803
299.95855
299.86206
299.76859
299.67818
299.5908
299.50643
299.42504
299.34656
299.27095
299.19812
299.12801
299.06052
298.99559
298.93311
298.87301
298.81519
298.75958
298.70608
298.65461
298.60511
298.5575
298.51173
298.46773
298.42547
298.3849
298.34599
298.30873
298.27313
298.23921
298.20704
298.17683
298.14887
298.12317
298.09999
298.08111
298.0651
298.04665
298.04306
298.08914
301.88266
301.47025
301.86003
301.92169
302.11192
302.23983
302.3817
302.49722
302.60414
302.69256
302.76513
302.81928
302.85531
302.87269
302.87179
302.85303
302.81728
302.76557
302.69918
302.61952
302.52809
302.42643
302.31609
302.19856
302.07529
301.94759
301.8167
301.68373
301.54966
301.41536
301.28159
301.14898
301.01809
300.88936
300.76317
300.63981
300.51952
300.40247
300.28879
300.17856
300.07186
299.96868
299.86902
299.77287
299.68018
299.59089
299.50493
299.42223
299.3427
299.26624
299.19277
299.12217
299.05436
298.98923
298.92667
298.86659
298.8089
298.75349
298.70027
298.64915
298.60006
298.55292
298.50766
298.46422
298.42255
298.38261
298.34438
298.30782
298.27294
298.23975
298.20829
298.17871
298.15122
298.12583
298.1031
298.0845
298.06759
298.04995
298.04759
298.08357
302.46268
302.16447
302.53595
302.62465
302.81475
302.96477
303.1029
303.21265
303.30638
303.37635
303.42493
303.4504
303.45367
303.43508
303.39584
303.33729
303.26112
303.16915
303.06333
302.94565
302.81804
302.68239
302.54046
302.39386
302.24407
302.09239
301.93995
301.78776
301.63664
301.4873
301.34033
301.1962
301.05528
300.91788
300.78421
300.65444
300.52867
300.40697
300.28937
300.17586
300.06641
299.96098
299.85949
299.76186
299.66802
299.57785
299.49125
299.40812
299.32833
299.25178
299.17834
299.1079
299.04035
298.97556
298.91343
298.85385
298.79671
298.74192
298.68936
298.63894
298.59059
298.54423
298.49977
298.45716
298.41634
298.37727
298.33992
298.30427
298.2703
298.23801
298.20743
298.17868
298.15183
298.12688
298.10457
298.08609
298.06889
298.05258
298.05011
298.07635
303.11393
302.93401
303.27981
303.41584
303.62341
303.75457
303.88018
303.97135
304.03865
304.07601
304.08638
304.06933
304.02692
303.96076
303.87321
303.76668
303.64376
303.50701
303.35895
303.20194
303.03818
302.86963
302.69806
302.52499
302.35174
302.17941
302.00893
301.84106
301.67641
301.51544
301.35854
301.20597
301.05794
300.91457
300.77593
300.64206
300.51294
300.38854
300.2688
300.15363
300.04294
299.93661
299.83453
299.73658
299.64262
299.55252
299.46616
299.38339
299.30409
299.22811
299.15533
299.08562
299.01886
298.95491
298.89367
298.83501
298.77883
298.72501
298.67346
298.62407
298.57677
298.53146
298.48808
298.44655
298.40682
298.36884
298.33257
298.298
298.2651
298.23388
298.20435
298.1766
298.1506
298.12633
298.10458
298.0862
298.06857
298.05265
298.05122
298.06827
303.8451
303.80221
304.15795
304.29728
304.48087
304.59788
304.69578
304.7501
304.77271
304.75938
304.71468
304.64009
304.53927
304.41534
304.27188
304.11227
303.9398
303.75749
303.56807
303.37397
303.17728
302.97979
302.78299
302.5881
302.39613
302.20784
302.02386
301.84464
301.67051
301.50172
301.33839
301.18062
301.02842
300.88177
300.74062
300.60487
300.47442
300.34915
300.22892
300.1136
300.00302
299.89703
299.79548
299.69821
299.60506
299.51589
299.43053
299.34883
299.27066
299.19586
299.12429
299.05582
298.99032
298.92765
298.8677
298.81034
298.75547
298.70297
298.65273
298.60467
298.55868
298.5147
298.47263
298.43241
298.39398
298.35729
298.3223
298.28898
298.25731
298.22729
298.19893
298.17231
298.14733
298.12401
298.10308
298.08482
298.06655
298.05067
298.05091
298.05968
304.67898
304.79413
305.10602
305.24148
305.39404
305.47026
305.51437
305.5078
305.46292
305.37913
305.26289
305.118
304.94971
304.76246
304.56066
304.34821
304.12856
303.90468
303.67906
303.45375
303.23044
303.01043
302.79475
302.58417
302.37928
302.18046
301.98799
301.80202
301.62261
301.44978
301.28346
301.12357
300.96999
300.82255
300.68112
300.54551
300.41553
300.29101
300.17176
300.05759
299.94831
299.84373
299.74368
299.64798
299.55645
299.46892
299.38524
299.30523
299.22875
299.15565
299.08577
299.01899
298.95515
298.89415
298.83584
298.78012
298.72686
298.67597
298.62732
298.58084
298.53642
298.49399
298.45346
298.41476
298.37783
298.34263
298.30909
298.27719
298.2469
298.21821
298.19115
298.16574
298.14188
298.11968
298.09976
298.08195
298.06387
298.04849
298.04778
298.05005
305.61339
305.86168
306.11791
306.21897
306.30584
306.31098
306.27218
306.17908
306.04574
305.87563
305.67724
305.45634
305.21915
304.97067
304.71535
304.45681
304.19799
303.94123
303.68832
303.44063
303.19915
302.96458
302.73741
302.5179
302.30623
302.1024
301.9064
301.7181
301.53736
301.364
301.19781
301.03857
300.88606
300.74004
300.60028
300.46654
300.33859
300.21622
300.09919
299.9873
299.88032
299.77807
299.68035
299.58696
299.49773
299.41248
299.33104
299.25325
299.17895
299.10798
299.04021
298.97549
298.91369
298.85468
298.79834
298.74454
298.69318
298.64415
298.59735
298.55268
298.51005
298.46937
298.43058
298.3936
298.35836
298.32481
298.2929
298.26259
298.23384
298.20664
298.18101
298.15693
298.13432
298.11333
298.09445
298.07722
298.05976
298.04522
298.04311
298.04036
306.62029
306.96047
307.12944
307.15634
307.13934
307.03807
306.88731
306.6864
306.45117
306.18873
305.90842
305.61668
305.31933
305.02069
304.72418
304.43234
304.14699
303.86943
303.60052
303.34078
303.09049
302.84975
302.61854
302.3967
302.18405
301.98034
301.78529
301.59861
301.42
301.24916
301.08577
300.92954
300.78018
300.63741
300.50095
300.37053
300.2459
300.12682
300.01304
299.90435
299.80051
299.70134
299.60662
299.51617
299.42981
299.34736
299.26864
299.1935
299.12178
299.05334
298.98802
298.9257
298.86624
298.80951
298.7554
298.70379
298.65457
298.60764
298.56289
298.52024
298.47959
298.44087
298.404
298.36891
298.33552
298.3038
298.27367
298.24511
298.21806
298.19251
298.16846
298.14587
298.12467
298.10505
298.0873
298.07085
298.05445
298.04115
298.03728
298.03059
307.8603
308.01544
308.04483
307.94359
307.77798
307.53978
307.25988
306.94635
306.61413
306.27121
305.92533
305.58141
305.24331
304.91354
304.59381
304.28514
303.98809
303.70287
303.42947
303.16771
302.91732
302.67793
302.44917
302.23061
302.02183
301.82242
301.63195
301.45003
301.27627
301.11031
300.95179
300.80039
300.65577
300.51765
300.38572
300.25972
300.13938
300.02447
299.91474
299.80995
299.7099
299.61439
299.52322
299.4362
299.35315
299.27391
299.19831
299.12618
299.05739
298.99178
298.92923
298.86958
298.81273
298.75854
298.70691
298.65772
298.61086
298.56625
298.52377
298.48333
298.44487
298.40829
298.37351
298.34048
298.30913
298.27939
298.25122
298.22457
298.19939
298.17567
298.15337
298.13246
298.11288
298.09479
298.07836
298.06296
298.04792
298.03594
298.03069
298.02179
308.73532
308.79761
308.63138
308.3641
308.03777
307.66886
307.27991
306.88163
306.48424
306.09327
305.71295
305.34549
304.99229
304.65398
304.33063
304.02202
303.72772
303.4472
303.17988
302.92515
302.6824
302.45104
302.23048
302.02015
301.81952
301.6281
301.44544
301.27111
301.10469
300.9458
300.7941
300.64925
300.51093
300.37884
300.25269
300.13224
300.01722
299.9074
299.80254
299.70243
299.60688
299.51568
299.42866
299.34563
299.26642
299.19087
299.11884
299.05015
298.98469
298.9223
298.86286
298.80624
298.75232
298.70099
298.65213
298.60564
298.56142
298.51938
298.47941
298.44144
298.40539
298.37117
298.33872
298.30796
298.27884
298.25129
298.22527
298.20072
298.17761
298.1559
298.13556
298.11654
298.09882
298.08251
298.06764
298.05366
298.04034
298.03001
298.02425
298.01339
308.97755
308.89503
308.5628
308.16441
307.73763
307.30164
306.86921
306.44735
306.04037
305.65017
305.2776
304.92268
304.58498
304.26369
303.95807
303.66725
303.39043
303.1268
302.87564
302.63621
302.40788
302.19005
301.9822
301.7838
301.59441
301.41357
301.24088
301.07594
300.9184
300.76791
300.62414
300.4868
300.35559
300.23024
300.11048
299.99608
299.88679
299.78242
299.68275
299.5876
299.49678
299.41012
299.32744
299.24858
299.17339
299.1017
299.03338
298.96829
298.90629
298.84726
298.79107
298.73761
298.68675
298.6384
298.59245
298.5488
298.50735
298.46801
298.4307
298.39533
298.36182
298.3301
298.3001
298.27176
298.24501
298.21979
298.19606
298.17377
298.15287
298.13333
298.11511
298.09816
298.08248
298.06813
298.05506
298.04294
298.03176
298.02283
298.01668
298.00804
307.85285
307.91608
307.58268
307.25686
306.87921
306.49906
306.11937
305.74939
305.39108
305.04622
304.71515
304.39786
304.09409
303.80342
303.52542
303.25962
303.0055
302.76257
302.53033
302.30832
302.09605
301.89307
301.699
301.51349
301.33616
301.16666
301.00463
300.84976
300.70174
300.56027
300.42506
300.29586
300.17242
300.05449
299.94186
299.83431
299.73163
299.6336
299.54001
299.45069
299.36546
299.28416
299.20663
299.13272
299.06228
298.99519
298.93129
298.87048
298.81262
298.75759
298.70528
298.65558
298.6084
298.56361
298.52113
298.48087
298.44273
298.40663
298.37248
298.34021
298.30974
298.28101
298.25394
298.22847
298.20454
298.18211
298.16111
298.1415
298.12324
298.10628
298.0906
298.07616
298.06294
298.05096
298.04017
298.03043
298.02178
298.01475
298.00945
298.00387
304.68678
305.24166
305.38622
305.42011
305.30967
305.1406
304.92721
304.69141
304.4426
304.18843
303.93353
303.68108
303.43323
303.19137
302.95641
302.72889
302.50913
302.29727
302.09332
301.89721
301.70882
301.52797
301.35443
301.18795
301.02828
300.87518
300.72842
300.58775
300.45297
300.32386
300.20021
300.08181
299.96849
299.86006
299.75635
299.65719
299.5624
299.47182
299.38529
299.30267
299.22381
299.14858
299.07683
299.00845
298.94331
298.88128
298.82225
298.76612
298.71276
298.66208
298.61398
298.56835
298.52511
298.48415
298.4454
298.40876
298.37415
298.3415
298.31073
298.28176
298.25454
298.22898
298.20503
298.18263
298.16173
298.14226
298.12419
298.10747
298.09205
298.0779
298.06498
298.05327
298.04274
298.03338
298.02516
298.01804
298.01204
298.00724
298.00367
298.00101
308.06216
308.13337
307.74691
307.04275
306.19857
305.37134
304.65169
304.04439
303.53021
303.08907
302.68095
302.31555
301.9891
301.69231
301.4122
301.15259
300.90881
300.68675
300.48024
300.29346
300.12031
299.96675
299.82515
299.69849
299.58217
299.47981
299.38584
299.30231
299.22423
299.15422
299.09152
299.03379
298.98005
298.92946
298.88147
298.83569
298.79179
298.74956
298.70878
298.66949
298.63157
298.59488
298.55953
298.52536
298.49229
298.46032
298.42945
298.39961
298.37079
298.34292
298.31598
298.28991
298.26464
298.24015
298.21635
298.19322
298.17062
298.14862
298.12692
298.10591
298.08477
298.06473
298.04362
298.02485
298.00298
297.98652
297.96262
297.95047
297.92058
297.91729
297.88172
297.89238
297.84111
297.87758
297.80312
297.87915
297.78311
297.90267
297.80702
297.94048
306.18169
305.54275
304.93751
304.19267
303.35895
302.61719
302.03288
301.60565
301.29969
301.0654
300.87569
300.71423
300.57061
300.43794
300.31084
300.19295
300.07526
299.97099
299.86417
299.77057
299.67487
299.59256
299.5093
299.43705
299.36516
299.30088
299.23731
299.18125
299.12573
299.07306
299.02348
298.97613
298.93025
298.88574
298.84255
298.80065
298.75999
298.72056
298.68225
298.64522
298.60938
298.57466
298.5411
298.50866
298.47724
298.44684
298.41744
298.389
298.3615
298.33489
298.30913
298.28417
298.25995
298.23643
298.21354
298.19125
298.16942
298.14814
298.12708
298.10665
298.08604
298.06643
298.04576
298.02727
298.00578
297.9894
297.96586
297.95372
297.92428
297.92067
297.8861
297.89577
297.84513
297.88114
297.80688
297.88299
297.78611
297.90853
297.80728
297.94835
300.59228
300.55265
300.05014
299.29886
298.83969
298.75694
298.79543
298.87103
298.96134
299.0511
299.13243
299.2021
299.25945
299.30364
299.33443
299.35862
299.36558
299.36933
299.34678
299.33238
299.29955
299.27674
299.23858
299.20911
299.16978
299.13514
299.09715
299.06246
299.02328
298.98398
298.94507
298.90627
298.86734
298.82871
298.79065
298.75327
298.71668
298.68093
298.64601
298.6122
298.57926
298.54722
298.51627
298.48611
298.45687
298.42852
298.40105
298.37442
298.3486
298.32358
298.2993
298.27572
298.25278
298.23048
298.20869
298.18746
298.16654
298.14618
298.12584
298.10624
298.08613
298.0673
298.04689
298.0292
298.00764
297.99223
297.96815
297.95717
297.92644
297.92488
297.88782
297.90043
297.84665
297.88634
297.80851
297.889
297.78686
297.91458
297.80773
297.95416
302.95889
302.99729
302.46739
301.2457
300.33099
300.09319
300.01182
299.96323
299.92368
299.86054
299.80135
299.74178
299.68554
299.6289
299.598
299.52701
299.53156
299.43683
299.44038
299.35056
299.35206
299.2675
299.25523
299.1848
299.15609
299.10135
299.08063
299.02615
298.98579
298.94605
298.90666
298.86834
298.83091
298.79437
298.75866
298.72375
298.68962
298.65627
298.62382
298.59216
298.56122
298.53109
298.50174
298.47324
298.44556
298.41868
298.39259
298.36726
298.34266
298.31879
298.29558
298.27302
298.25102
298.22959
298.2086
298.18812
298.16787
298.14813
298.12832
298.10922
298.08948
298.07105
298.05084
298.03347
298.01195
297.9968
297.97258
297.96188
297.93119
297.92954
297.89233
297.90506
297.85169
297.89065
297.81171
297.89309
297.78985
297.91922
297.80934
297.95883
302.15197
301.80885
300.94074
299.73925
299.20902
299.06971
299.09095
299.09991
299.10508
299.10251
299.1053
299.10443
299.10426
299.10112
299.09741
299.09077
299.08322
299.07265
299.061
299.05092
299.03146
299.0251
299.00463
298.99089
298.96803
298.94691
298.91807
298.89377
298.86704
298.83945
298.81133
298.78279
298.75394
298.72492
298.69588
298.66693
298.63817
298.60968
298.58166
298.55406
298.52686
298.50016
298.47404
298.44849
298.42353
298.39919
298.37544
298.35228
298.32971
298.3077
298.28622
298.26525
298.24472
298.22465
298.2049
298.18555
298.16632
298.14751
298.1285
298.11016
298.09102
298.07321
298.05337
298.03654
298.01515
298.00052
297.97617
297.966
297.93467
297.93402
297.8953
297.90975
297.85392
297.8955
297.81419
297.89815
297.79143
297.92438
297.81032
297.9636
302.23251
301.90044
300.96763
299.76201
299.11897
298.97837
299.01713
299.01602
299.01346
299.00492
299.00509
299.0008
298.9978
298.99198
298.98627
298.97825
298.97014
298.95978
298.94918
298.93546
298.92319
298.90564
298.89008
298.87118
298.85324
298.8335
298.81475
298.79358
298.77199
298.74991
298.72734
298.70432
298.68094
298.65732
298.63351
298.60959
298.58564
298.56172
298.53805
298.51449
298.49108
298.46794
298.44512
298.42266
298.40059
298.37892
298.35766
298.33682
298.3164
298.29638
298.27674
298.25746
298.23849
298.21985
298.2014
298.18323
298.16505
298.1472
298.12903
298.11144
298.09292
298.07569
298.05628
298.03987
298.01872
298.00443
297.9801
297.97023
297.93888
297.93847
297.89985
297.91419
297.85761
297.90011
297.81708
297.90259
297.79374
297.9292
297.81153
297.96802
301.90047
301.48515
300.44474
299.26598
298.75942
298.67377
298.69946
298.70803
298.72236
298.72551
298.73289
298.73525
298.73952
298.74129
298.74342
298.74362
298.74328
298.74187
298.7395
298.73644
298.73182
298.72709
298.72057
298.71341
298.70462
298.69485
298.68349
298.67138
298.65816
298.644
298.62899
298.61317
298.59663
298.57946
298.56176
298.54361
298.5251
298.50632
298.48751
298.46848
298.44935
298.43023
298.41118
298.39225
298.37348
298.35489
298.33651
298.31834
298.30039
298.28267
298.26514
298.24782
298.23064
298.21363
298.19667
298.17985
298.16288
298.14611
298.12889
298.11215
298.09435
298.07776
298.05885
298.04291
298.02204
298.00811
297.98388
297.97429
297.94276
297.94278
297.90367
297.9184
297.86048
297.90464
297.81994
297.90702
297.79575
297.93393
297.81265
297.97219
301.7601
301.27572
300.13417