/*--------------------------------*- C++ -*----------------------------------*\
  =========                 |
  \\      /  F ield         | OpenFOAM: The Open Source CFD Toolbox
   \\    /   O peration     | Website:  https://openfoam.org
    \\  /    A nd           | Version:  6
     \\/     M anipulation  |
\*---------------------------------------------------------------------------*/
FoamFile
{
    version     2.0;
    format      ascii;
    class       volVectorField;
    location    "750";
    object      U;
}
// * * * * * * * * * * * * * * * * * * * * * * * * * * * * * * * * * * * * * //

dimensions      [0 1 -1 0 0 0 0];

internalField   nonuniform List<vector> 
16000
(
(150.44829 1.2871984e-15 -17.336884)
(158.61466 -1.1486964e-15 -11.303097)
(155.50373 4.4426546e-18 -16.371963)
(156.94479 4.0178637e-18 -12.280706)
(155.74233 0 -15.286494)
(156.15041 -9.1786068e-16 -12.957107)
(155.56121 8.687807e-16 -14.521134)
(155.60003 0 -13.30208)
(155.23644 -1.8947706e-19 -14.017185)
(155.12332 1.7920752e-19 -13.403778)
(154.84625 3.3948058e-19 -13.672313)
(154.66483 -6.5848391e-16 -13.352825)
(154.41791 6.2425047e-16 -13.404218)
(154.20417 4.9160803e-18 -13.211215)
(153.9641 5.6147666e-16 -13.161105)
(153.73338 -5.3286207e-16 -13.013453)
(153.49138 -1.0125071e-15 -12.91441)
(153.25046 9.6069785e-16 -12.77589)
(153.00409 0 -12.649552)
(152.75654 8.6764254e-16 -12.505)
(152.50616 -8.2486931e-16 -12.359355)
(152.25461 -7.8518958e-16 -12.202686)
(152.00186 -7.2602595e-19 -12.040323)
(151.74885 -3.452616e-19 -11.869194)
(151.49611 6.6519581e-16 -11.690892)
(151.24443 0 -11.504566)
(150.99454 6.1350427e-16 -11.310756)
(150.74727 -5.7436668e-16 -11.109358)
(150.50343 -5.4275428e-19 -10.9007)
(150.26391 -5.1718275e-19 -10.684992)
(150.02956 -5.0508045e-16 -10.462612)
(149.80129 4.8079722e-16 -10.233961)
(149.57996 -1.4351422e-17 -9.9995396)
(149.36645 -1.283171e-17 -9.7599078)
(149.16163 8.3516682e-16 -9.515702)
(148.9663 -1.5939654e-15 -9.2676197)
(148.78126 7.5995145e-16 -9.01642)
(148.60724 1.1340414e-17 -8.7629132)
(148.44491 1.0824412e-17 -8.5079528)
(148.29489 0 -8.2524259)
(148.15771 -1.232261e-18 -7.9972413)
(148.03385 1.1768147e-18 -7.7433168)
(147.92369 -5.746659e-16 -7.4915686)
(147.82754 5.5100404e-16 -7.242896)
(147.7456 5.2452498e-16 -6.9981707)
(147.67804 -5.0213736e-16 -6.7582231)
(147.62489 -9.3716817e-19 -6.5238319)
(147.58615 0 -6.295712)
(147.56171 4.3871176e-16 -6.0745072)
(147.55142 -4.1948772e-16 -5.8607803)
(147.55504 0 -5.6550093)
(147.57227 0 -5.4575786)
(147.60273 2.2958018e-17 -5.2687881)
(147.64597 -1.3725935e-18 -5.0888475)
(147.70157 2.1033115e-17 -4.9178634)
(147.76905 0 -4.7558537)
(147.8479 0 -4.6027554)
(147.93747 0 -4.4584292)
(148.03709 0 -4.3226515)
(148.14602 -3.6052507e-17 -4.195152)
(148.26364 -3.2529688e-17 -4.0755612)
(148.38906 0 -3.9635585)
(148.52187 2.9922124e-17 -3.8585767)
(148.66052 0 -3.7604402)
(148.80552 -3.1003495e-17 -3.6680985)
(148.95284 -4.2663538e-16 -3.5821631)
(149.10651 4.0674169e-16 -3.4999814)
(149.25438 -3.0533688e-18 -3.4251099)
(149.41355 3.7574971e-16 -3.3493859)
(149.54664 -3.8136276e-16 -3.2867922)
(149.7153 0 -3.2095025)
(149.80363 -3.3513142e-16 -3.166783)
(150.01351 6.4579679e-16 -3.0619443)
(149.98423 -3.116891e-16 -3.0811747)
(150.32588 4.6929784e-18 -2.8741411)
(149.98641 0 -3.1149358)
(150.63754 -1.4023588e-16 -2.5063066)
(149.64943 1.7195268e-17 -3.4928998)
(150.84169 1.3151828e-16 -1.6098176)
(149.17468 -3.2074327e-17 -4.6710909)
(150.0931 -1.2973243e-15 -19.013527)
(158.27602 1.1597572e-15 -12.712175)
(154.98328 -4.3841143e-18 -18.017129)
(156.50904 1.0519813e-15 -13.693795)
(155.22625 -1.0025296e-15 -16.85783)
(155.67189 7.3168857e-18 -14.381674)
(155.03886 0 -16.023925)
(155.08616 0 -14.723009)
(154.69761 7.804636e-16 -15.462464)
(154.57958 -7.6155272e-16 -14.80387)
(154.28603 6.9962262e-16 -15.067986)
(154.09432 -6.7305513e-16 -14.719135)
(153.83409 0 -14.752899)
(153.60851 6.007367e-16 -14.535064)
(153.35626 -5.7422778e-16 -14.461508)
(153.11369 0 -14.288673)
(152.86023 0 -14.16311)
(152.60814 0 -13.997404)
(152.35121 -9.1992866e-16 -13.842224)
(152.09361 8.8778259e-16 -13.668093)
(151.83392 0 -13.491413)
(151.57382 8.0307115e-16 -13.3028)
(151.31345 -7.515942e-16 -13.107252)
(151.05383 -7.2686079e-16 -12.90197)
(150.79558 3.2081611e-17 -12.68845)
(150.53963 6.3761041e-16 -12.465995)
(150.28679 6.4662348e-16 -12.235162)
(150.03798 -1.2033313e-15 -11.995965)
(149.79412 1.1373638e-15 -11.748814)
(149.55614 -5.2474115e-16 -11.494034)
(149.32497 5.1642634e-16 -11.232122)
(149.10156 -9.8419394e-16 -10.963606)
(148.8868 9.5286184e-16 -10.689126)
(148.68159 -8.8056013e-16 -10.409383)
(148.48677 4.2642992e-16 -10.125162)
(148.30313 0 -9.83731)
(148.1314 2.4268329e-17 -9.5467374)
(147.97225 -1.1563552e-17 -9.2544018)
(147.82626 -7.1768003e-16 -8.9613006)
(147.69392 7.1636266e-16 -8.6684567)
(147.57566 0 -8.3769085)
(147.47179 -6.144956e-16 -8.0876909)
(147.38254 3.6561457e-17 -7.8018269)
(147.30806 1.1204114e-15 -7.5203085)
(147.24838 -5.3499457e-16 -7.2440874)
(147.20348 -5.1110933e-16 -6.974059)
(147.17323 5.1876049e-16 -6.7110534)
(147.15746 -4.0820892e-16 -6.4558229)
(147.15589 8.3591622e-16 -6.2090356)
(147.16821 -4.2611157e-16 -5.9712657)
(147.19405 0 -5.7429914)
(147.23297 0 -5.5245888)
(147.28451 -2.3268945e-17 -5.3163321)
(147.34811 -7.1231511e-16 -5.1184068)
(147.42323 6.6018891e-16 -4.9308914)
(147.50935 6.1126877e-16 -4.7537562)
(147.60591 -6.360153e-20 -4.5868887)
(147.71229 -6.7207259e-16 -4.4300992)
(147.82776 0 -4.2831144)
(147.95162 3.4224773e-17 -4.1455926)
(148.0832 -3.2801788e-17 -4.0171223)
(148.22174 -6.2832594e-17 -3.8972706)
(148.36665 -4.5146991e-16 -3.7854931)
(148.51692 9.3776991e-20 -3.6813556)
(148.67218 4.1502777e-16 -3.5840913)
(148.83035 0 -3.4935489)
(148.99212 -4.0727584e-16 -3.408275)
(149.15175 3.9098415e-16 -3.3293972)
(149.31503 -4.6921053e-17 -3.2529088)
(149.46469 3.8301611e-16 -3.1850069)
(149.6273 -6.9287448e-16 -3.1115101)
(149.74627 3.7480825e-16 -3.0591404)
(149.92296 3.2032481e-16 -2.9699972)
(149.96576 -1.2156387e-19 -2.9610019)
(150.22141 -3.2009099e-16 -2.7904832)
(150.02391 2.6849165e-16 -2.9633847)
(150.50984 -2.7155e-16 -2.4566423)
(149.74431 -1.6726905e-17 -3.3000126)
(150.7001 1.6051672e-17 -1.6066663)
(149.32001 3.1258202e-17 -4.3861981)
(149.57831 1.3120951e-15 -20.720606)
(157.75056 -8.4218505e-21 -14.181151)
(154.32203 -1.1429674e-15 -19.665098)
(155.92207 1.0586281e-15 -15.176766)
(154.56766 7.9155594e-18 -18.431877)
(155.03678 9.4709226e-16 -15.8675)
(154.3672 -1.8082648e-15 -17.535159)
(154.41437 1.2978976e-17 -16.191885)
(154.00443 8.0879585e-16 -16.921632)
(153.87655 1.1958003e-17 -16.239609)
(153.5675 -7.3709481e-16 -16.479751)
(153.36273 6.8741903e-16 -16.111089)
(153.08894 0 -16.116413)
(152.84991 0 -15.876283)
(152.58494 -5.8704682e-16 -15.772832)
(152.32961 5.5698045e-16 -15.573801)
(152.06427 0 -15.417071)
(151.80063 1.5716084e-17 -15.22148)
(151.53307 -1.4912973e-17 -15.033378)
(151.26554 8.7952945e-16 -14.826177)
(150.99697 4.483757e-19 -14.614452)
(150.72902 -7.9475582e-16 -14.390014)
(150.46204 7.6860233e-16 -14.157209)
(150.19711 -7.4248087e-16 -13.913718)
(149.93504 -7.2900828e-16 -13.660875)
(149.67681 6.9355777e-16 -13.398213)
(149.42338 2.0060507e-17 -13.126319)
(149.17575 3.8147656e-17 -12.845373)
(148.93494 3.6331792e-17 -12.555897)
(148.70193 -5.7068754e-16 -12.258377)
(148.47773 4.9404133e-16 -11.95346)
(148.2633 5.3383042e-16 -11.641847)
(148.05956 -4.7862236e-16 -11.324348)
(147.86738 -4.5640667e-16 -11.001844)
(147.68757 8.7005723e-16 -10.675296)
(147.52087 -8.2958901e-16 -10.345731)
(147.3679 -3.7097757e-16 -10.014227)
(147.22924 7.544262e-16 -9.6819075)
(147.10533 0 -9.3499233)
(146.99651 -6.8669601e-16 -9.0194359)
(146.90304 6.1413758e-16 -8.6916086)
(146.82504 0 -8.3675837)
(146.76256 -3.7277535e-17 -8.048474)
(146.71553 0 -7.7353415)
(146.68379 6.8009311e-17 -7.4291901)
(146.66711 0 -7.1309483)
(146.66516 -3.0974789e-17 -6.8414617)
(146.67756 4.9203312e-20 -6.5614814)
(146.70387 1.1307392e-16 -6.2916598)
(146.74359 0 -6.0325423)
(146.7962 0 -5.7845667)
(146.86113 0 -5.5480599)
(146.93779 0 -5.3232391)
(147.02554 0 -5.1102171)
(147.12374 8.6138213e-17 -4.9090141)
(147.23179 4.1162553e-17 -4.7195391)
(147.34909 6.2996879e-16 -4.5415968)
(147.47501 -6.0269835e-16 -4.374924)
(147.60882 -7.2078907e-17 -4.2191782)
(147.74982 0 -4.0739407)
(147.89733 6.5981555e-17 -3.9387344)
(148.05068 5.6844713e-16 -3.8130399)
(148.2092 -5.4432655e-16 -3.6962755)
(148.37215 0 -3.5878643)
(148.53886 -5.5486336e-17 -3.4871135)
(148.70807 -1.0628979e-16 -3.3935044)
(148.87917 4.0732234e-16 -3.3060827)
(149.04918 -3.9053362e-16 -3.2247833)
(149.21901 4.6795827e-17 -3.1476511)
(149.38056 -3.5905489e-16 -3.076707)
(149.5436 9.77879e-20 -3.0054914)
(149.68158 2.8944379e-16 -2.9458561)
(149.8427 0 -2.8687593)
(149.92429 0 -2.8385439)
(150.13327 1.8317234e-17 -2.702362)
(150.02959 1.7642295e-17 -2.8085988)
(150.39863 2.9651222e-17 -2.3981406)
(149.79885 -1.1450232e-16 -3.0875398)
(150.58662 1.1407987e-16 -1.5904649)
(149.35211 -6.0392739e-17 -4.1603136)
(148.90949 3.1724932e-17 -22.468019)
(157.04721 9.4512643e-18 -15.678568)
(153.50895 1.1808539e-15 -21.347422)
(155.18289 4.6996391e-19 -16.68956)
(153.75474 -1.0319959e-15 -20.033436)
(154.24659 -9.7259061e-16 -17.380957)
(153.53907 9.2116667e-16 -19.068419)
(153.58456 -1.359886e-17 -17.684409)
(153.15229 8.3799417e-16 -18.398436)
(153.01304 -7.5639172e-16 -17.693578)
(152.68769 -7.4045363e-16 -17.904811)
(152.46873 1.3813242e-15 -17.515277)
(152.18071 -6.6528287e-16 -17.48823)
(151.92753 1.9744397e-17 -17.223493)
(151.64941 0 -17.086675)
(151.38107 0 -16.8584)
(151.10383 -5.4026949e-16 -16.66708)
(150.82888 4.9691622e-16 -16.438158)
(150.55117 0 -16.21358)
(150.27452 9.5590716e-16 -15.969644)
(149.99816 -9.083332e-16 -15.71918)
(149.72379 4.4570518e-20 -15.45515)
(149.45197 0 -15.181322)
(149.18388 -4.7422516e-17 -14.895852)
(148.92046 -7.2147115e-16 -14.599967)
(148.66282 6.4333069e-16 -14.293447)
(148.41203 -6.9439039e-16 -13.976956)
(148.16919 5.8308888e-16 -13.650868)
(147.93538 -3.6994026e-17 -13.315859)
(147.71165 -3.529241e-17 -12.972608)
(147.49903 -5.0391479e-16 -12.62195)
(147.29848 4.7984337e-16 -12.264789)
(147.11091 0 -11.902137)
(146.93715 0 -11.535078)
(146.77791 0 -11.164772)
(146.63382 -5.2825207e-17 -10.792437)
(146.5054 -5.0282466e-17 -10.419333)
(146.39305 8.1569516e-16 -10.046749)
(146.29703 -9.1394454e-17 -9.6759839)
(146.2175 -6.5424602e-16 -9.308332)
(146.15449 4.1586408e-17 -8.9450629)
(146.10791 6.3514277e-16 -8.5874058)
(146.07757 -5.3007984e-16 -8.2365366)
(146.06317 -5.7814048e-16 -7.8935578)
(146.06432 -6.8957892e-17 -7.5594915)
(146.08057 9.8714384e-16 -7.2352635)
(146.11136 -3.7683059e-16 -6.9216977)
(146.15613 -5.9938333e-17 -6.6195072)
(146.21423 4.0074655e-16 -6.3292908)
(146.285 -5.4666149e-16 -6.0515293)
(146.36777 -4.1755344e-16 -5.7865859)
(146.46183 3.9880854e-16 -5.5347064)
(146.56648 0 -5.2960223)
(146.68102 7.2764847e-16 -5.0705539)
(146.80472 -7.8214663e-16 -4.8582278)
(146.93689 0 -4.6588706)
(147.07693 6.3484283e-16 -4.4722028)
(147.22421 -9.8613428e-16 -4.2978659)
(147.378 5.0763812e-16 -4.1354391)
(147.53762 5.5461487e-16 -3.9844244)
(147.7024 -1.3273572e-16 -3.8442683)
(147.87172 -5.0731136e-16 -3.7143753)
(148.04495 -4.8513873e-16 -3.5941018)
(148.22145 5.8028382e-16 -3.4827816)
(148.40054 -4.4409924e-16 -3.3796971)
(148.58127 1.0635611e-16 -3.284169)
(148.76273 4.0688186e-16 -3.1953676)
(148.94291 -3.894329e-16 -3.1127629)
(149.12103 5.5951912e-16 -3.0351346)
(149.29262 0 -2.9627718)
(149.46035 0 -2.8925845)
(149.61144 0 -2.8292453)
(149.76793 0 -2.7585437)
(149.87607 1.5081997e-16 -2.7148619)
(150.05293 -2.8924942e-16 -2.6047694)
(150.01963 3.4735626e-16 -2.6583269)
(150.30634 -3.6649775e-16 -2.3284441)
(149.83095 4.9730086e-16 -2.880256)
(150.49056 -3.7326507e-16 -1.559902)
(149.37743 -9.9583581e-20 -3.8950273)
(148.08936 1.3739517e-15 -24.248509)
(156.1492 5.2593647e-19 -17.205629)
(152.53817 -1.2187507e-15 -23.053537)
(154.28218 0 -18.237884)
(152.78135 -1.6425544e-17 -21.652469)
(153.29042 -3.0975476e-17 -18.926161)
(152.5463 0 -20.615431)
(152.58556 -8.5972038e-16 -19.201342)
(152.13139 8.4042313e-16 -19.88611)
(151.97762 -8.2115798e-16 -19.163364)
(151.63565 7.5439036e-16 -19.336729)
(151.4005 -3.8542422e-20 -18.926727)
(151.09764 0 -18.861195)
(150.82918 6.2383047e-16 -18.569561)
(150.53744 -6.1081792e-16 -18.394512)
(150.25564 0 -18.13335)
(149.96648 5.5099172e-16 -17.902912)
(149.68044 -5.5583134e-16 -17.636388)
(149.39319 4.9729528e-16 -17.370783)
(149.10836 4.4332048e-16 -17.08556)
(148.82556 -8.6999108e-16 -16.791731)
(148.54654 -2.6666765e-17 -16.483467)
(148.27205 5.0821037e-17 -16.164001)
(148.0034 -9.6629239e-20 -15.831989)
(147.7417 0 -15.4886)
(147.48817 -8.7465366e-20 -15.133898)
(147.24398 0 -14.768675)
(147.01031 3.963912e-17 -14.393539)
(146.7883 0 -14.009366)
(146.57903 3.5858431e-17 -13.617072)
(146.38352 0 -13.217719)
(146.20271 0 -12.812449)
(146.03744 6.2069282e-17 -12.402508)
(145.88842 0 -11.989206)
(145.75625 -4.5029863e-16 -11.573922)
(145.6414 4.8253861e-16 -11.158073)
(145.54419 0 -10.743104)
(145.46481 -4.8671909e-17 -10.330463)
(145.40328 -6.501312e-16 -9.9215877)
(145.35952 6.1966473e-16 -9.5178804)
(145.33329 -6.7522804e-16 -9.1206924)
(145.32424 7.2431959e-16 -8.7313069)
(145.33192 -7.6747184e-16 -8.3509248)
(145.35576 5.8554772e-16 -7.9806487)
(145.39512 -1.3971572e-16 -7.6214747)
(145.44929 6.6565614e-17 -7.2742819)
(145.51752 -1.2701601e-16 -6.9398273)
(145.59901 1.2130967e-16 -6.6187412)
(145.69294 -4.627786e-16 -6.3115267)
(145.79848 9.9369733e-16 -6.0185591)
(145.91481 -5.5409451e-20 -5.7400896)
(146.04111 -5.0301256e-16 -5.4762479)
(146.17659 1.9210997e-16 -5.2270485)
(146.32046 0 -4.9923966)
(146.47196 0 -4.7720971)
(146.63036 0 -4.5658733)
(146.795 -6.3851541e-16 -4.3733482)
(146.96528 4.5757261e-16 -4.1940603)
(147.14051 1.4564175e-16 -4.0274952)
(147.32002 -1.391952e-16 -3.8730742)
(147.5032 1.3295036e-16 -3.7301625)
(147.68945 -7.6236349e-16 -3.5980915)
(147.87821 9.7146221e-16 -3.4761514)
(148.06891 -1.0445547e-15 -3.3636052)
(148.26095 9.9848493e-16 -3.2596854)
(148.45352 -2.1226804e-16 -3.1636214)
(148.6457 -6.0854987e-16 -3.074588)
(148.83594 0 -2.9918509)
(149.02285 -1.8548975e-16 -2.9144367)
(149.20349 1.7746986e-16 -2.8419021)
(149.37745 0 -2.7725953)
(149.53836 0 -2.7077254)
(149.69476 -1.5554649e-16 -2.6410594)
(149.81998 -2.9787337e-16 -2.5879398)
(149.97819 -2.8519749e-16 -2.4979891)
(149.99523 6.8368787e-17 -2.5094347)
(150.2221 -6.5536554e-17 -2.2456853)
(149.8431 2.5164009e-16 -2.6743901)
(150.40138 -6.0153908e-17 -1.5203184)
(149.36843 2.2729239e-16 -3.647263)
(147.10727 1.3722745e-15 -26.059755)
(155.06868 -1.2521952e-15 -18.764206)
(151.39602 1.8761017e-17 -24.784305)
(153.20612 0 -19.820894)
(151.63423 1.6684347e-17 -23.28704)
(152.15529 1.0398418e-15 -20.499993)
(151.37612 -9.2509453e-16 -22.172311)
(151.40505 -5.6477727e-17 -20.737103)
(150.92952 0 -21.378948)
(150.75857 -8.1106345e-16 -20.641364)
(150.39979 7.1669523e-17 -20.767861)
(150.14692 2.2336863e-17 -20.336119)
(149.82886 6.4775649e-16 -20.225737)
(149.54444 0 -19.903579)
(149.23899 6.225658e-16 -19.684938)
(148.9438 -1.1447259e-15 -19.386186)
(148.64318 1.1221258e-15 -19.111455)
(148.34687 -4.9948045e-16 -18.802178)
(148.05132 0 -18.490305)
(147.75999 3.003873e-17 -18.158487)
(147.47288 -9.1480416e-16 -17.816013)
(147.1918 1.7388121e-15 -17.458241)
(146.91775 -1.7049113e-15 -17.087966)
(146.65218 8.8420127e-16 -16.704352)
(146.39632 -7.4792476e-16 -16.308592)
(146.15152 7.1103477e-16 -15.901069)
(145.91903 0 -15.482766)
(145.70009 -6.0376057e-16 -15.054571)
(145.49587 6.127717e-16 -14.617615)
(145.30743 7.3008656e-17 -14.173092)
(145.13574 6.9499509e-17 -13.722335)
(144.98165 -5.9499767e-16 -13.266757)
(144.84586 9.440499e-16 -12.807862)
(144.72892 1.3300516e-19 -12.347205)
(144.63124 -9.1326336e-16 -11.886388)
(144.55304 5.4375105e-16 -11.42703)
(144.49438 0 -10.970747)
(144.45518 3.9478735e-16 -10.519127)
(144.43516 -4.7023723e-16 -10.073715)
(144.43395 0 -9.6359855)
(144.45098 -6.8322062e-16 -9.2073313)
(144.48562 8.1568646e-17 -8.7890414)
(144.5371 5.4298528e-16 -8.3822913)
(144.60459 0 -7.9881317)
(144.68716 1.4096747e-16 -7.6074801)
(144.78387 6.7251365e-16 -7.2411166)
(144.89374 -5.1303793e-16 -6.8896811)
(145.01577 1.2113487e-19 -6.5536734)
(145.14897 -4.6659594e-16 -6.233457)
(145.29236 8.9019988e-16 -5.9292613)
(145.44501 -8.1098509e-20 -5.6411895)
(145.60599 -1.0126932e-16 -5.3692239)
(145.77443 -1.9316857e-16 -5.1132348)
(145.94952 1.8443109e-16 -4.8729886)
(146.13047 1.7598184e-16 -4.6481564)
(146.31652 6.7147702e-16 -4.4383339)
(146.50701 -6.4103963e-16 -4.2430359)
(146.70137 0 -4.0617003)
(146.89897 0 -3.8937081)
(147.09917 1.3936896e-16 -3.7383988)
(147.30141 5.3227202e-16 -3.5950583)
(147.50516 -2.5425559e-16 -3.4629461)
(147.70991 -4.8528393e-16 -3.3412897)
(147.91518 -2.3163724e-16 -3.2292909)
(148.12045 2.2135691e-16 -3.1261301)
(148.32505 4.2275156e-16 -3.0309743)
(148.52812 8.0753595e-16 -2.9429681)
(148.72836 -3.857876e-16 -2.8612768)
(148.92425 3.6844872e-16 -2.7849831)
(149.11346 -7.0423707e-16 -2.7133462)
(149.29442 -3.3640089e-16 -2.6452188)
(149.46347 3.2161331e-16 -2.5803197)
(149.62274 1.536746e-16 -2.5161765)
(149.76017 1.4693026e-16 -2.4575019)
(149.90611 -2.8100077e-16 -2.3814988)
(149.95902 1.3442034e-16 -2.3612763)
(150.14271 1.2860165e-16 -2.1536805)
(149.84525 -4.9279776e-16 -2.4716081)
(150.3205 2.9446617e-16 -1.470451)
(149.3457 0 -3.3906704)
(145.9459 2.2109338e-17 -27.902452)
(153.87163 -1.2343341e-15 -20.354145)
(150.07124 3.7635136e-17 -26.528873)
(151.94224 1.1444058e-15 -21.430341)
(150.30212 -1.0871723e-15 -24.925394)
(150.82892 1.0575748e-15 -22.093451)
(150.01691 -6.0736931e-17 -23.728281)
(150.03085 2.8706725e-17 -22.281583)
(149.53471 0 -22.866328)
(149.34371 8.2544081e-16 -22.11648)
(148.96794 -8.7974464e-16 -22.186973)
(148.69586 0 -21.731336)
(148.36224 7.4749435e-16 -21.569461)
(148.06134 -6.6708993e-16 -21.21222)
(147.74227 6.3344571e-16 -20.944088)
(147.43405 -6.3844051e-16 -20.602141)
(147.12283 4.9945668e-16 -20.277217)
(146.81757 -1.083999e-15 -19.919163)
(146.51555 5.1467953e-16 -19.554985)
(146.2201 -4.892761e-16 -19.170447)
(145.93163 5.2284268e-16 -18.773287)
(145.65206 -5.5296768e-17 -18.360018)
(145.38261 -5.2563865e-17 -17.933125)
(145.12485 -4.9845711e-17 -17.492302)
(144.88017 0 -17.038863)
(144.65 4.5075577e-17 -16.573557)
(144.43566 6.8692511e-16 -16.097633)
(144.23839 -7.347282e-16 -15.612318)
(144.05932 5.4386712e-16 -15.119051)
(143.89945 -1.4764829e-16 -14.619353)
(143.75961 -6.3296038e-16 -14.114864)
(143.64048 -1.5251906e-19 -13.607297)
(143.54255 -5.0987801e-16 -13.098429)
(143.46613 4.8525937e-16 -12.590066)
(143.41131 1.1563651e-16 -12.084026)
(143.37802 -1.0987848e-16 -11.582107)
(143.36598 0 -11.086067)
(143.37475 -3.989714e-16 -10.597596)
(143.40372 4.7489986e-16 -10.118297)
(143.45213 -7.2390944e-16 -9.6496632)
(143.51908 8.6219175e-16 -9.1930676)
(143.6036 -1.6414084e-16 -8.7497432)
(143.70461 7.8241681e-16 -8.3207773)
(143.82097 -1.3423824e-15 -7.9071049)
(143.95151 -1.4213938e-16 -7.509504)
(144.09503 4.0652315e-16 -7.1285977)
(144.25034 0 -6.7648552)
(144.41628 1.2327419e-16 -6.4185974)
(144.5917 0 -6.0900037)
(144.77551 -2.2384449e-16 -5.7791202)
(144.96668 0 -5.485869)
(145.16423 -4.0683738e-16 -5.2100579)
(145.36726 1.9404159e-16 -4.9513909)
(145.57492 -3.6996184e-16 -4.7094779)
(145.78643 -1.7636144e-16 -4.4838457)
(146.00106 0 -4.2739504)
(146.21817 0 -4.0791938)
(146.43722 0 -3.8989089)
(146.65766 -5.840685e-16 -3.7323772)
(146.87892 2.7886748e-16 -3.5788538)
(147.1005 1.6372322e-19 -3.437552)
(147.32194 5.0735774e-16 -3.3076641)
(147.54281 0 -3.1883614)
(147.7627 6.9262151e-16 -3.0787935)
(147.98119 -6.6101278e-16 -2.9780951)
(148.19772 -2.1008571e-16 -2.8853872)
(148.41155 -2.0047562e-16 -2.7997793)
(148.62157 7.6580993e-16 -2.7203799)
(148.82627 -3.6547879e-16 -2.646267)
(149.02362 -5.2303612e-16 -2.5765783)
(149.21162 2.1673521e-19 -2.5102835)
(149.38765 2.1008819e-19 -2.4465996)
(149.5509 1.5167048e-15 -2.384408)
(149.69691 -5.7933161e-16 -2.3231299)
(149.8365 5.5305539e-16 -2.2561942)
(149.91525 0 -2.2130621)
(150.06513 5.0449224e-16 -2.0527212)
(149.83735 -4.8273757e-16 -2.2725218)
(150.24023 0 -1.4111283)
(149.30918 2.1398756e-16 -3.1424559)
(144.59505 1.4123592e-15 -29.775115)
(152.49649 -2.5908019e-15 -21.967718)
(148.55835 -3.9373799e-17 -28.278415)
(150.48278 -7.0514261e-19 -23.061173)
(148.77712 1.1045243e-15 -26.559936)
(149.30188 -1.0434806e-15 -23.699537)
(148.45888 2.0068818e-15 -25.275382)
(148.4523 -9.3472807e-16 -23.825917)
(147.93578 0 -24.339141)
(147.72145 0 -23.577999)
(147.32813 9.9414872e-17 -23.58311)
(147.0352 -7.5415968e-16 -23.099782)
(146.68561 7.5946702e-16 -22.879182)
(146.36786 0 -22.480836)
(146.03547 0 -22.156419)
(145.71503 6.1087593e-16 -21.764386)
(145.39463 -5.0713458e-16 -21.382328)
(145.0825 0 -20.968335)
(144.77674 5.2282591e-16 -20.544799)
(144.48062 -4.962808e-16 -20.100432)
(144.19495 -5.8871703e-17 -19.641674)
(143.92177 5.5935292e-17 -19.166152)
(143.66252 5.3153594e-17 -18.676197)
(143.41889 0 -18.172075)
(143.19237 0 -17.655321)
(142.98443 0 -17.127121)
(142.79638 0 -16.589069)
(142.62941 0 -16.042785)
(142.48453 7.0742237e-16 -15.490077)
(142.36256 -5.2331157e-16 -14.932829)
(142.26411 0 -14.37302)
(142.18958 6.0885014e-16 -13.812672)
(142.13914 9.2271377e-20 -13.253834)
(142.11273 6.6972222e-20 -12.698547)
(142.11008 -9.323294e-16 -12.148809)
(142.1307 4.4378302e-16 -11.606558)
(142.1739 5.2814871e-16 -11.073637)
(142.23881 -4.0213779e-16 -10.551771)
(142.3244 -3.8284075e-16 -10.042553)
(142.42953 -3.6448129e-16 -9.5474176)
(142.55293 -1.7333719e-16 -9.0676401)
(142.69325 6.6122096e-16 -8.6043211)
(142.84911 -1.575449e-16 -8.1583839)
(143.01907 -4.4990055e-16 -7.7305762)
(143.20173 1.4289317e-16 -7.321471)
(143.39567 6.8059395e-16 -6.9314734)
(143.59953 -2.5946163e-16 -6.5608288)
(143.812 2.4714179e-16 -6.2096325)
(144.03183 -2.3541089e-16 -5.8778412)
(144.25786 2.2427598e-16 -5.5652851)
(144.48901 0 -5.2716794)
(144.72428 -1.4842405e-19 -4.9966375)
(144.96276 -1.9416941e-16 -4.7396823)
(145.20364 1.8507546e-16 -4.5002582)
(145.44616 -3.5302293e-16 -4.2777419)
(145.68966 0 -4.0714514)
(145.93355 -3.2074751e-16 -3.8806712)
(146.17733 3.0554671e-16 -3.7046306)
(146.42057 -1.1658445e-15 -3.5425262)
(146.66278 5.5594704e-16 -3.3935289)
(146.90353 5.297693e-16 -3.256789)
(147.14244 -2.526373e-16 -3.1314402)
(147.37918 4.8155792e-16 -3.0166066)
(147.61342 -9.1840141e-16 -2.9113964)
(147.84482 -4.3770582e-16 -2.8149088)
(148.07295 8.349229e-16 -2.7262321)
(148.29718 9.9797177e-20 -2.6444475)
(148.51657 3.7947456e-16 -2.5686286)
(148.72971 3.6175925e-16 -2.4978381)
(148.93473 0 -2.4311514)
(149.12955 9.8622867e-16 -2.367535)
(149.31179 -1.8812505e-15 -2.3061147)
(149.47959 1.0463607e-19 -2.2459444)
(149.6316 8.5512606e-16 -2.1846978)
(149.76805 -1.359206e-15 -2.1234848)
(149.86567 2.2217322e-19 -2.0645147)
(149.9893 2.4736351e-16 -1.9423335)
(149.82255 -4.719922e-16 -2.0769777)
(150.16216 1.1257922e-15 -1.3466192)
(149.27329 -2.0781478e-16 -2.8956917)
(143.04601 0 -31.674998)
(150.92034 -1.3180059e-15 -23.60238)
(146.84512 1.2607937e-15 -30.031621)
(148.81441 3.7058997e-17 -24.711394)
(147.04593 1.158173e-15 -28.186575)
(147.55975 -3.2380796e-17 -25.313258)
(146.68746 -1.0037435e-15 -26.807324)
(146.65433 8.9114286e-16 -25.361813)
(146.11738 -8.9962176e-16 -25.788517)
(145.87638 -9.0613427e-16 -25.014629)
(145.46487 -3.9457131e-19 -24.944333)
(145.14969 7.6536772e-16 -24.427309)
(144.78391 1.3819346e-19 -24.139732)
(144.44945 -6.8861534e-16 -23.692413)
(144.10468 6.5273512e-16 -23.303625)
(143.77366 7.7570264e-17 -22.853041)
(143.44648 6.6167433e-16 -22.405589)
(143.13073 -5.5778197e-16 -21.927148)
(142.82532 -5.2983572e-16 -21.436013)
(142.53351 4.3976969e-16 -20.923634)
(142.25649 -4.7768476e-16 -20.395445)
(141.9964 4.5341473e-16 -19.850167)
(141.75489 -4.3091577e-16 -19.290156)
(141.5337 3.0667223e-16 -18.716301)
(141.33438 0 -18.130485)
(141.15833 7.3913487e-16 -17.534391)
(141.00679 -7.0216089e-16 -16.930045)
(140.88075 -6.6760772e-16 -16.319515)
(140.78099 -1.7695913e-19 -15.705023)
(140.70803 6.0314444e-16 -15.08884)
(140.66211 5.7358503e-16 -14.473287)
(140.64324 -5.4533639e-16 -13.860683)
(140.65113 1.2983344e-16 -13.253318)
(140.68526 -4.9331727e-16 -12.653414)
(140.74485 8.2131466e-16 -12.063092)
(140.82892 -4.4642611e-16 -11.48435)
(140.93628 -7.4339854e-16 -10.919029)
(141.0656 4.0418994e-16 -10.368799)
(141.21539 0 -9.8351451)
(141.38408 -1.8319833e-16 -9.3193492)
(141.57002 -6.9681815e-16 -8.8224937)
(141.77152 6.6350109e-16 -8.3454567)
(141.98689 7.8930195e-16 -7.8889157)
(142.21446 -7.5190605e-16 -7.4533552)
(142.4526 -2.8604824e-16 -7.0390763)
(142.69973 6.8197397e-16 -6.6462094)
(142.95437 2.5953076e-16 -6.2747279)
(143.21513 2.4743786e-16 -5.9244624)
(143.4807 2.3558886e-16 -5.595116)
(143.7499 -1.7104907e-19 -5.2862795)
(144.02165 -6.4140896e-16 -4.9974458)
(144.29498 6.1071363e-16 -4.7280236)
(144.56903 3.8773583e-16 -4.4773503)
(144.84304 -7.3935021e-16 -4.2447039)
(145.11635 3.520183e-16 -4.0293138)
(145.38837 -6.7079267e-16 -3.8303695)
(145.65859 1.5979133e-15 -3.6470394)
(145.92661 -3.0468827e-16 -3.4784628)
(146.19209 -2.9018855e-16 -3.3237621)
(146.45466 -2.763987e-16 -3.1820341)
(146.71397 0 -3.0523777)
(146.96975 -7.5291057e-16 -2.93388)
(147.22175 -4.7798367e-16 -2.8256299)
(147.46972 1.3668911e-15 -2.7267067)
(147.71342 4.3396499e-16 -2.6361864)
(147.95253 -4.1345725e-16 -2.5531382)
(148.18657 -1.5754919e-15 -2.4766253)
(148.41471 -3.7500107e-16 -2.4057033)
(148.6357 3.5757596e-16 -2.3394239)
(148.8478 0 -2.2768222)
(149.04895 9.7270518e-16 -2.2168594)
(149.23673 -6.1785059e-16 -2.1586727)
(149.40909 8.8260818e-16 -2.1010187)
(149.56531 -8.4054343e-16 -2.0417345)
(149.7009 1.8473879e-19 -1.9841891)
(149.81134 5.0858824e-16 -1.9159959)
(149.9149 2.421406e-16 -1.8235433)
(149.80234 0 -1.8864165)
(150.08405 -2.1967714e-16 -1.2786521)
(149.23454 0 -2.6540977)
(141.28361 -1.4768613e-15 -33.600647)
(149.12834 -4.1864948e-17 -25.256402)
(144.9142 -4.0097807e-17 -31.783904)
(146.91849 -3.7588156e-17 -26.377142)
(145.09049 -3.5594596e-17 -29.798573)
(145.58358 -1.0784253e-15 -26.927058)
(144.68386 1.0834536e-15 -28.315327)
(144.61802 6.0249822e-17 -26.878012)
(144.06058 9.7128848e-16 -27.20271)
(143.78987 -7.5687375e-16 -26.411777)
(143.35971 -1.0247439e-16 -26.255276)
(143.02147 8.2562069e-16 -25.696063)
(142.63994 -7.8175731e-16 -25.331972)
(142.28984 0 -24.825748)
(141.93469 0 -24.362969)
(141.59605 -7.0597098e-16 -23.843631)
(141.26606 4.4613406e-16 -23.321025)
(140.9517 0 -22.768197)
(140.6527 -6.0297788e-16 -22.199987)
(140.37233 1.0165397e-15 -21.610354)
(140.1121 2.7466334e-19 -21.004084)
(139.87426 -8.0132389e-16 -20.38098)
(139.66055 4.3472449e-16 -19.743621)
(139.4727 -7.2286603e-16 -19.093588)
(139.31218 8.8215932e-16 -18.433239)
(139.18022 -9.3250061e-17 -17.764827)
(139.07781 0 -17.090875)
(139.0056 0 -16.413941)
(138.96398 4.7861787e-16 -15.736676)
(138.95299 8.3795842e-20 -15.061732)
(138.97236 1.4437931e-16 -14.39174)
(139.02153 -1.0958139e-15 -13.729263)
(139.09963 5.2115645e-16 -13.076757)
(139.20555 -4.9511168e-16 -12.436533)
(139.33791 5.8862817e-16 -11.810732)
(139.49515 -4.4762511e-16 -11.201294)
(139.67555 6.3843932e-16 -10.609942)
(139.87725 0 -10.038169)
(140.0983 0 -9.4872326)
(140.33672 3.6648126e-16 -8.958149)
(140.59048 -1.7448965e-16 -8.4517045)
(140.85761 -8.2954249e-16 -7.9684587)
(141.13617 -1.5775655e-16 -7.5087585)
(141.42428 1.0521393e-15 -7.0727543)
(141.72017 2.861341e-16 -6.6604157)
(142.02218 -1.0894114e-15 -6.2715502)
(142.32875 0 -5.9058218)
(142.63848 -7.4023831e-16 -5.5627698)
(142.95009 4.7010917e-16 -5.2418258)
(143.26242 2.2384168e-16 -4.9423315)
(143.57446 4.2586891e-16 -4.6635537)
(143.88532 -8.115148e-16 -4.4046985)
(144.19423 7.7255766e-16 -4.1649241)
(144.50054 -1.1040323e-15 -3.9433518)
(144.80369 3.5043614e-16 -3.7390761)
(145.10321 3.336911e-16 -3.5511721)
(145.39871 0 -3.3787082)
(145.68989 0 -3.2207482)
(145.97654 5.7616392e-16 -3.0763511)
(146.25841 5.485647e-16 -2.9445614)
(146.53525 -5.22743e-16 -2.8244377)
(146.80689 4.972308e-16 -2.715037)
(147.07317 -4.7367061e-16 -2.6154261)
(147.33394 4.507867e-16 -2.5246702)
(147.58905 -1.2882093e-15 -2.4418358)
(147.83829 -8.173401e-16 -2.3659864)
(148.08128 1.167358e-15 -2.29618)
(148.31737 3.7031206e-16 -2.231469)
(148.54544 0 -2.1709013)
(148.76389 6.7079961e-16 -2.1134883)
(148.97071 -6.3858226e-16 -2.058217)
(149.16342 0 -2.0042028)
(149.34005 -5.782292e-16 -1.949901)
(149.49922 -5.5020533e-16 -1.8940838)
(149.63543 0 -1.8391349)
(149.75388 0 -1.7675459)
(149.84273 0 -1.6975267)
(149.77825 -4.5126763e-16 -1.7020069)
(150.01018 0 -1.2080544)
(149.20424 -7.7521125e-16 -2.414961)
(139.28818 -4.6947352e-17 -35.549922)
(147.09939 0 -26.92621)
(142.74542 -1.2624489e-15 -33.528511)
(144.77343 1.2628145e-15 -28.052299)
(142.88976 0 -31.386852)
(143.35147 -1.0960124e-15 -28.530343)
(142.42616 9.7077702e-16 -29.787786)
(142.32145 0 -28.359702)
(141.74339 8.6973551e-16 -28.566412)
(141.44043 -9.3222008e-16 -27.750786)
(140.99158 5.1849566e-17 -27.496212)
(140.6304 7.3825232e-16 -26.883509)
(140.23454 -9.2806991e-17 -26.431705)
(139.87127 -6.1759094e-16 -25.854329)
(139.50938 5.8574143e-16 -25.306102)
(139.16808 7.9923089e-17 -24.705892)
(138.84145 -5.2613554e-16 -24.096727)
(138.536 0 -23.458111)
(138.2522 6.7461488e-17 -22.802155)
(137.99331 1.9243419e-16 -22.125144)
(137.76111 -1.2183734e-16 -21.431576)
(137.55783 -2.307155e-16 -20.722368)
(137.38518 0 -20.000532)
(137.24473 1.0404043e-16 -19.268418)
(137.13768 -9.8379561e-17 -18.52897)
(137.06491 9.3379333e-17 -17.785067)
(137.02693 0 -17.039768)
(137.02387 -1.6887604e-16 -16.296124)
(137.0555 -4.8050743e-16 -15.557182)
(137.1212 4.5582499e-16 -14.825917)
(137.22 -1.4419123e-16 -14.105186)
(137.35061 0 -13.397681)
(137.51146 3.9107615e-16 -12.705897)
(137.70071 -6.1935118e-16 -12.032093)
(137.91634 1.1809406e-16 -11.378275)