/*--------------------------------*- C++ -*----------------------------------*\
  =========                 |
  \\      /  F ield         | OpenFOAM: The Open Source CFD Toolbox
   \\    /   O peration     | Website:  https://openfoam.org
    \\  /    A nd           | Version:  6
     \\/     M anipulation  |
\*---------------------------------------------------------------------------*/
FoamFile
{
    version     2.0;
    format      ascii;
    class       volScalarField;
    location    "200";
    object      alphat;
}
// * * * * * * * * * * * * * * * * * * * * * * * * * * * * * * * * * * * * * //

dimensions      [1 -1 -1 0 0 0 0];

internalField   nonuniform List<scalar> 
16000
(
4.1645348e-06
2.3539891e-05
2.961817e-05
3.7551971e-05
3.1276469e-05
3.9232092e-05
3.6340059e-05
4.0728161e-05
3.9929137e-05
4.0325396e-05
3.991225e-05
3.8890866e-05
3.8620301e-05
3.7836353e-05
3.7859927e-05
3.7647361e-05
3.7980906e-05
3.828345e-05
3.894635e-05
3.9694112e-05
4.0707204e-05
4.1868004e-05
4.3255573e-05
4.4826944e-05
4.6620462e-05
4.8629804e-05
5.088337e-05
5.3398077e-05
5.6209965e-05
5.9360018e-05
6.2916071e-05
6.696198e-05
7.1600519e-05
7.6962155e-05
8.3159077e-05
9.0358128e-05
9.8772562e-05
0.00010869414
0.00012049057
0.00013454758
0.00015133264
0.00017145203
0.0001956515
0.0002248327
0.00026010257
0.00030283638
0.00035472256
0.0004178405
0.00049475505
0.00058861245
0.0007032646
0.00084341536
0.0010148001
0.0012164479
0.0012176979
0.0012178157
0.0012171854
0.0012161784
0.0012149706
0.0012135211
0.0012115816
0.0012090609
0.0012059387
0.0012022943
0.001198341
0.0011944544
0.0011909332
0.0011878641
0.0011851428
0.0011828014
0.0011806775
0.0011790579
0.0011773932
0.0011766952
0.0011750522
0.0011761495
0.0011739012
0.0011784444
0.0011713572
0.0011778031
3.533395e-06
2.3305447e-05
2.6021773e-05
3.4266419e-05
2.872689e-05
3.5407874e-05
3.335136e-05
3.668138e-05
3.6567996e-05
3.6336766e-05
3.6328683e-05
3.5035949e-05
3.4995496e-05
3.4161539e-05
3.427409e-05
3.404248e-05
3.4387898e-05
3.4657533e-05
3.528015e-05
3.596113e-05
3.6886304e-05
3.7934843e-05
3.9183195e-05
4.058828e-05
4.2185338e-05
4.3968364e-05
4.596398e-05
4.818985e-05
5.0681883e-05
5.348163e-05
5.6646185e-05
6.0241814e-05
6.436659e-05
6.9139787e-05
7.4703926e-05
8.1225439e-05
8.8872841e-05
9.7856375e-05
0.00010847927
0.00012115068
0.00013629345
0.00015441983
0.00017619605
0.00020244233
0.00023414372
0.00027252873
0.0003191162
0.00037576589
0.00044477466
0.00052896516
0.00063179193
0.00075748908
0.00091122263
0.0010993539
0.0012168049
0.0012170634
0.0012164718
0.0012154565
0.0012142499
0.0012128595
0.0012111886
0.0012089443
0.0012060404
0.001202536
0.001198623
0.0011947022
0.0011911317
0.0011880175
0.0011852746
0.0011828882
0.0011807735
0.0011790711
0.0011774757
0.0011765872
0.001175123
0.0011757754
0.0011738467
0.0011779953
0.0011715065
0.0011776547
3.1213192e-06
2.3089459e-05
2.3917362e-05
3.1445695e-05
2.6675444e-05
3.2088417e-05
3.1046935e-05
3.2990848e-05
3.3704263e-05
3.2564959e-05
3.3023203e-05
3.1428981e-05
3.163389e-05
3.0734473e-05
3.0942337e-05
3.0695673e-05
3.1057565e-05
3.1302565e-05
3.189128e-05
3.251582e-05
3.3363386e-05
3.4314009e-05
3.5440169e-05
3.6701247e-05
3.8129598e-05
3.9721193e-05
4.1501395e-05
4.3488825e-05
4.5718335e-05
4.8230358e-05
5.1079412e-05
5.4332876e-05
5.8074655e-05
6.2399165e-05
6.7438481e-05
7.3351827e-05
8.0336075e-05
8.8585046e-05
9.8304682e-05
0.00010983485
0.00012362199
0.00014013571
0.00015994692
0.00018380788
0.00021262046
0.00024748328
0.00028977226
0.00034116735
0.00040373123
0.00048000619
0.00057309574
0.00068680428
0.00082577523
0.00099570168
0.0012036177
0.0012163444
0.0012157965
0.0012147648
0.0012135398
0.0012121533
0.0012105511
0.0012086057
0.0012059662
0.0012026476
0.0011988105
0.0011948781
0.0011912695
0.0011881242
0.0011853626
0.0011829504
0.0011808341
0.001179086
0.0011775292
0.0011765222
0.0011751914
0.0011755149
0.0011738439
0.0011776329
0.0011715131
0.0011771575
2.7740056e-06
2.283954e-05
2.2061565e-05
2.880823e-05
2.475591e-05
2.9065907e-05
2.8861461e-05
2.966075e-05
3.0972876e-05
2.9152919e-05
2.9938162e-05
2.8214243e-05
2.8561738e-05
2.7663417e-05
2.7919645e-05
2.7685497e-05
2.8044511e-05
2.8276001e-05
2.8824788e-05
2.9399273e-05
3.0171216e-05
3.1032251e-05
3.2045999e-05
3.3178229e-05
3.4457629e-05
3.588367e-05
3.7480679e-05
3.9268832e-05
4.1282087e-05
4.355985e-05
4.6153574e-05
4.9125664e-05
5.255278e-05
5.6528123e-05
6.1163145e-05
6.6589066e-05
7.2979346e-05
8.056053e-05
8.9553062e-05
0.00010018354
0.00011284146
0.00012802227
0.00014624258
0.00016816693
0.00019464681
0.00022668898
0.00026554841
0.00031277502
0.00037025337
0.0004403118
0.00052579334
0.0006301793
0.00075772752
0.00091364204
0.0011043431
0.001215662
0.0012151658
0.001214112
0.0012128575
0.0012114546
0.0012098639
0.001208006
0.0012056813
0.0012025998
0.0011988809
0.0011949632
0.0011913322
0.0011881702
0.0011853999
0.0011829759
0.0011808604
0.0011790861
0.0011775584
0.0011764689
0.0011752529
0.0011752902
0.0011738532
0.0011770884
0.0011715941
0.0011768696
2.4817696e-06
2.2520528e-05
2.0456743e-05
2.6380004e-05
2.3006916e-05
2.6317191e-05
2.685356e-05
2.6622672e-05
2.8388219e-05
2.6083247e-05
2.7065219e-05
2.5300902e-05
2.5722198e-05
2.486454e-05
2.5138717e-05
2.4931825e-05
2.5275995e-05
2.5499408e-05
2.6005563e-05
2.6534408e-05
2.7234655e-05
2.8014364e-05
2.8926902e-05
2.9945899e-05
3.1096422e-05
3.2381709e-05
3.3825055e-05
3.5447783e-05
3.7282578e-05
3.9367398e-05
4.1750317e-05
4.4489222e-05
4.7654606e-05
5.1330609e-05
5.5619395e-05
6.0645898e-05
6.6554681e-05
7.353476e-05
8.184259e-05
9.1718994e-05
0.00010344435
0.0001174655
0.0001343285
0.00015461865
0.00017911972
0.00020878391
0.00024475806
0.00028848118
0.00034169628
0.00040655004
0.00048567257
0.00058227734
0.00070030151
0.00084455247
0.0010209459
0.0012149965
0.0012145657
0.0012134874
0.0012121962
0.0012107666
0.0012091671
0.0012073428
0.0012051797
0.0012023906
0.0011988359
0.0011949609
0.001191323
0.0011881578
0.0011853892
0.0011829654
0.0011808551
0.0011790692
0.0011775635
0.0011764212
0.0011752997
0.0011751018
0.001173877
0.0011765623
0.0011716785
0.0011765037
2.2368771e-06
2.2089476e-05
1.909819e-05
2.4121983e-05
2.1405131e-05
2.3786609e-05
2.4976889e-05
2.3830844e-05
2.5906528e-05
2.3327095e-05
2.4386206e-05
2.2666053e-05
2.3104323e-05
2.2320576e-05
2.2589375e-05
2.2420957e-05
2.2742688e-05
2.2962605e-05
2.342667e-05
2.3915349e-05
2.4550827e-05
2.5259679e-05
2.6084973e-05
2.7008443e-05
2.8051903e-05
2.9222e-05
3.0540926e-05
3.2030603e-05
3.3722137e-05
3.5651613e-05
3.7863641e-05
4.0411703e-05
4.3360601e-05
4.6787961e-05
5.0787663e-05
5.5473472e-05
6.098592e-05
6.7490846e-05
7.5204211e-05
8.4409273e-05
9.5369588e-05
0.00010845185
0.00012417668
0.00014313005
0.00016600873
0.00019372322
0.00022734334
0.00026820789
0.00031795246
0.00037857559
0.00045253547
0.00054283097
0.00065313849
0.00078794773
0.00095277026
0.001154392
0.0012139891
0.001212886
0.0012115526
0.0012100892
0.0012084691
0.0012066489
0.0012045497
0.0012020057
0.0011986685
0.0011948678
0.0011912392
0.0011880847
0.0011853292
0.0011829172
0.0011808186
0.0011790334
0.0011775456
0.0011763734
0.0011753297
0.0011749447
0.0011739058
0.0011760777
0.0011717981
0.0011762723
2.0320082e-06
2.1151383e-05
1.7949213e-05
2.200725e-05
1.9926996e-05
2.1431527e-05
2.319404e-05
2.1302455e-05
2.349486e-05
2.0837917e-05
2.1880409e-05
2.0271302e-05
2.0685867e-05
1.9997982e-05
2.0246312e-05
2.0122003e-05
2.0417674e-05
2.0636607e-05
2.1061161e-05
2.151484e-05
2.2093563e-05
2.2742007e-05
2.3494013e-05
2.4338631e-05
2.529491e-05
2.6372113e-05
2.7591229e-05
2.8974158e-05
3.0550164e-05
3.2353255e-05
3.442468e-05
3.6813858e-05
3.9580751e-05
4.2797175e-05
4.6550451e-05
5.0947189e-05
5.6117947e-05
6.2223316e-05
6.9454456e-05
7.8074972e-05
8.8376688e-05
0.00010069028
0.00011546269
0.00013329676
0.00015483446
0.00018092703
0.0002125975
0.00025109659
0.00029797232
0.00035510434
0.00042480773
0.00050990685
0.00061386257
0.00074090406
0.0008962143
0.0010861691
0.0012134242
0.0012122991
0.0012109196
0.0012094177
0.0012077701
0.0012059406
0.0012038676
0.0012014337
0.001198375
0.0011946845
0.0011910815
0.0011879512
0.0011852206
0.0011828313
0.0011807522
0.0011789782
0.0011775069
0.0011763231
0.0011753415
0.0011748138
0.0011739425
0.0011756305
0.0011719107
0.0011760536
1.8563816e-06
1.7842863e-05
1.6900656e-05
1.9996205e-05
1.8582653e-05
1.9221245e-05
2.1499892e-05
1.9034466e-05
2.1214003e-05
1.8594844e-05
1.955498e-05
1.8101163e-05
1.846572e-05
1.7883394e-05
1.8102761e-05
1.8023023e-05
1.8292008e-05
1.851099e-05
1.8900249e-05
1.9324119e-05
1.9855029e-05
2.0453646e-05
2.11462e-05
2.1927727e-05
2.2814924e-05
2.3818887e-05
2.495927e-05
2.6257455e-05
2.774082e-05
2.9441258e-05
3.1397069e-05
3.3654117e-05
3.626844e-05
3.9307335e-05
4.2852912e-05
4.7006128e-05
5.1890789e-05
5.7658605e-05
6.4498208e-05
7.2642854e-05
8.2385902e-05
9.4051652e-05
0.00010806225
0.00012496452
0.00014540376
0.0001701666
0.00020024012
0.00023680695
0.0002813398
0.0003356246
0.00040185787
0.00048272205
0.00058150134
0.00070221105
0.00084976663
0.0010302074
0.0012128597
0.0012117191
0.0012102908
0.0012087474
0.0012070682
0.001205222
0.0012031591
0.0012007925
0.0011979508
0.0011944121
0.0011908508
0.0011877583
0.001185064
0.0011827084
0.0011806574
0.0011789037
0.0011774497
0.001176269
0.0011753357
0.0011747064
0.0011739796
0.0011752211
0.0011720347
0.0011758859
1.6884779e-06
1.7143351e-05
1.5631827e-05
1.8077956e-05
1.735811e-05
1.7210507e-05
1.9858758e-05
1.7008913e-05
1.9059592e-05
1.6577808e-05
1.7408971e-05
1.613654e-05
1.6435865e-05
1.5959604e-05
1.614675e-05
1.6108663e-05
1.6352767e-05
1.6572082e-05
1.6931414e-05
1.7330738e-05
1.7822924e-05
1.8381827e-05
1.902765e-05
1.9760016e-05
2.0593638e-05
2.1540602e-05
2.2619291e-05
2.3850212e-05
2.5258972e-05
2.6875528e-05
2.8735684e-05
3.0882416e-05
3.3368665e-05
3.6258256e-05
3.9629457e-05
4.3578789e-05
4.8224794e-05
5.3714232e-05
6.0228408e-05
6.7983218e-05
7.7266367e-05
8.8399204e-05
0.00010178193
0.00011792405
0.00013746535
0.00016114849
0.00018992229
0.00022492043
0.00026755081
0.00031952508
0.00038294266
0.00046037002
0.00055494716
0.00067051384
0.00081176813
0.00098447512
0.0011957052
0.0012111374
0.0012096591
0.0012080727
0.0012063595
0.0012044924
0.0012024297
0.0012001031
0.00119739
0.0011940535
0.0011905498
0.0011875081
0.0011848615
0.0011825496
0.0011805359
0.0011788112
0.0011773771
0.0011762109
0.0011753141
0.0011746208
0.0011740185
0.001174856
0.0011721613
0.0011757289
1.5436731e-06
1.6494493e-05
1.4481177e-05
1.6269764e-05
1.6219525e-05
1.540671e-05
1.8214586e-05
1.5182186e-05
1.7013843e-05
1.4750379e-05
1.5428251e-05
1.4349364e-05
1.4580139e-05
1.4205355e-05
1.4362738e-05
1.4362647e-05
1.4586448e-05
1.4807116e-05
1.5143176e-05
1.5523769e-05
1.5986511e-05
1.6515376e-05
1.7126088e-05
1.7821461e-05
1.8614632e-05
1.951805e-05
2.0548895e-05
2.1726707e-05
2.307553e-05
2.4623716e-05
2.64051e-05
2.8460384e-05
3.0840216e-05
3.3605867e-05
3.6832705e-05
4.0613699e-05
4.5063751e-05
5.0325449e-05
5.6570751e-05
6.4015392e-05
7.2931129e-05
8.3632159e-05
9.6497997e-05
0.00011203749
0.00013085792
0.00015367954
0.00018141399
0.00021515893
0.00025626961
0.00030639785
0.0003675653
0.00044224412
0.00053345763
0.00064490237
0.00078110079
0.00094759653
0.001151188
0.0012105462
0.0012090178
0.0012073882
0.0012056403
0.0012037502
0.0012016826
0.0011993816
0.0011967517
0.0011936132
0.0011901824
0.0011872036
0.0011846154
0.0011823572
0.0011803901
0.0011787021
0.0011772924
0.0011761493
0.0011752795
0.0011745552
0.0011740577
0.0011745388
0.0011723012
0.0011756022
1.4171063e-06
1.5797307e-05
1.3398397e-05
1.4530716e-05
1.5145091e-05
1.3771439e-05
1.6556032e-05
1.3520512e-05
1.5077743e-05
1.3085702e-05
1.3605929e-05
1.2718971e-05
1.2886731e-05
1.2604871e-05
1.2738598e-05
1.2772581e-05
1.2982114e-05
1.3205669e-05
1.3474736e-05
1.3833978e-05
1.4269368e-05
1.4771353e-05
1.5351827e-05
1.6015234e-05
1.6773095e-05
1.76376e-05
1.8624634e-05
1.9752599e-05
2.1044023e-05
2.2525814e-05
2.4230161e-05
2.619574e-05
2.8471328e-05
3.1116029e-05
3.4202709e-05
3.7821297e-05
4.2083509e-05
4.7128196e-05
5.3469726e-05
6.066981e-05
6.9298086e-05
7.9656902e-05
9.2114057e-05
0.00010718277
0.00012543691
0.00014758394
0.00017450527
0.00020726959
0.00024719211
0.00029587607
0.00035528211
0.00042780654
0.00051637943
0.00062458195
0.000756795
0.00091838458
0.0011159278
0.0012099377
0.0012083606
0.0012066888
0.0012049068
0.0012029934
0.0012009184
0.0011986362
0.001196073
0.0011930971
0.0011897538
0.0011868493
0.0011843293
0.0011821339
0.0011802224
0.0011785788
0.0011771995
0.0011760853
0.0011752358
0.0011745086
0.0011740968
0.001174276
0.00117246
0.0011754806
1.3064733e-06
1.5017397e-05
1.2382264e-05
1.2882147e-05
1.4107005e-05
1.2286201e-05
1.491127e-05
1.2004094e-05
1.326141e-05
1.1566579e-05
1.1939391e-05
1.1231844e-05
1.1347626e-05
1.1147795e-05
1.1217743e-05
1.1264347e-05
1.1455803e-05
1.1678403e-05
1.1983911e-05
1.2341734e-05
1.2768364e-05
1.3259675e-05
1.3825622e-05
1.4472113e-05
1.5209785e-05
1.6050728e-05
1.7010003e-05
1.8105279e-05
1.9358108e-05
2.0794512e-05
2.2445808e-05
2.4349287e-05
2.6552679e-05
2.9113832e-05
3.2104078e-05
3.5611354e-05
3.9745197e-05
4.4643046e-05
5.0467501e-05
5.7426479e-05
6.5771687e-05
7.5794069e-05
8.8540868e-05
0.00010325357
0.00012107846
0.00014271491
0.0001690237
0.00020104784
0.0002400743
0.00028766752
0.00034574129
0.00041663244
0.00050319807
0.00060892846
0.00073809256
0.00089591623
0.0010888011
0.001209305
0.0012076817
0.0012059699
0.0012041556
0.0012022199
0.0012001368
0.0011978688
0.0011953586
0.0011925124
0.0011892705
0.0011864506
0.0011840075
0.0011818832
0.0011800356
0.0011784439
0.001177102
0.0011760208
0.0011751877
0.0011744794
0.0011741346
0.0011740727
0.0011726376
0.0011753372
1.2099725e-06
1.413139e-05
1.1432103e-05
1.1388745e-05
1.3077506e-05
1.0928682e-05
1.3283209e-05
1.0615146e-05
1.1575472e-05
1.0179051e-05
1.0425194e-05
9.8777468e-06
9.8850132e-06
9.7341315e-06
9.832935e-06
9.9213609e-06
1.0121379e-05
1.0358299e-05
1.0665464e-05
1.1024507e-05
1.1447073e-05
1.1932574e-05
1.2489709e-05
1.3125256e-05
1.3849124e-05
1.4673235e-05
1.5612026e-05
1.6682579e-05
1.7905734e-05
1.9306935e-05
2.0917099e-05
2.2772395e-05
2.4919981e-05
2.7416901e-05
3.0333505e-05
3.3756304e-05
3.7792765e-05
4.2579709e-05
4.8276857e-05
5.5089763e-05
6.3265894e-05
7.3090478e-05
8.4932793e-05
9.9276126e-05
0.00011667213
0.00013894311
0.0001648184
0.00019631585
0.00023470456
0.00028151953
0.00033863966
0.00040835707
0.0004934735
0.00059741003
0.0007243499
0.00087941154
0.001068862
0.0012086424
0.0012069763
0.0012052279
0.0012033842
0.0012014284
0.0011993379
0.0011970816
0.0011946137
0.0011918669
0.0011887402
0.0011860138
0.0011836552
0.001181609
0.0011798326
0.0011783002
0.0011770033
0.0011759579
0.0011751402
0.0011744659
0.0011741703
0.0011739277
0.0011728332
0.0011752329
1.1257686e-06
1.3121674e-05
1.0541368e-05
1.0035646e-05
1.2023502e-05
9.6862571e-06
1.1689245e-05
9.342718e-06
1.0030399e-05
8.91377e-06
8.9792778e-06
8.5323486e-06
8.5688242e-06
8.4991642e-06
8.6121654e-06
8.734898e-06
8.9450673e-06
9.1954147e-06
9.5070535e-06
9.8697664e-06
1.0292204e-05
1.0775965e-05
1.132895e-05
1.1958482e-05
1.2673874e-05
1.3486889e-05
1.4411536e-05
1.5464484e-05
1.6666062e-05
1.8041336e-05
1.9550059e-05
2.1355475e-05
2.3445362e-05
2.5875938e-05
2.8716569e-05
3.2052467e-05
3.6191406e-05
4.0900563e-05
4.6508959e-05
5.3221021e-05
6.1284655e-05
7.0975196e-05
8.2660266e-05
9.6820542e-05
0.00011401094
0.00013490029
0.00016031665
0.00019292077
0.00023090073
0.00027721476
0.00033371698
0.00040266803
0.00048682983
0.00058957363
0.00071502006
0.00086820968
0.001055312
0.0012079451
0.0012062409
0.0012044601
0.0012025908
0.0012006181
0.0011985224
0.0011962774
0.0011938454
0.0011911707
0.0011881716
0.0011855463
0.0011832783
0.0011813158
0.0011796164
0.0011781499
0.001176906
0.0011758989
0.0011750978
0.0011744659
0.001174203
0.001173834
0.0011730274
0.0011751611
1.0527316e-06
1.1986184e-05
9.7022464e-06
8.8078722e-06
1.0953422e-05
8.5460573e-06
1.0152662e-05
8.1764987e-06
8.6316406e-06
7.6364731e-06
7.6685926e-06
7.3709725e-06
7.4180997e-06
7.4132179e-06
7.5420064e-06
7.6934254e-06
7.9152732e-06
8.1787234e-06
8.4972141e-06
8.8657683e-06
9.2913093e-06
9.7767185e-06
1.0329387e-05
1.0934275e-05
1.1639555e-05
1.2439811e-05
1.3348499e-05
1.4381753e-05
1.5559277e-05
1.6905426e-05
1.8449988e-05
2.0229668e-05
2.2289776e-05
2.468639e-05
2.7488713e-05
3.0782144e-05
3.4673186e-05
3.9292794e-05
4.4798728e-05
5.1395748e-05
5.9332314e-05
6.939072e-05
8.0985226e-05
9.5046463e-05
0.00011212617
0.0001328862
0.0001581517
0.00018892595
0.00022849721
0.00027455599
0.00033073762
0.0003992831
0.00048292844
0.00058501221
0.00070961313
0.00086172049
0.0010474395
0.0012072103
0.0012054731
0.001203665
0.0012017748
0.0011997892
0.0011976914
0.0011954595
0.001193063
0.001190457
0.0011875738
0.0011850557
0.0011828832
0.0011810082
0.0011793898
0.001177995
0.0011768113
0.0011758456
0.0011750644
0.0011744775
0.0011742305
0.001173781
0.0011732215
0.0011751213
9.9037386e-07
1.0733615e-05
8.9081278e-06
7.6909087e-06
9.8540029e-06
7.4970006e-06
8.7004072e-06
7.0527948e-06
7.2059167e-06
6.5161434e-06
6.5357843e-06
6.356143e-06
6.4180803e-06
6.4647576e-06
6.6106871e-06
6.7866636e-06
7.021377e-06
7.2979223e-06
7.6251847e-06
8.0014321e-06
8.4164759e-06
8.9016707e-06
9.452597e-06
1.0076465e-05
1.07824e-05
1.1581281e-05
1.2486489e-05
1.3514078e-05
1.4683577e-05
1.6019316e-05
1.755105e-05
1.9315471e-05
2.1357958e-05
2.3734664e-05
2.6514831e-05
2.9784123e-05
3.3649618e-05
3.824144e-05
4.3716741e-05
5.0285326e-05
5.8197349e-05
6.7704266e-05
7.917063e-05
9.309756e-05
0.00011093688
0.00013167212
0.00015690877
0.00018765195
0.00022512592
0.00027335914
0.00032948156
0.00039793871
0.00048145336
0.00058334671
0.00070767403
0.00085939688
0.0010445864
0.0012064366
0.0012046725
0.0012028427
0.0012009368
0.0011989429
0.0011968464
0.0011946295
0.0011922684
0.0011897289
0.0011869566
0.0011845503
0.0011824766
0.0011806914
0.0011791557
0.0011778365
0.0011767189
0.0011757984
0.0011750432
0.0011744995
0.0011742516
0.001173759
0.0011734043
0.0011751009
9.3864667e-07
9.3773404e-06
8.153402e-06
6.6744468e-06
8.7110454e-06
6.5323819e-06
7.3685958e-06
5.933955e-06
6.0170134e-06
5.5459421e-06
5.5626617e-06
5.4745382e-06
5.5551615e-06
5.6431799e-06
5.8071217e-06
6.004778e-06
6.2532254e-06
6.5430549e-06
6.8661211e-06
7.247977e-06
7.6834254e-06
8.1767982e-06
8.7343799e-06
9.3635363e-06
1.0073362e-05
1.0874686e-05
1.178088e-05
1.2808062e-05
1.3975593e-05
1.5307915e-05
1.6834868e-05
1.8593298e-05
2.062886e-05
2.2998012e-05
2.5770353e-05
2.9032473e-05
3.2892296e-05
3.7478958e-05
4.2951284e-05
4.9526564e-05
5.7448958e-05
6.6956127e-05
7.8432842e-05
9.2396157e-05
0.00010937438
0.00013001751
0.00015647982
0.00018731912
0.00022490966
0.00027073937
0.00032973057
0.00039837348
0.00048209133
0.00058420195
0.0007087528
0.00086069903
0.0010461038
0.0012056243
0.0012038398
0.0012019945
0.0012000787
0.0011980817
0.0011959906
0.0011937907
0.0011914637
0.0011889868
0.0011863292
0.0011840376
0.0011820649
0.0011803702
0.0011789172
0.0011776749
0.0011766266
0.0011757559
0.0011750346
0.0011745307
0.0011742706
0.0011737665
0.0011735825
0.0011750801
8.9878445e-07
7.9322263e-06
7.4173186e-06
5.7477498e-06
7.5232606e-06
5.6246117e-06
6.4241327e-06
4.9998519e-06
5.0001278e-06
4.705818e-06
4.732982e-06
4.7143583e-06
4.8165162e-06
4.9386836e-06
5.1210277e-06
5.3384805e-06
5.5890892e-06
5.8893949e-06
6.2357769e-06
6.6298433e-06
7.0760073e-06
7.5790741e-06
8.1453532e-06
8.7822989e-06
9.499028e-06
1.0306288e-05
1.1217493e-05
1.2225176e-05
1.3388748e-05
1.4714774e-05
1.623294e-05
1.7980018e-05
2.000168e-05
2.23544e-05
2.5108004e-05
2.8349951e-05
3.2188266e-05
3.6750965e-05
4.2201379e-05
4.9079296e-05
5.7036937e-05
6.6575275e-05
7.8113868e-05
9.2169968e-05
0.00010925463
0.00013003374
0.00015533079
0.00018779267
0.00022562769
0.00027175273
0.00032798333
0.00040031258
0.00048451271
0.00058718359
0.00071237698
0.00086506017
0.0010513112
0.001204776
0.0012029778
0.0012011235
0.0011992041
0.0011972095
0.0011951286
0.0011929482
0.0011906532
0.0011882254
0.0011857008
0.0011835252
0.0011816541
0.0011800495
0.0011786775
0.0011775106
0.0011765313
0.0011757137
0.0011750346
0.0011745688
0.0011742915
0.0011737971
0.001173749
0.0011750475
8.7496046e-07
6.5614323e-06
6.7027095e-06
4.9194356e-06
6.3466003e-06
5.1009816e-06
4.8816041e-06
4.1535653e-06
4.1602668e-06
3.9807808e-06
4.0307941e-06
4.0669723e-06
4.1915649e-06
4.342977e-06
4.5345151e-06
4.7669756e-06
5.0421503e-06
5.3580698e-06
5.7180311e-06
6.124716e-06
6.582609e-06
7.0968118e-06
7.6736658e-06
8.3206544e-06
9.0356409e-06
9.8479629e-06
1.07627e-05
1.1795771e-05
1.296676e-05
1.4299844e-05
1.5824965e-05
1.7579312e-05
1.9609097e-05
2.1971405e-05
2.4737206e-05
2.7995736e-05
3.1855527e-05
3.6445441e-05
4.19377e-05
4.8555892e-05
5.6502411e-05
6.650781e-05
7.8152452e-05
9.2341509e-05
0.00010958303
0.0001305588
0.00015609378
0.0001871997
0.00022710634
0.00027365119
0.00033037881
0.00039952863
0.00048835764
0.00059186086
0.00071803011
0.00087186026
0.0010594637
0.001203896
0.001202091
0.0012002343
0.0011983176
0.0011963317
0.0011942665
0.0011921104
0.0011898504
0.0011874716
0.0011850794
0.0011830195
0.0011812495
0.0011797334
0.0011784398
0.0011773448
0.0011764304
0.0011756657
0.0011750356
0.0011746087
0.0011743136
0.0011738349
0.0011738952
0.0011749978
8.709955e-07
5.6318054e-06
6.0285904e-06
4.9063285e-06
6.0753348e-06
3.8715707e-06
3.9016093e-06
3.4449069e-06
3.4600148e-06
3.373673e-06
3.4455222e-06
3.526546e-06
3.6725222e-06
3.8398677e-06
4.055242e-06
4.3069773e-06
4.598004e-06
4.928629e-06
5.3021387e-06
5.7218764e-06
6.1924175e-06
6.7190385e-06
7.3017311e-06
7.9582479e-06
8.6931641e-06
9.5171657e-06
1.0443275e-05
1.1487468e-05
1.2669449e-05
1.4013598e-05
1.5550214e-05
1.7317018e-05
1.9360811e-05
2.1739452e-05
2.4525556e-05
2.7810108e-05
3.1701168e-05
3.6329803e-05
4.1879559e-05
4.8570435e-05
5.6585138e-05
6.6199946e-05
7.8470022e-05
9.2822327e-05
0.00011026086
0.00013147893
0.0001573054
0.00018876207
0.00022915144
0.00027620424
0.00033353437
0.00040339737
0.00049321868
0.00059774466
0.00072512523
0.00088039391
0.0010697121
0.0012029901
0.001201185
0.0011993326
0.0011974251
0.001195454
0.0011934102
0.0011912835
0.0011890627
0.001186735
0.0011844723
0.0011825255
0.0011808546
0.0011794249
0.001178207
0.0011771796
0.0011763234
0.0011756075
0.0011750281
0.0011746393
0.0011743273
0.0011738673
0.0011740241
0.0011749243
8.86501e-07
5.8527966e-06
5.4001861e-06
5.3187549e-06
5.0390114e-06
3.077902e-06
3.1688743e-06
2.8546026e-06
2.8837023e-06
2.8725247e-06
2.966602e-06
3.0837349e-06
3.2422867e-06
3.4377097e-06
3.6713639e-06
3.9398264e-06
4.2456077e-06
4.5903681e-06
4.9775026e-06
5.4107375e-06
5.8947115e-06
6.4304701e-06
7.0312138e-06
7.7014294e-06
8.4499401e-06
9.2874185e-06
1.0226896e-05
1.1284415e-05
1.2479822e-05
1.3837765e-05
1.5388971e-05
1.7171744e-05
1.9233494e-05
2.163321e-05
2.4445545e-05
2.7762258e-05
3.1690108e-05
3.6367276e-05
4.1991259e-05
4.876381e-05
5.6845061e-05
6.7047073e-05
7.8984803e-05
9.3522513e-05
0.00011118231
0.00013266855
0.00015881737
0.0001906603
0.00023153835
0.00027914364
0.00033713085
0.00040777421
0.00049861996
0.00060426392
0.00073297594
0.00088983542
0.0010810617
0.0012020656
0.001200267
0.0011984252
0.0011965329
0.0011945826
0.0011925659
0.0011904739
0.0011882967
0.0011860234
0.0011838848
0.0011820468
0.0011804713
0.0011791248
0.0011779797
0.0011770157
0.0011762117
0.0011755392
0.0011750047
0.0011746432
0.0011743181
0.0011738987
0.0011741095
0.0011748205
7.919439e-07
6.1792115e-06
4.6729067e-06
3.1161759e-06
3.2071555e-06
2.5526042e-06
2.5356527e-06
2.3868079e-06
2.4220268e-06
2.4679357e-06
2.5837617e-06
2.7236144e-06
2.9061924e-06
3.1212745e-06
3.3708731e-06
3.6543114e-06
3.9741169e-06
4.3327027e-06
4.7335602e-06
5.1806054e-06
5.6761112e-06
6.2291054e-06
6.8442546e-06
7.5288984e-06
8.2918205e-06
9.1436728e-06
1.0097503e-05
1.1169429e-05
1.2379465e-05
1.375258e-05
1.5319981e-05
1.7120505e-05
1.9202297e-05
2.1625958e-05
2.4467889e-05
2.7818806e-05
3.178611e-05
3.652252e-05
4.22312e-05
4.906977e-05
5.759855e-05
6.7511598e-05
7.9623857e-05
9.4344658e-05
0.00011222892
0.00013398298
0.00016045628
0.00019268638
0.00023400816
0.0002821595
0.00034079683
0.00041221354
0.00050401098
0.00061075718
0.0007407863
0.00089922574
0.0010923556
0.0012011312
0.0011993451
0.0011975196
0.0011956484
0.0011937243
0.0011917402
0.0011896877
0.0011875584
0.0011853429
0.001183321
0.0011815856
0.0011800999
0.001178832
0.001177756
0.0011768515
0.0011760956
0.0011754637
0.0011749676
0.0011746212
0.0011742862
0.0011739158
0.0011741376
0.0011746766
6.0637794e-07
4.1236562e-06
3.5345256e-06
2.5006855e-06
2.4772643e-06
2.0736065e-06
2.0540086e-06
1.9963742e-06
2.0576173e-06
2.1441221e-06
2.2825924e-06
2.4460968e-06
2.6472341e-06
2.8790028e-06
3.1431986e-06
3.4406881e-06
3.7741349e-06
4.1463564e-06
4.5608952e-06
5.0217345e-06
5.5335023e-06
6.0993325e-06
6.728826e-06
7.427834e-06
8.2051055e-06
9.0712764e-06
1.0039429e-05
1.1125771e-05
1.235051e-05
1.373894e-05
1.5322707e-05
1.7141152e-05
1.9243413e-05
2.169189e-05
2.4563452e-05
2.7946926e-05
3.1955828e-05
3.6955202e-05
4.2779813e-05
4.9708983e-05
5.7971634e-05
6.8023005e-05
8.0288117e-05
9.5172344e-05
0.00011326387
0.00013526139
0.00016202985
0.00019631803
0.00023626961
0.00028490124
0.00034410942
0.00041620527
0.00050875615
0.00061645738
0.00074763002
0.000907445
0.0011022373
0.0012001969
0.0011984286
0.0011966247
0.0011947793
0.0011928864
0.0011909393
0.0011889308
0.0011868532
0.0011846984
0.0011827837
0.0011811426
0.0011797396
0.0011785444
0.0011775322
0.0011766824
0.0011759711
0.0011753786
0.0011749169
0.0011745802
0.0011742434
0.0011739212
0.0011741157
0.0011744814
4.7108595e-07
2.5015465e-06
2.7636674e-06
1.9700771e-06
1.9157496e-06
1.6851486e-06
1.6845403e-06
1.690794e-06
1.7782116e-06
1.8962402e-06
2.0544646e-06
2.2386222e-06
2.4552693e-06
2.7013978e-06
2.978862e-06
3.2893876e-06
3.6357109e-06
4.0208314e-06
4.4482844e-06
4.9220546e-06
5.4467223e-06
6.0275695e-06
6.6707798e-06
7.3836895e-06
8.175131e-06
9.0558773e-06
1.0039204e-05
1.1141603e-05
1.2383683e-05
1.3791291e-05
1.5396686e-05
1.723998e-05
1.9371873e-05
2.1856492e-05
2.4769759e-05
2.8200883e-05
3.2277071e-05
3.7173767e-05
4.3034451e-05
4.9971632e-05
5.82935e-05
6.8461455e-05
8.0842283e-05
9.5860345e-05
0.00011411027
0.00013744291
0.00016462858
0.00019769745
0.00023793523
0.00028690447
0.00034651093
0.00042303508
0.00051202701
0.00062037156
0.00075231612
0.00091306285
0.0011089865
0.0011992732
0.0011975274
0.0011957493
0.001193934
0.0011920759
0.0011901693
0.001188208
0.0011861852
0.0011840936
0.0011822745
0.0011807175
0.0011793886
0.0011782586
0.0011773038
0.0011765031
0.0011758329
0.0011752778
0.0011748467
0.0011745192
0.001174193
0.0011739221
0.0011740812
0.0011743097
3.7630999e-07
1.9567577e-06
2.0704653e-06
1.5638513e-06
1.5012622e-06
1.3837913e-06
1.4050606e-06
1.4578037e-06
1.5683802e-06
1.7101351e-06
1.8844943e-06
2.0851363e-06
2.31441e-06
2.5724803e-06
2.8612899e-06
3.1829781e-06
3.5402944e-06
3.9363005e-06
4.3745056e-06
4.8588793e-06
5.3939708e-06
5.9850322e-06
6.6382109e-06
7.3608048e-06
8.1616071e-06
9.0513559e-06
1.0043304e-05
1.1153961e-05
1.2404043e-05
1.3819499e-05
1.5432636e-05
1.7284049e-05
1.9425611e-05
2.1921034e-05
2.4843521e-05
2.8287622e-05
3.2395844e-05
3.7326816e-05
4.3171709e-05
5.0090537e-05
5.8475782e-05
6.9231156e-05
8.1764759e-05
9.6964875e-05
0.00011542312
0.00013785161
0.00016512013
0.00019828554
0.00023863501
0.00028773201
0.00035065158
0.00042389518
0.00051303875
0.00062156246
0.00075372221
0.00091473223
0.0011109834
0.0011983732
0.0011966538
0.001194905
0.0011931224
0.0011913012
0.0011894367
0.0011875237
0.0011855571
0.001183531
0.0011817938
0.0011803089
0.0011790435
0.0011779696
0.0011770642
0.0011763056
0.0011756717
0.0011751505
0.0011747449
0.0011744262
0.0011741177
0.0011738913
0.0011740047
0.0011741096
2.7481703e-07
1.5102629e-06
1.5302003e-06
1.2599053e-06
1.1964232e-06
1.1557371e-06
1.2022066e-06
1.2908485e-06
1.4229018e-06
1.5843074e-06
1.7735082e-06
1.9884473e-06
2.2301929e-06
2.5000296e-06
2.800081e-06
3.1324253e-06
3.5003704e-06
3.9067862e-06
4.3551842e-06
4.8495418e-06
5.3944044e-06
5.9950113e-06
6.6574861e-06
7.3890906e-06
8.1985746e-06
9.0966298e-06
1.0096478e-05
1.1214644e-05
1.247187e-05
1.3894043e-05
1.5513526e-05
1.7371648e-05
1.9520655e-05
2.2021567e-05
2.5037202e-05
2.8516625e-05
3.2678686e-05
3.7636101e-05
4.3467766e-05
5.0428861e-05
5.8926852e-05
6.9268786e-05
8.1788243e-05
9.6977705e-05
0.00011541325
0.00013781107
0.0001650334
0.00019990162
0.00024045576
0.00028977557
0.00034976888
0.00042276233
0.00051159502
0.00061973522
0.00075142559
0.00091186499
0.001107427
0.0011975063
0.0011958169
0.0011941003
0.0011923524
0.0011905691
0.001188746
0.0011868785
0.001184962
0.0011830099
0.0011813389
0.0011799124
0.0011786985
0.00117767
0.0011768042
0.0011760794
0.0011754755
0.001174982
0.0011745963
0.0011742865
0.0011740009
0.0011738108
0.0011738755
0.0011738886
2.3562848e-07
1.228601e-06
1.1085908e-06
1.0174553e-06
9.7844972e-07
9.8668099e-07
1.0555551e-06
1.1677438e-06
1.3136717e-06
1.4860654e-06
1.6829549e-06
1.9042071e-06
2.151025e-06
2.4251559e-06
2.7287911e-06
3.064387e-06
3.434537e-06
3.8422398e-06
4.2910574e-06
4.7849822e-06
5.3285567e-06
5.9270038e-06
6.5864146e-06
7.3140114e-06
8.1184911e-06
9.0104758e-06
1.0003118e-05
1.111287e-05
1.2360307e-05
1.3771041e-05
1.5377456e-05
1.7221156e-05
1.9352659e-05
2.1829652e-05
2.4729839e-05
2.8172082e-05
3.2280241e-05
3.7117533e-05
4.2814508e-05
4.9703125e-05
5.8115046e-05
6.8302643e-05
8.1257304e-05
9.6329218e-05
0.00011461847
0.00013683121
0.00016382345
0.00019663799
0.00023654367
0.0002850862
0.00034414948
0.00041603188
0.00050353952
0.00061010187
0.00073991612
0.00089812741
0.0010910458
0.0011966909
0.0011950369
0.0011933574
0.0011916489
0.0011899076
0.0011881297
0.0011863112
0.0011844483
0.0011825482
0.0011809229
0.0011795369
0.0011783588
0.0011773619
0.0011765233
0.0011758215
0.001175238
0.0011747627
0.0011743876
0.0011740831
0.0011738183
0.0011736536