/*--------------------------------*- C++ -*----------------------------------*\
  =========                 |
  \\      /  F ield         | OpenFOAM: The Open Source CFD Toolbox
   \\    /   O peration     | Website:  https://openfoam.org
    \\  /    A nd           | Version:  6
     \\/     M anipulation  |
\*---------------------------------------------------------------------------*/
FoamFile
{
    version     2.0;
    format      ascii;
    class       volScalarField;
    location    "200";
    object      k;
}
// * * * * * * * * * * * * * * * * * * * * * * * * * * * * * * * * * * * * * //

dimensions      [0 2 -2 0 0 0 0];

internalField   nonuniform List<scalar> 
16000
(
0.10643962
0.031604233
0.023008653
0.017458199
0.015402315
0.014181762
0.013280913
0.012844701
0.012411933
0.012150387
0.011902938
0.011714705
0.011553794
0.011426717
0.011322756
0.011237577
0.011166425
0.011106632
0.011055767
0.011012201
0.010974573
0.010941868
0.010913254
0.010888082
0.010865822
0.010846045
0.010828398
0.010812588
0.010798368
0.010785531
0.010773897
0.010763302
0.010753552
0.010744609
0.010736318
0.010728629
0.010721481
0.010714776
0.010708427
0.010702362
0.01069649
0.010690722
0.01068498
0.010679199
0.010673319
0.010667269
0.010660976
0.010654366
0.010647363
0.01063989
0.010631865
0.010623205
0.010613818
0.010603604
0.010592447
0.010580186
0.010566598
0.010551362
0.010533941
0.010513102
0.010485016
0.010448294
0.010402671
0.010349406
0.010291872
0.010235762
0.010185773
0.010142908
0.010106108
0.010074913
0.010048616
0.010028524
0.010011812
0.010004335
0.0099939192
0.010007947
0.01000292
0.010053714
0.010004818
0.010059146
0.09207587
0.032143638
0.022417131
0.017292901
0.015169997
0.014071248
0.013152403
0.012749029
0.012316017
0.012061891
0.01181967
0.011635506
0.0114854
0.011366973
0.011270014
0.011190613
0.011124284
0.011068567
0.011021178
0.010980599
0.010945558
0.010915106
0.010888464
0.010865024
0.010844289
0.010825859
0.0108094
0.010794639
0.010781343
0.010769317
0.010758396
0.010748435
0.010739308
0.010730889
0.010723018
0.010715665
0.010708717
0.010702176
0.010695947
0.010689956
0.010684115
0.010678344
0.010672561
0.010666706
0.010660726
0.010654555
0.010648125
0.010641365
0.010634203
0.010626566
0.010618377
0.010609553
0.010600007
0.010589643
0.010578351
0.01056599
0.010552364
0.010537207
0.010520146
0.010500544
0.010476906
0.010444729
0.010402718
0.010351836
0.010295103
0.010238669
0.010188047
0.010144715
0.010107589
0.010076054
0.010049631
0.010029018
0.010012463
0.010003763
0.0099938341
0.010004536
0.010000009
0.010050163
0.010005724
0.010059468
0.082727962
0.03268289
0.021738698
0.017106479
0.014930927
0.01394719
0.013020696
0.012645469
0.012218444
0.01196862
0.011734851
0.011560627
0.011420929
0.011310796
0.011220586
0.011146747
0.011085069
0.01103328
0.010989243
0.010951544
0.010918995
0.010890711
0.010865966
0.010844189
0.010824917
0.010807773
0.010792448
0.010778682
0.010766259
0.010754995
0.010744733
0.010735339
0.010726695
0.010718692
0.010711234
0.0107042
0.010697496
0.01069105
0.010684872
0.010678901
0.01067304
0.010667208
0.01066133
0.010655345
0.010649208
0.01064286
0.010636234
0.010629266
0.010621889
0.01061403
0.010605618
0.010596573
0.010586812
0.010576242
0.010564757
0.010552229
0.010538483
0.01052328
0.01050631
0.010487122
0.010464877
0.010437619
0.010399963
0.01035219
0.010296843
0.010240441
0.010189408
0.010145799
0.010108488
0.010076798
0.010050298
0.010029431
0.010013015
0.010003583
0.009994225
0.010002438
0.0099986384
0.010047684
0.010004398
0.010054612
0.074494302
0.033086365
0.021050416
0.016898773
0.014690652
0.013807478
0.012888873
0.012532086
0.012120212
0.011869313
0.011651475
0.011489924
0.01136024
0.011258042
0.011174325
0.011105824
0.01104862
0.011000605
0.01095979
0.010924856
0.010894699
0.010868494
0.010845564
0.010825377
0.010807497
0.010791576
0.010777322
0.010764493
0.010752885
0.010742327
0.010732669
0.010723786
0.010715567
0.010707913
0.010700733
0.010693944
0.010687457
0.010681139
0.010674957
0.010668941
0.01066301
0.010657067
0.01065104
0.010644875
0.010638531
0.010631954
0.010625084
0.01061786
0.010610218
0.010602091
0.010593409
0.010584098
0.010574076
0.010563254
0.010551531
0.010538785
0.01052486
0.010509537
0.010492539
0.010473497
0.010451804
0.01042624
0.010393754
0.010349916
0.010296635
0.010240689
0.010189513
0.010145846
0.010108543
0.010076865
0.01005042
0.010029443
0.010013261
0.010003266
0.0099947148
0.010000362
0.0099976766
0.010041795
0.010004365
0.010051645
0.067242535
0.033260395
0.020365889
0.016668525
0.014451139
0.013651826
0.012757741
0.012408785
0.012021672
0.011774678
0.011573051
0.011423534
0.011303459
0.011208845
0.011131365
0.011067983
0.011015076
0.010970682
0.010932959
0.010900677
0.010872812
0.010848596
0.010827398
0.010808723
0.010792165
0.010777398
0.010764149
0.010752192
0.010741336
0.010731419
0.010722303
0.010713867
0.01070601
0.010698637
0.010691666
0.01068502
0.010678624
0.010672404
0.01066624
0.010660099
0.010654032
0.010647924
0.010641691
0.010635289
0.010628682
0.010621823
0.010614657
0.010607125
0.010599169
0.010590725
0.010581727
0.010572103
0.010561775
0.010550657
0.010538651
0.010525643
0.010511487
0.010495985
0.010478881
0.010459856
0.010438428
0.010413754
0.010384097
0.010345066
0.010294583
0.010239539
0.010188476
0.010144963
0.010107852
0.010076349
0.010050078
0.010029131
0.01001321
0.010002876
0.0099951316
0.0099985543
0.0099970507
0.010035773
0.010004305
0.01004696
0.060855388
0.033085641
0.019698681
0.016414765
0.014214609
0.013479649
0.012628243
0.012275127
0.011921895
0.011685694
0.011499576
0.011361471
0.011250602
0.011163227
0.011091724
0.011033241
0.010984452
0.010943524
0.010908761
0.010879014
0.010853337
0.010831014
0.010811462
0.010794217
0.010778902
0.010765213
0.010752896
0.010741738
0.010731563
0.010722217
0.010713571
0.010705512
0.010697945
0.010690782
0.010683948
0.010677371
0.010670986
0.010664729
0.010658533
0.010652275
0.010645982
0.010639653
0.01063316
0.010626464
0.010619543
0.01061235
0.010604839
0.010596953
0.010588638
0.010579833
0.010570477
0.010560499
0.010549826
0.010538374
0.010526049
0.01051274
0.010498312
0.010482584
0.010465318
0.010446227
0.010424904
0.010400686
0.010372372
0.010337439
0.010290585
0.010236942
0.010186254
0.010143111
0.010106377
0.010075217
0.010049241
0.01002846
0.010012814
0.010002334
0.0099953442
0.0099969462
0.0099965829
0.01003001
0.010004694
0.010043717
0.055230229
0.032444067
0.019061328
0.016136618
0.013982942
0.013290578
0.012501067
0.012144371
0.011819877
0.011602418
0.011431097
0.011303809
0.011201737
0.011121264
0.011055478
0.011001676
0.010956825
0.010919209
0.010887271
0.01085994
0.010836342
0.010815814
0.010797813
0.01078191
0.010767754
0.010755061
0.010743593
0.010733154
0.010723577
0.010714721
0.010706464
0.010698701
0.010691343
0.010684311
0.010677534
0.010670947
0.010664492
0.010658114
0.010651754
0.010645349
0.010638788
0.010632171
0.010625365
0.010618317
0.010611028
0.010603452
0.010595548
0.010587262
0.010578546
0.010569341
0.010559588
0.010549222
0.010538169
0.010526351
0.010513674
0.010500034
0.010485301
0.010469308
0.010451837
0.010432624
0.010411313
0.010387353
0.010359813
0.010326908
0.010284632
0.010232944
0.010182886
0.010140325
0.010104149
0.010073494
0.010047938
0.010027452
0.010012096
0.010001643
0.0099953039
0.0099955095
0.0099961992
0.010024507
0.010004726
0.010040258
0.050276457
0.031258025
0.018462754
0.015832614
0.013757642
0.013084019
0.01237549
0.012022061
0.01172479
0.011524889
0.011367646
0.011250608
0.011156924
0.011083024
0.011022692
0.010973356
0.010932259
0.010897797
0.010868545
0.010843505
0.010821873
0.010803032
0.010786483
0.010771825
0.010758732
0.01074694
0.010736229
0.010726416
0.010717345
0.010708886
0.010700925
0.010693366
0.010686127
0.010679136
0.010672327
0.010665646
0.010659039
0.010652457
0.010645853
0.010639174
0.010632357
0.010625359
0.010618183
0.01061073
0.010603022
0.010595017
0.010586677
0.010577953
0.010568799
0.01055916
0.010548979
0.010538194
0.010526734
0.010514522
0.010501469
0.010487472
0.01047241
0.010456126
0.010438416
0.010419041
0.010397682
0.010373872
0.010346858
0.010315327
0.010276683
0.01022759
0.010178411
0.010136635
0.010101191
0.010071198
0.01004619
0.010026116
0.010011079
0.010000793
0.0099949917
0.0099942095
0.0099958068
0.010019278
0.010004714
0.010037201
0.045915864
0.02980067
0.017903588
0.015500837
0.013540539
0.012876859
0.012250315
0.011908166
0.011636607
0.011453166
0.01130928
0.011201953
0.011116244
0.011048596
0.010993453
0.010948364
0.010910836
0.010879366
0.010852654
0.010829774
0.010809985
0.010792716
0.010777507
0.010763984
0.010751847
0.01074085
0.010730789
0.010721494
0.010712823
0.010704654
0.010696884
0.010689425
0.010682203
0.010675153
0.010668219
0.01066135
0.010654503
0.010647635
0.010640704
0.010633675
0.010626506
0.010619083
0.010611489
0.010603584
0.010595411
0.010586936
0.010578122
0.010568927
0.010559304
0.010549204
0.01053857
0.010527344
0.010515456
0.010502831
0.010489383
0.010475013
0.010459603
0.010443009
0.01042504
0.010405474
0.010384028
0.010360295
0.010333651
0.010303066
0.010266695
0.010220963
0.010172898
0.010132098
0.010097551
0.010068367
0.010044037
0.010024483
0.010009805
0.0099997941
0.0099944214
0.0099930282
0.0099953785
0.010014442
0.010004438
0.010033921
0.042076199
0.02846783
0.017362241
0.015140496
0.013332349
0.012683582
0.012124054
0.011802663
0.011555297
0.011387305
0.011256053
0.011157921
0.011079776
0.011018062
0.010967843
0.010926782
0.010892631
0.010863985
0.010839661
0.010818799
0.01080072
0.010784895
0.010770899
0.010758388
0.010747083
0.010736757
0.010727223
0.010718324
0.01070993
0.010701931
0.010694233
0.010686758
0.010679441
0.010672226
0.010665063
0.010657911
0.010650732
0.010643493
0.010636158
0.0106287
0.010621076
0.010613218
0.010605149
0.010596748
0.010588071
0.010579091
0.010569775
0.010560081
0.010549967
0.010539385
0.010528282
0.010516599
0.01050427
0.01049122
0.010477367
0.010462614
0.010446849
0.010429933
0.010411692
0.01039192
0.010370361
0.010346661
0.010320292
0.010290421
0.010255613
0.010213166
0.010166437
0.010126788
0.010093289
0.010065049
0.010041523
0.010022591
0.010008327
0.0099986649
0.0099936252
0.0099919476
0.0099949009
0.010010057
0.010004033
0.010030787
0.038687756
0.027244283
0.016843603
0.014751937
0.013132111
0.012504574
0.011998777
0.01170551
0.011480828
0.011327355
0.01120802
0.011118592
0.011047602
0.010991513
0.010945949
0.010908694
0.010877723
0.010851726
0.010829625
0.010810627
0.010794109
0.010779582
0.010766655
0.010755012
0.010744396
0.010734599
0.01072545
0.010716805
0.010708549
0.010700583
0.010692826
0.010685208
0.010677676
0.010670181
0.010662683
0.010655149
0.01064755
0.010639857
0.010632046
0.010624093
0.010615958
0.010607617
0.01059902
0.010590087
0.010580875
0.010571364
0.010561524
0.010551315
0.010540697
0.010529623
0.010518041
0.010505894
0.010493118
0.010479641
0.01046538
0.010450242
0.01043412
0.010416881
0.010398365
0.010378379
0.010356696
0.010333002
0.010306852
0.010277569
0.010244052
0.010204328
0.010159142
0.0101208
0.010088481
0.010061307
0.010038703
0.010020489
0.010006706
0.0099974397
0.0099926568
0.0099909576
0.0099943689
0.010006214
0.010003489
0.010027586
0.035690553
0.02610322
0.016348649
0.014350605
0.012938333
0.012340056
0.011883937
0.011616661
0.011413187
0.011273373
0.011165253
0.011084059
0.01101982
0.010969047
0.010927867
0.01089419
0.010866191
0.010842651
0.010822592
0.010805285
0.010790157
0.010776759
0.010764734
0.010753792
0.010743698
0.010734264
0.010725335
0.010716784
0.01070851
0.010700427
0.010692466
0.01068457
0.010676695
0.010668804
0.010660866
0.010652855
0.010644749
0.010636529
0.010628177
0.010619671
0.010610982
0.010602111
0.010592949
0.01058346
0.010573694
0.010563639
0.010553264
0.010542533
0.010531407
0.010519838
0.010507778
0.01049517
0.010481951
0.01046805
0.010453387
0.010437871
0.010421397
0.010403843
0.010385057
0.010364862
0.01034305
0.010319349
0.010293379
0.010264587
0.010232126
0.010194599
0.010151146
0.010114246
0.01008322
0.010057216
0.010035638
0.010018234
0.010005008
0.0099961639
0.0099915848
0.0099900537
0.009993787
0.010002982
0.010002921
0.010023983
0.033032344
0.025016874
0.015878259
0.013985191
0.012748825
0.012189546
0.011779242
0.011536067
0.011352375
0.011225428
0.01112784
0.011054425
0.010996536
0.010950769
0.010913693
0.01088335
0.010858098
0.010836806
0.010818587
0.01080277
0.010788834
0.010776367
0.010765046
0.010754608
0.010744841
0.010735579
0.010726684
0.010718048
0.010709583
0.010701221
0.010692906
0.010684593
0.01067625
0.010667849
0.010659369
0.010650794
0.010642107
0.010633296
0.010624348
0.010615247
0.010605969
0.010596523
0.01058679
0.010576734
0.010566408
0.010555806
0.010544899
0.01053365
0.01052202
0.010509966
0.010497437
0.010484379
0.010470728
0.010456415
0.010441363
0.010425483
0.010408674
0.010390818
0.010371776
0.010351382
0.010329452
0.010305742
0.010279931
0.01025156
0.010219961
0.010184141
0.010142603
0.010107255
0.010077611
0.01005286
0.010032394
0.010015885
0.0100033
0.0099948926
0.0099904851
0.0099892346
0.0099931634
0.010000354
0.010002505
0.010021022
0.030668375
0.023957376
0.015431613
0.013653652
0.012560504
0.012052638
0.011684474
0.011463716
0.011298439
0.011183614
0.011095893
0.011029812
0.010977868
0.010936787
0.010903526
0.010876254
0.010853495
0.010834209
0.010817589
0.010803026
0.010790046
0.010778275
0.010767425
0.010757261
0.010747598
0.010738291
0.010729224
0.010720308
0.010711472
0.010702663
0.010693842
0.010684977
0.010676046
0.010667033
0.010657926
0.010648713
0.010639387
0.010629938
0.01062036
0.010610638
0.01060075
0.010590711
0.010580414
0.010569788
0.010558909
0.01054777
0.010536343
0.010524591
0.010512476
0.010499953
0.010486974
0.010473484
0.010459422
0.010444718
0.010429298
0.010413075
0.010395952
0.010377818
0.01035854
0.010337968
0.010315934
0.010292226
0.010266567
0.010238577
0.010207707
0.010173143
0.010133679
0.010099969
0.010071774
0.010048332
0.01002904
0.010013504
0.01000164
0.0099936843
0.0099894332
0.0099884979
0.0099924919
0.0099982281
0.010002068
0.010018547
0.028559851
0.02289449
0.015007665
0.013354378
0.012386597
0.011928929
0.011599451
0.011399602
0.011251445
0.011148037
0.011069535
0.011010341
0.010963945
0.01092721
0.010897441
0.010872939
0.010852379
0.01083481
0.010819504
0.01080591
0.010793604
0.010782253
0.010771602
0.010761451
0.010751641
0.010742053
0.010732594
0.010723196
0.010713806
0.01070439
0.010694921
0.010685383
0.010675763
0.010666056
0.010656254
0.010646355
0.010636353
0.010626243
0.010616021
0.010605673
0.010595179
0.010584559
0.010573703
0.010562521
0.010551109
0.010539455
0.010527532
0.010515303
0.010502728
0.010489764
0.010476362
0.010462467
0.01044802
0.010432954
0.010417193
0.010400656
0.010383248
0.010364863
0.010345379
0.010324657
0.010302544
0.010278853
0.010253352
0.010225729
0.010195547
0.010162153
0.010124551
0.01009254
0.010065836
0.010043734
0.010025648
0.010011142
0.010000077
0.009992596
0.0099885051
0.0099878542
0.0099917682
0.0099964643
0.010001575
0.010016565
0.026673636
0.021796091
0.014604752
0.013085243
0.012230162
0.011818053
0.011524056
0.01134375
0.01121149
0.011118818
0.011048925
0.010996164
0.01095488
0.010922109
0.01089546
0.010873372
0.010854659
0.010838458
0.010824122
0.010811158
0.010799194
0.010787941
0.010777184
0.010766755
0.01075653
0.010746415
0.010736345
0.01072627
0.010716159
0.010705993
0.01069576
0.010685454
0.010675073
0.010664616
0.010654084
0.010643476
0.010632789
0.010622019
0.010611164
0.010600205
0.010589127
0.010577957
0.010566564
0.010554855
0.010542943
0.010530809
0.010518425
0.010505753
0.010492753
0.010479382
0.010465591
0.010451326
0.010436528
0.010421132
0.010405066
0.010388248
0.01037059
0.010351992
0.010332337
0.010311498
0.010289336
0.010265687
0.010240354
0.010213086
0.010183548
0.010151251
0.010115399
0.010085122
0.010059928
0.01003917
0.010022291
0.010008845
0.0099986368
0.0099916717
0.0099877724
0.0099873364
0.0099910201
0.0099949863
0.010000854
0.010014928
0.024981572
0.020628467
0.014220518
0.012844177
0.012090262
0.011719711
0.01145825
0.011296222
0.011178706
0.011096142
0.011034223
0.010987394
0.010950733
0.010921476
0.010897503
0.010877396
0.010860102
0.01084485
0.010831073
0.010818341
0.010806339
0.010794828
0.010783634
0.010772628
0.010761718
0.010750842
0.010739957
0.010729038
0.010718069
0.010707045
0.010695968
0.010684838
0.010673659
0.010662437
0.010651172
0.010639865
0.010628513
0.010617114
0.010605659
0.010594127
0.01058251
0.010570838
0.010558938
0.010546743
0.010534376
0.010521806
0.010509004
0.010495931
0.010482549
0.010468813
0.010454673
0.010440077
0.010424968
0.010409282
0.010392949
0.010375891
0.010358024
0.010339251
0.010319466
0.010298551
0.010276378
0.010252803
0.010227654
0.010200729
0.010171777
0.010140479
0.010106399
0.010077868
0.010054183
0.010034749
0.010019047
0.010006651
0.0099973258
0.0099909253
0.0099872791
0.0099869836
0.009990316
0.0099938136
0.01000013
0.010013392
0.023460795
0.019357301
0.013851469
0.012629478
0.011966186
0.011633716
0.011402082
0.011257131
0.011153308
0.011080171
0.011025538
0.01098406
0.010951448
0.010925157
0.010903321
0.010884667
0.010868275
0.010853473
0.010839777
0.010826832
0.010814381
0.010802238
0.010790276
0.010778405
0.010766568
0.010754729
0.010742871
0.010730985
0.010719071
0.010707134
0.010695181
0.010683219
0.010671253
0.010659287
0.010647325
0.010635363
0.010623397
0.010611422
0.010599424
0.010587376
0.010575286
0.010563167
0.010550796
0.010538173
0.010525404
0.010512451
0.010499282
0.010485859
0.010472141
0.010458085
0.010443642
0.010428761
0.010413384
0.010397451
0.010380895
0.010363641
0.010345608
0.010326708
0.010306839
0.010285893
0.010263754
0.010240291
0.010215354
0.010188769
0.01016033
0.010129787
0.01009772
0.01007092
0.010048724
0.010030576
0.010015998
0.010004603
0.0099961363
0.0099903334
0.0099870184
0.0099868188
0.0099897165
0.0099929039
0.0099994759
0.010011815
0.022094012
0.018193487
0.013514091
0.012439792
0.011857469
0.011559991
0.01135569
0.011226707
0.011135472
0.011070997
0.011022866
0.010986035
0.01095677
0.010932769
0.010912407
0.010894568
0.010878468
0.010863549
0.010849414
0.010835786
0.010822472
0.010809344
0.010796318
0.010783344
0.010770396
0.010757461
0.010744538
0.010731632
0.010718753
0.010705907
0.010693105
0.010680353
0.010667654
0.010655011
0.010642421
0.010629877
0.010617371
0.010604896
0.010592427
0.01057994
0.010567455
0.010554936
0.010542153
0.010529172
0.01051606
0.010502782
0.010489301
0.010475581
0.01046158
0.010447255
0.010432558
0.010417438
0.010401841
0.010385708
0.010368975
0.010351571
0.010333421
0.010314441
0.010294538
0.010273611
0.010251556
0.010228253
0.01020357
0.010177357
0.01014944
0.010119616
0.010089518
0.010064409
0.010043663
0.010026752
0.010013232
0.010002758
0.009995073
0.0099898528
0.0099869346
0.009986841
0.0099892754
0.0099921682
0.0099988216
0.010010156
0.020863528
0.017196171
0.013217359
0.012274263
0.011763778
0.011498321
0.011318839
0.011205115
0.011125313
0.011068563
0.011025985
0.010992913
0.010966121
0.010943574
0.010923889
0.010906129
0.010889652
0.010874014
0.010858919
0.010844166
0.01082963
0.010815232
0.010800931
0.010786707
0.010772556
0.010758482
0.010744491
0.010730595
0.010716801
0.010703118
0.01068955
0.010676099
0.010662764
0.01064954
0.01063642
0.01062339
0.01061044
0.010597553
0.010584697
0.010571853
0.010559052
0.010546194
0.010533072
0.0105198
0.010506409
0.010492865
0.010479132
0.01046517
0.01045094
0.010436398
0.010421497
0.010406188
0.01039042
0.010374136
0.010357275
0.010339771
0.010321553
0.010302544
0.010282658
0.010261803
0.010239883
0.010216792
0.010192412
0.010166611
0.010139241
0.010110135
0.010081926
0.010058443
0.010039087
0.010023355
0.010010828
0.010001189
0.0099941763
0.0099894634
0.0099869449
0.0099869852
0.009988997
0.0099915171
0.0099981661
0.010008324
0.019753714
0.016345301
0.012957576
0.012132616
0.011685329
0.011448497
0.011292249
0.011192485
0.011122697
0.011072459
0.011034229
0.011003796
0.010978412
0.01095634
0.010936451
0.010917991
0.010900466
0.010883555
0.010867055
0.01085084
0.010834839
0.010819015
0.010803355
0.010787858
0.010772529
0.010757377
0.010742408
0.010727628
0.01071304
0.010698646
0.010684442
0.010670422
0.010656578
0.010642896
0.010629362
0.010615957
0.010602668
0.010589466
0.010576311
0.010563204
0.010550174
0.010537038
0.010523644
0.010510147
0.010496542
0.010482795
0.010468867
0.010454721
0.010440317
0.010425611
0.010410558
0.010395112
0.010379223
0.010362837
0.010345897
0.010328343
0.010310108
0.01029112
0.010271302
0.010250572
0.010228841
0.010206014
0.010181986
0.010156643
0.010129857
0.010101486
0.010075059
0.010053107
0.010035062
0.010020439
0.010008839
0.0099999583
0.0099935181
0.0099892132
0.0099870035
0.0099870967
0.0099887282
0.0099909664
0.0099972352
0.010006394
0.018750168
0.015618841
0.012728887
0.012010405
0.011620559
0.011410877
0.01127574
0.011188256
0.011126781
0.011081542
0.011046206
0.011017094
0.010991927
0.010969303
0.010948338
0.010928467
0.010909343
0.010890754
0.010872574
0.010854737
0.010837206
0.010819967
0.010803018
0.01078636
0.010769996
0.010753925
0.010738148
0.010722659
0.010707451
0.010692514
0.010677835
0.010663399
0.010649188
0.010635183
0.010621359
0.010607699
0.010594178
0.010580756
0.010567399
0.010554133
0.010540951
0.010527573
0.010513981
0.010500329
0.010486575
0.010472686
0.010458624
0.010444352
0.010429828
0.010415012
0.010399861
0.010384329
0.010368369
0.010351932
0.010334963
0.010317407
0.010299204
0.010280288
0.010260588
0.010240032
0.01021854
0.010196028
0.010172403
0.010147563
0.010121398
0.010093789
0.010069006
0.010048468
0.010031631
0.01001803
0.010007284
0.0099990897
0.0099931532
0.009989194
0.0099871991
0.0099872226
0.0099884738
0.0099904901
0.009996105
0.010004247
0.017838209
0.014975801
0.012529222
0.011903047
0.01156873
0.011385575
0.011268528
0.011191233
0.011135935
0.011093846
0.011059732
0.011030517
0.011004394
0.010980285
0.010957542
0.010935772
0.010914744
0.010894326
0.010874441
0.010855049
0.010836127
0.01081766
0.010799637
0.01078205
0.010764886
0.010748132
0.010731772
0.010715789
0.010700162
0.010684871
0.010669891
0.010655199
0.01064077
0.010626575
0.010612587
0.010598785
0.010585133
0.010571585
0.010558131
0.010544805
0.010531481
0.010517921
0.010504236
0.010490492
0.010476653
0.010462684
0.010448546
0.010434203
0.010419616
0.010404745
0.010389547
0.010373981
0.010358002
0.010341562
0.010324614
0.010307105
0.010288981
0.010270182
0.010250647
0.01023031
0.010209103
0.01018695
0.01016377
0.010139475
0.010113968
0.010087144
0.010063842
0.010044575
0.010028823
0.010016139
0.010006158
0.009998574
0.0099930855
0.0099894412
0.0099876191
0.0099875345
0.0099884555
0.00999026
0.0099950909
0.010001805
0.017013333
0.014395277
0.01235986
0.011816417
0.011530903
0.011371114
0.011268634
0.011198858
0.01114727
0.011106303
0.011071749
0.011041161
0.011013169
0.010986977
0.010962124
0.010938336
0.01091545
0.010893366
0.010872021
0.010851369
0.010831374
0.010812005
0.010793232
0.010775025
0.010757354
0.010740189
0.010723497
0.010707249
0.010691411
0.010675954
0.010660844
0.01064605
0.010631541
0.010617283
0.010603249
0.010589409
0.010575718
0.010562134
0.01054868
0.010535359
0.010521931
0.010508278
0.010494566
0.010480796
0.010466934
0.010452944
0.010438789
0.010424432
0.010409836
0.010394963
0.010379772
0.010364224
0.010348276
0.010331885
0.010315006
0.010297591
0.010279591
0.010260954
0.010241623
0.010221543
0.010200655
0.010178894
0.010156192
0.010132472
0.010107651
0.010081635
0.010059623
0.010041465
0.010026656
0.01001477
0.010005452
0.0099983942
0.0099932981
0.0099899404
0.0099882709
0.009988107
0.0099888326
0.0099905489
0.0099947766
0.01000039
0.01627538
0.013875673
0.012218372
0.011748068
0.011504509
0.011364065
0.011272189
0.011206943
0.011156622
0.011114987
0.011078754
0.01104604
0.011015821
0.01098749
0.010960692
0.010935198
0.010910856
0.010887557
0.010865217
0.010843762
0.010823131
0.010803267
0.010784116
0.010765628
0.010747755
0.010730451
0.010713672
0.010697376
0.010681522
0.010666072
0.010650988
0.010636232
0.010621769
0.010607564
0.010593589
0.010579803
0.010566156
0.010552634
0.010539272
0.010525984
0.010512486
0.010498829
0.010485157
0.010471424
0.0104576
0.010443648
0.010429532
0.010415218
0.010400669
0.010385848
0.010370717
0.010355239
0.010339374
0.010323082
0.01030632
0.010289045
0.010271213
0.010252776
0.010233685
0.010213891
0.010193344
0.01017199
0.010149772
0.010126632
0.010102505
0.010077324
0.010056389
0.010039153
0.010025129
0.010013903
0.010005131
0.0099985031
0.0099937321
0.0099906153
0.0099890631
0.0099888333
0.0099894413
0.0099910884
0.0099947659
0.0099993689
0.015627399
0.013447355
0.01210322
0.011695073
0.011485133
0.011359175
0.011273836
0.011210393
0.011159512
0.011116203
0.011077894
0.011043109
0.011011014
0.010981079
0.010952962
0.01092642
0.010901271
0.01087737
0.010854598
0.01083285
0.010812038
0.010792081
0.010772905
0.010754446
0.010736642
0.010719437
0.010702779
0.010686618
0.01067091
0.010655611
0.01064068
0.010626077
0.010611764
0.010597708
0.010583877
0.01057022
0.010556696
0.010543331
0.010530123
0.010516838
0.010503339
0.01048979
0.010476213
0.010462578
0.010448848
0.010434991
0.01042097
0.010406754
0.010392306
0.010377591
0.010362574
0.010347219
0.010331489
0.010315345
0.010298749
0.010281662
0.010264042
0.010245846
0.010227029
0.010207548
0.010187356
0.010166407
0.010144651
0.010122035
0.010098503
0.010074279
0.01005418
0.010037658
0.010024238
0.010013517
0.010005155
0.0099988443
0.0099943129
0.0099913703
0.0099898898
0.0099896084
0.0099901683
0.009991781
0.0099950143
0.0099988346
0.015069494
0.013097863
0.012008224
0.011650496
0.011465157
0.011349073
0.011267161
0.011203996
0.011152056
0.011107303
0.011067583
0.011031609
0.010998593
0.010967998
0.010939448
0.010912663
0.010887425
0.010863557
0.010840908
0.01081935
0.010798775
0.010779086
0.010760199
0.01074204
0.010724541
0.010707641
0.010691284
0.010675419
0.010659998
0.010644977
0.010630314
0.010615967
0.010601902
0.010588085
0.010574475
0.010561017
0.010547708
0.010534585
0.010521543
0.010508304
0.010494919
0.010481542
0.010468132
0.010454661
0.010441091
0.010427392
0.010413531
0.010399474
0.010385188
0.01037064
0.010355796
0.010340622
0.010325083
0.010309144
0.010292769
0.01027592
0.010258561
0.010240651
0.010222152
0.010203023
0.010183225
0.010162716
0.010141454
0.010119395
0.010096493
0.010072876
0.010053293
0.01003721
0.010024159
0.010013741
0.010005613
0.0099994728
0.0099950579
0.0099921803
0.0099906814
0.009990307
0.0099908121
0.0099923724
0.0099952269
0.0099984543
0.014477164
0.012740348
0.011879416
0.011574127
0.011412798
0.011309321
0.011234423
0.011175354
0.011126021
0.011083153
0.011044924
0.011010208
0.010978279
0.01094863
0.0109209
0.010894815
0.010870225
0.010847015
0.010825019
0.010804098
0.010784136
0.010765032
0.010746702
0.010729067
0.010712062
0.010695626
0.010679704
0.010664247
0.010649209
0.010634547
0.010620222
0.010606197
0.01059244
0.010578916
0.010565573
0.010552378
0.010539367
0.010526526
0.010513579
0.010500439
0.010487287
0.010474129
0.010460936
0.010447675
0.010434315
0.010420823
0.010407168
0.01039332
0.010379246
0.010364913
0.010350291
0.010335346
0.010320045
0.010304355
0.010288241
0.010271669
0.010254603
0.010237007
0.010218842
0.010200073
0.010180663
0.010160573
0.010139766
0.010118202
0.010095839
0.010072647
0.010053353
0.010037511
0.010024655
0.010014386
0.010006358
0.010000271
0.0099958691
0.0099929546
0.009991344
0.0099908101
0.0099911886
0.0099925601
0.0099949267
0.009997634
0.013963315
0.012533456
0.011774752
0.011499443
0.011351484
0.011255511
0.011185514
0.011130165
0.011083889
0.011043742
0.011008047
0.010975765
0.010946204
0.01091888
0.010893433
0.010869586
0.010847066
0.010825645
0.010805207
0.010785651
0.01076689
0.010748851
0.010731465
0.010714674
0.010698424
0.010682665
0.010667352
0.010652444
0.010637902
0.010623689
0.010609769
0.010596131
0.010582752
0.010569587
0.01055659
0.010543767
0.010531132
0.010518529
0.010505758
0.010492904
0.010480072
0.010467229
0.010454344
0.010441387
0.010428328
0.010415137
0.010401782
0.010388235
0.010374464
0.010360438
0.010346128
0.010331501
0.010316526
0.01030117
0.010285401
0.010269186
0.010252491
0.010235281
0.010217519
0.010199172
0.010180202
0.010160576
0.010140257
0.010119206
0.010097386
0.010074757
0.010055164
0.010039093
0.010026057
0.010015643
0.010007492
0.010001294
0.0099967891
0.0099937607
0.0099920093
0.0099913377
0.0099916142
0.0099928086
0.0099948047
0.0099972463
0.013640281
0.012384827
0.011659775
0.011408629
0.01127406
0.011188118
0.011125617
0.011076291
0.011034918
0.010998843
0.01096656
0.010937158
0.010910048
0.01088482
0.010861179
0.010838901
0.010817812
0.010797778
0.010778686
0.010760445
0.010742971
0.010726191
0.010710041
0.010694461
0.010679398
0.010664801
0.010650625
0.010636828
0.010623369
0.010610209
0.010597314
0.010584636
0.01057213
0.010559755
0.010547502
0.010535409
0.010523422
0.010511274
0.010498966
0.010486673
0.010474365
0.010462019
0.010449607
0.010437104
0.010424483
0.010411715
0.010398774
0.010385631
0.010372258
0.010358627
0.010344708
0.010330472
0.010315889
0.010300927
0.010285557
0.010269746
0.010253462
0.01023667
0.010219338
0.010201428
0.010182909
0.010163745
0.010143901
0.010123341
0.010102026
0.010079918
0.010059636
0.010042965
0.010029409
0.010018538
0.010009983
0.010003428
0.0099986022
0.0099952748
0.0099932403
0.0099923175
0.0099923708
0.0099932978
0.0099949633
0.0099972092
59.279569
108.79607
61.286918
40.249468
27.245005
18.746064
13.142946
9.3652485
6.7332337
4.8573641
3.5040179
2.528738
1.8157993
1.3023364
0.92410375
0.65353771
0.45736388
0.31853886
0.22110026
0.15315087
0.10617095
0.074036767
0.052311074
0.037811019
0.028257017
0.022051335
0.018074805
0.015558039
0.013986441
0.013012237
0.012410234
0.012036412
0.011800405
0.011646639
0.011541659
0.011465712
0.011407349
0.011360011
0.011319907
0.011285196
0.011254454
0.01122681
0.01120214
0.011179643
0.011158934
0.011139804
0.01112194
0.011104471
0.011082662
0.011048214