/*--------------------------------*- C++ -*----------------------------------*\
  =========                 |
  \\      /  F ield         | OpenFOAM: The Open Source CFD Toolbox
   \\    /   O peration     | Website:  https://openfoam.org
    \\  /    A nd           | Version:  6
     \\/     M anipulation  |
\*---------------------------------------------------------------------------*/
FoamFile
{
    version     2.0;
    format      ascii;
    class       volScalarField;
    location    "200";
    object      nut;
}
// * * * * * * * * * * * * * * * * * * * * * * * * * * * * * * * * * * * * * //

dimensions      [0 2 -1 0 0 0 0];

internalField   nonuniform List<scalar> 
16000
(
3.6045744e-06
2.026378e-05
2.5537368e-05
3.2339385e-05
2.6949286e-05
3.3784907e-05
3.129934e-05
3.5066381e-05
3.4377884e-05
3.4709792e-05
3.4350348e-05
3.3463387e-05
3.3224891e-05
3.2542842e-05
3.255622e-05
3.2365498e-05
3.2644351e-05
3.2895792e-05
3.3456515e-05
3.4089384e-05
3.4949471e-05
3.5935513e-05
3.711531e-05
3.8451792e-05
3.997773e-05
4.1687518e-05
4.3605348e-05
4.5745534e-05
4.8138765e-05
5.0819934e-05
5.3846867e-05
5.7291064e-05
6.1240088e-05
6.5805037e-05
7.1083426e-05
7.721544e-05
8.4382671e-05
9.2833741e-05
0.00010288226
0.00011485664
0.0001291548
0.0001462932
0.00016690694
0.00019176376
0.00022180629
0.00025820578
0.00030240017
0.00035616049
0.00042167142
0.00050161304
0.00059926686
0.00071864061
0.00086462146
0.001036384
0.0010374202
0.0010375063
0.0010369693
0.001036125
0.0010351229
0.0010339276
0.001032327
0.0010302428
0.0010276573
0.0010246366
0.0010213642
0.0010181553
0.001015273
0.0010127754
0.0010106036
0.0010087319
0.0010071199
0.0010058395
0.0010047295
0.001004116
0.0010033088
0.0010038417
0.0010032559
0.0010057406
0.0010025237
0.0010049144
3.0580114e-06
2.0059038e-05
2.2435107e-05
2.9505673e-05
2.4749461e-05
3.0486319e-05
2.8720145e-05
3.1575315e-05
3.147684e-05
3.1268461e-05
3.1257421e-05
3.013719e-05
3.0096573e-05
2.9371741e-05
2.9461587e-05
2.9254628e-05
2.954364e-05
2.9766836e-05
3.0292876e-05
3.0868334e-05
3.1652808e-05
3.2542359e-05
3.3602517e-05
3.4796163e-05
3.6153404e-05
3.7668944e-05
3.9365458e-05
4.1257924e-05
4.3376928e-05
4.5757851e-05
4.8449345e-05
5.1507842e-05
5.5016913e-05
5.9078225e-05
6.3813004e-05
6.9363604e-05
7.5874436e-05
8.3522704e-05
9.2566797e-05
0.00010335541
0.00011624846
0.00013168206
0.00015022345
0.00017257092
0.00019956311
0.00023224608
0.00027191312
0.00032014797
0.00037890672
0.00045059352
0.00053815098
0.0006451862
0.00077610078
0.0009363154
0.0010363408
0.0010365673
0.001036083
0.0010352504
0.001034267
0.0010331386
0.0010317822
0.0010299479
0.0010275616
0.001024673
0.0010214455
0.0010182191
0.0010153019
0.0010127782
0.0010105882
0.0010086974
0.0010070781
0.0010057682
0.0010046667
0.0010039839
0.0010032034
0.001003548
0.001002989
0.0010054354
0.0010024645
0.0010048112
2.7007951e-06
1.986795e-05
2.0616633e-05
2.7069621e-05
2.2976158e-05
2.7619887e-05
2.6727412e-05
2.8388685e-05
2.9001279e-05
2.8011771e-05
2.8401616e-05
2.7022678e-05
2.7192962e-05
2.6412321e-05
2.6584076e-05
2.6364451e-05
2.6667602e-05
2.6869744e-05
2.7366619e-05
2.7893606e-05
2.8611367e-05
2.9416795e-05
3.0371986e-05
3.1441978e-05
3.2654403e-05
3.4005686e-05
3.5517432e-05
3.7205449e-05
3.9099423e-05
4.123378e-05
4.3654956e-05
4.6420331e-05
4.9601346e-05
5.3278351e-05
5.7563831e-05
6.2593302e-05
6.8534113e-05
7.5553458e-05
8.3824435e-05
9.3636163e-05
0.00010536899
0.00011942272
0.0001362832
0.00015659071
0.00018111297
0.0002107852
0.00024677881
0.00029052419
0.00034377773
0.00040870448
0.00048794776
0.00058474823
0.00070306185
0.00084773949
0.0010247755
0.0010356404
0.0010352151
0.0010343892
0.0010334094
0.0010323025
0.0010310215
0.0010294575
0.001027311
0.0010245942
0.0010214437
0.0010182191
0.0010152788
0.0010127395
0.0010105389
0.0010086391
0.0010070151
0.0010056905
0.0010045963
0.0010038716
0.0010031225
0.0010033259
0.0010028066
0.0010051886
0.0010022802
0.0010044241
2.3993893e-06
1.9644985e-05
1.9010308e-05
2.4788786e-05
2.1314078e-05
2.5006786e-05
2.4834338e-05
2.5510186e-05
2.6636989e-05
2.5062813e-05
2.5733339e-05
2.4243845e-05
2.453648e-05
2.3757399e-05
2.3970626e-05
2.3762056e-05
2.4062668e-05
2.4253289e-05
2.4715782e-05
2.5199743e-05
2.5852463e-05
2.6580888e-05
2.743948e-05
2.8398804e-05
2.9483344e-05
3.0692544e-05
3.2047123e-05
3.3564226e-05
3.5272767e-05
3.7206287e-05
3.9408588e-05
4.193278e-05
4.4844096e-05
4.8221831e-05
5.2160788e-05
5.6772586e-05
6.2204818e-05
6.8649975e-05
7.6297687e-05
8.5338954e-05
9.6104707e-05
0.00010901716
0.00012451587
0.00014316615
0.00016569276
0.00019295253
0.00022601366
0.00026619565
0.00031510294
0.00037471813
0.00044746239
0.00053630084
0.00064486058
0.00077757539
0.00093991611
0.001034716
0.0010343597
0.0010335386
0.0010325559
0.0010314555
0.0010302033
0.0010287314
0.0010268693
0.0010243694
0.001021333
0.0010181335
0.0010151848
0.0010126418
0.0010104411
0.0010085413
0.0010069198
0.0010055884
0.0010045067
0.0010037495
0.001003045
0.0010031031
0.0010026453
0.0010047481
0.0010021697
0.0010041514
2.1455218e-06
1.9360286e-05
1.7618744e-05
2.2686526e-05
1.979715e-05
2.2628116e-05
2.3092188e-05
2.2882075e-05
2.4397428e-05
2.2407723e-05
2.3246577e-05
2.1723655e-05
2.2079395e-05
2.1336e-05
2.1564534e-05
2.1379713e-05
2.1667511e-05
2.1851286e-05
2.2277093e-05
2.2721839e-05
2.331292e-05
2.397147e-05
2.4743125e-05
2.5605226e-05
2.6579149e-05
2.7667579e-05
2.8890347e-05
3.0265578e-05
3.1821084e-05
3.3589158e-05
3.5610695e-05
3.793493e-05
4.0621805e-05
4.3742858e-05
4.7384952e-05
5.1654299e-05
5.6673787e-05
6.260415e-05
6.9663199e-05
7.8058266e-05
8.8025236e-05
9.9944452e-05
0.00011428096
0.00013153235
0.00015236552
0.00017759079
0.00020818411
0.00024537032
0.00029063316
0.00034580028
0.00041311125
0.00049530278
0.00059572845
0.00071848372
0.00086860904
0.0010337892
0.0010335155
0.001032699
0.0010317088
0.0010306077
0.0010293685
0.0010279438
0.0010262365
0.0010240014
0.0010211194
0.0010179693
0.0010150262
0.0010124909
0.0010103002
0.0010084094
0.0010067969
0.0010054662
0.0010043984
0.0010036214
0.0010029615
0.0010028936
0.0010025017
0.0010043014
0.0010020595
0.0010037907
1.9325259e-06
1.8977007e-05
1.6438015e-05
2.0729716e-05
1.8405576e-05
2.0436497e-05
2.1461451e-05
2.0465539e-05
2.2245563e-05
2.0022129e-05
2.0926269e-05
1.9442825e-05
1.9812776e-05
1.9133663e-05
1.9357459e-05
1.9206004e-05
1.9474472e-05
1.9655322e-05
2.0044925e-05
2.0455159e-05
2.0990571e-05
2.158825e-05
2.2284978e-05
2.3065069e-05
2.3947105e-05
2.4936693e-05
2.6052715e-05
2.7313797e-05
2.8746392e-05
3.0381174e-05
3.2256065e-05
3.4416516e-05
3.6917596e-05
3.9825264e-05
4.3219288e-05
4.7196338e-05
5.1875834e-05
5.7398686e-05
6.3948452e-05
7.1766047e-05
8.1077527e-05
9.2192039e-05
0.00010555331
0.00012165962
0.0001411035
0.00016465967
0.00019323838
0.00022797894
0.00027027347
0.00032182324
0.00038472119
0.00046152096
0.00055535375
0.00067004401
0.0008102875
0.0009818666
0.0010326785
0.001031868
0.001030867
0.0010297605
0.0010285252
0.0010271238
0.0010254889
0.001023479
0.001020797
0.0010177237
0.0010148004
0.0010122847
0.001010114
0.0010082415
0.0010066445
0.0010053222
0.0010042689
0.0010034829
0.0010028647
0.0010026939
0.001002366
0.0010038695
0.0010019767
0.0010035182
1.7541095e-06
1.8156563e-05
1.543671e-05
1.8895863e-05
1.7119515e-05
1.8395924e-05
1.9910476e-05
1.8275929e-05
2.0153901e-05
1.7866529e-05
1.8755299e-05
1.7368868e-05
1.7718101e-05
1.7122079e-05
1.7328209e-05
1.7214916e-05
1.7460975e-05
1.7641046e-05
1.799669e-05
1.8376862e-05
1.8863522e-05
1.9409326e-05
2.0043135e-05
2.0755542e-05
2.1562759e-05
2.2472629e-05
2.3502991e-05
2.4672447e-05
2.6005858e-05
2.7532113e-05
2.9286246e-05
3.1310228e-05
3.3654979e-05
3.6381485e-05
3.9563899e-05
4.3292766e-05
4.7678972e-05
5.2858934e-05
5.8995015e-05
6.6311215e-05
7.5056641e-05
8.5511995e-05
9.8056696e-05
0.00011320364
0.00013149849
0.00015366538
0.00018057463
0.00021329034
0.00025312996
0.00030169332
0.00036095126
0.00043330858
0.00052171261
0.00062976556
0.00076188287
0.00092349705
0.0010318451
0.0010310439
0.0010300298
0.0010289145
0.0010276779
0.0010262888
0.0010246945
0.0010227949
0.0010203652
0.0010173993
0.0010145097
0.0010120252
0.0010098844
0.001008039
0.0010064644
0.0010051577
0.0010041198
0.0010033344
0.0010027522
0.0010025028
0.0010022346
0.0010034528
0.0010018767
0.0010032407
1.6009502e-06
1.5301993e-05
1.4520901e-05
1.7151254e-05
1.5947754e-05
1.6480397e-05
1.8435144e-05
1.6310831e-05
1.8175158e-05
1.5923219e-05
1.6740223e-05
1.5488738e-05
1.5794757e-05
1.5290048e-05
1.5471281e-05
1.539649e-05
1.5619646e-05
1.5799809e-05
1.6125147e-05
1.6479728e-05
1.6925337e-05
1.7428363e-05
1.8011138e-05
1.8669388e-05
1.9417301e-05
2.0264283e-05
2.1227024e-05
2.232367e-05
2.3577461e-05
2.5015466e-05
2.6670191e-05
2.8580561e-05
3.0794135e-05
3.3368028e-05
3.6371931e-05
3.9891542e-05
4.4031972e-05
4.8922014e-05
5.4721862e-05
6.1629611e-05
6.9894324e-05
7.9793894e-05
9.1684766e-05
0.0001060324
0.00012338524
0.00014441221
0.00016995296
0.00020101347
0.0002388469
0.00028497311
0.00034126182
0.00040999672
0.00049397442
0.00059661467
0.00072210466
0.00087558984
0.0010310108
0.001030225
0.0010291957
0.0010280694
0.0010268281
0.0010254449
0.0010238776
0.0010220519
0.0010198217
0.0010169984
0.0010141561
0.0010117139
0.0010096127
0.0010078031
0.001006258
0.0010049733
0.0010039523
0.0010031756
0.0010026234
0.0010023186
0.0010021027
0.0010030527
0.0010017775
0.001002992
1.4544889e-06
1.4685454e-05
1.341533e-05
1.5486924e-05
1.4878327e-05
1.4737176e-05
1.700519e-05
1.4554952e-05
1.6306071e-05
1.4175153e-05
1.4880595e-05
1.3786265e-05
1.4036157e-05
1.3623055e-05
1.3776678e-05
1.3737821e-05
1.3939668e-05
1.4120161e-05
1.4419831e-05
1.4753344e-05
1.5165721e-05
1.5634653e-05
1.6177309e-05
1.6793338e-05
1.7495223e-05
1.8293213e-05
1.9202898e-05
2.0241673e-05
2.1431253e-05
2.2797046e-05
2.436942e-05
2.6184823e-05
2.8288163e-05
3.0733578e-05
3.3587464e-05
3.6931712e-05
4.086691e-05
4.5517613e-05
5.1037709e-05
5.7610475e-05
6.5480148e-05
7.4921025e-05
8.6272536e-05
9.9967391e-05
0.0001165494
0.00013664988
0.00016107582
0.00019079138
0.00022699444
0.00027114142
0.0003250192
0.00039081251
0.00047119491
0.00056943636
0.00068953855
0.00083641288
0.0010160839
0.0010294096
0.0010283639
0.0010272248
0.0010259764
0.0010245952
0.001023046
0.0010212703
0.0010191641
0.0010165256
0.0010137436
0.0010113543
0.0010093017
0.0010075359
0.0010060277
0.001004771
0.0010037693
0.0010030075
0.0010024793
0.0010021409
0.0010019692
0.0010026764
0.0010016671
0.0010027369
1.327999e-06
1.4110811e-05
1.2411247e-05
1.3918139e-05
1.3882353e-05
1.3172769e-05
1.5573161e-05
1.2971046e-05
1.4531928e-05
1.2591276e-05
1.3164632e-05
1.2237589e-05
1.242869e-05
1.210309e-05
1.2231292e-05
1.2225167e-05
1.2409669e-05
1.2591349e-05
1.2871077e-05
1.3188511e-05
1.3575617e-05
1.4018743e-05
1.4531228e-05
1.5115442e-05
1.5782518e-05
1.6543006e-05
1.7411466e-05
1.8404456e-05
1.9542354e-05
2.0849189e-05
2.2353641e-05
2.4090212e-05
2.6101841e-05
2.8440471e-05
3.1170006e-05
3.4369284e-05
3.8135758e-05
4.2590389e-05
4.7879069e-05
5.4184854e-05
6.1738505e-05
7.0807144e-05
8.1714147e-05
9.4890724e-05
0.0001108531
0.00013021334
0.00015374672
0.00018238661
0.00021728593
0.00025985003
0.0003117994
0.0003752383
0.00045274068
0.00054745429
0.00066323089
0.00080479291
0.00097793266
0.0010285963
0.0010275333
0.0010263805
0.0010251235
0.0010237417
0.0010222053
0.0010204667
0.0010184448
0.0010159869
0.0010132774
0.0010109504
0.0010089548
0.0010072405
0.001005776
0.0010045532
0.0010035739
0.0010028314
0.0010023221
0.001001969
0.001001834
0.0010023276
0.0010015534
0.0010024955
1.2172878e-06
1.3493854e-05
1.1465653e-05
1.2410324e-05
1.2941314e-05
1.1754376e-05
1.4130073e-05
1.153032e-05
1.2854052e-05
1.1148739e-05
1.1586682e-05
1.0825174e-05
1.0962407e-05
1.0716803e-05
1.0824881e-05
1.0848062e-05
1.1020409e-05
1.1204573e-05
1.1427343e-05
1.1726539e-05
1.209024e-05
1.2510325e-05
1.2996865e-05
1.3553616e-05
1.4190335e-05
1.4917344e-05
1.5748096e-05
1.6698176e-05
1.7786664e-05
1.9036353e-05
2.0474513e-05
2.2133911e-05
2.4055876e-05
2.6290491e-05
2.8899507e-05
3.1959143e-05
3.5564107e-05
3.9832135e-05
4.5198481e-05
5.1293349e-05
5.8599145e-05
6.7372247e-05
7.7927242e-05
9.0698157e-05
0.0001061729
0.00012495253
0.00014778649
0.00017558342
0.00020946199
0.00025078608
0.0003012241
0.00036281554
0.00043805476
0.00052999101
0.00064235521
0.00077971811
0.00094768311
0.0010277841
0.0010267035
0.0010255366
0.0010242702
0.0010228863
0.0010213593
0.0010196508
0.0010176981
0.0010153895
0.0010127637
0.0010105079
0.0010085766
0.0010069205
0.0010055064
0.0010043228
0.00100337
0.0010026496
0.0010021555
0.0010018029
0.0010016973
0.0010020121
0.0010014361
0.0010022554
1.1203634e-06
1.2805576e-05
1.0577653e-05
1.0982114e-05
1.2031607e-05
1.046621e-05
1.2700692e-05
1.0215909e-05
1.1281444e-05
9.8329174e-06
1.0144634e-05
9.5375534e-06
9.6305292e-06
9.4554209e-06
9.509473e-06
9.5437033e-06
9.7007631e-06
9.8841804e-06
1.0137796e-05
1.0435671e-05
1.0791758e-05
1.1202555e-05
1.1676486e-05
1.2218548e-05
1.2837745e-05
1.3544309e-05
1.4350989e-05
1.5272741e-05
1.632781e-05
1.7538228e-05
1.8930509e-05
2.0536235e-05
2.2395825e-05
2.4558271e-05
2.7083996e-05
3.0047499e-05
3.3541591e-05
3.7682761e-05
4.2608856e-05
4.8496195e-05
5.5558376e-05
6.4041765e-05
7.4835575e-05
8.7298904e-05
0.00010240307
0.00012074218
0.00014304801
0.00017020728
0.00020331449
0.00024370039
0.00029299335
0.00035318208
0.00042669863
0.0005165146
0.00062626534
0.00076040186
0.00092437769
0.0010269724
0.0010258745
0.0010246935
0.0010234175
0.0010220306
0.001020511
0.0010188271
0.0010169305
0.0010147417
0.0010122104
0.001010033
0.0010081724
0.0010065803
0.0010052226
0.0010040836
0.0010031616
0.0010024652
0.0010019836
0.0010016429
0.0010015599
0.0010017338
0.0010013217
0.0010019978
1.0356408e-06
1.2026571e-05
9.7466788e-06
9.6887955e-06
1.1129747e-05
9.2891963e-06
1.1288141e-05
9.0126622e-06
9.8233969e-06
8.6319435e-06
8.8355778e-06
8.3660304e-06
8.3671388e-06
8.2343176e-06
8.3130195e-06
8.3829626e-06
8.547316e-06
8.7428741e-06
8.9978045e-06
9.2965772e-06
9.6490269e-06
1.0054663e-05
1.0520839e-05
1.1053291e-05
1.1660403e-05
1.2352262e-05
1.3141084e-05
1.4041321e-05
1.507061e-05
1.625048e-05
1.7607094e-05
1.9171072e-05
2.0982323e-05
2.3089138e-05
2.5551079e-05
2.8441404e-05
3.1851139e-05
3.589619e-05
4.0711924e-05
4.6472615e-05
5.3388191e-05
6.1700206e-05
7.1724252e-05
8.3869466e-05
9.8604227e-05
0.00011747198
0.00013940264
0.00016610662
0.00019866309
0.00023837768
0.00028684889
0.00034602725
0.00041829749
0.00050657212
0.00061441321
0.00074618001
0.00090721103
0.0010261613
0.0010250467
0.0010238522
0.001022567
0.001021177
0.0010196636
0.0010180003
0.001016149
0.0010140527
0.001011626
0.0010095334
0.0010077484
0.0010062251
0.0010049286
0.0010038393
0.001002953
0.0010022816
0.0010018112
0.0010014894
0.0010014226
0.001001493
0.0010012202
0.0010017805
9.6151837e-07
1.1142706e-05
8.9671852e-06
8.5176273e-06
1.0207984e-05
8.212576e-06
9.9079003e-06
7.9112826e-06
8.4889259e-06
7.5378718e-06
7.5883944e-06
7.2055479e-06
7.2316593e-06
7.1681962e-06
7.2590704e-06
7.3582166e-06
7.5311697e-06
7.7380551e-06
7.9966628e-06
8.2983882e-06
8.6505287e-06
9.0544501e-06
9.5168291e-06
1.0043864e-05
1.0643434e-05
1.1325488e-05
1.2101876e-05
1.2986699e-05
1.3997151e-05
1.515443e-05
1.64249e-05
1.7945906e-05
1.9707454e-05
2.1757113e-05
2.4153586e-05
2.6969002e-05
3.0462948e-05
3.4440218e-05
3.917858e-05
4.485131e-05
5.1668636e-05
5.9863723e-05
6.9750541e-05
8.1736233e-05
9.6291683e-05
0.00011398504
0.00013552007
0.00016315128
0.00019535274
0.00023463295
0.00028256922
0.00034108518
0.0004125315
0.00049977807
0.00060633343
0.00073649023
0.00089550354
0.0010253514
0.0010242213
0.0010230144
0.0010217208
0.0010203282
0.0010188205
0.0010171758
0.0010153624
0.0010133336
0.0010110202
0.0010090173
0.0010073117
0.0010058605
0.0010046289
0.0010035936
0.001002748
0.0010021029
0.0010016433
0.0010013428
0.0010012856
0.0010012842
0.001001122
0.0010015946
8.9698427e-07
1.0153282e-05
8.2325403e-06
7.4557783e-06
9.274038e-06
7.2253887e-06
8.5803263e-06
6.9030113e-06
7.2826185e-06
6.4374466e-06
6.4599542e-06
6.2045377e-06
6.239919e-06
6.2316199e-06
6.3359557e-06
6.4594305e-06
6.6422304e-06
6.8601171e-06
7.1243896e-06
7.430886e-06
7.7854455e-06
8.1905231e-06
8.6523657e-06
9.158441e-06
9.7491773e-06
1.0420128e-05
1.1182673e-05
1.2050456e-05
1.3040139e-05
1.4172311e-05
1.5472158e-05
1.6970713e-05
1.8706289e-05
2.0726317e-05
2.3089336e-05
2.5867612e-05
2.9151283e-05
3.3051228e-05
3.7701072e-05
4.3274333e-05
4.9981633e-05
5.8483346e-05
6.8290156e-05
8.0188204e-05
9.4645612e-05
0.00011222456
0.00013362627
0.00015970346
0.00019324262
0.00023229854
0.00027995409
0.00033811602
0.00040911286
0.00049578651
0.00060160963
0.00073083096
0.00088865046
0.0010245442
0.0010234001
0.0010221822
0.0010208815
0.0010194873
0.0010179857
0.0010163588
0.001014581
0.0010126149
0.0010104033
0.0010084935
0.0010068698
0.0010054925
0.0010043278
0.0010033501
0.0010025498
0.0010019326
0.0010014845
0.0010012041
0.0010011492
0.0010010998
0.0010010251
0.0010014403
8.4157115e-07
9.0669072e-06
7.5371427e-06
6.4908219e-06
8.3173363e-06
6.3182253e-06
7.3286836e-06
5.9342011e-06
6.0586209e-06
5.4736431e-06
5.4859354e-06
5.3309281e-06
5.3790526e-06
5.4145211e-06
5.5333962e-06
5.6776126e-06
5.8712161e-06
6.1000551e-06
6.3715931e-06
6.6844141e-06
7.03006e-06
7.4347805e-06
7.8949539e-06
8.4166854e-06
9.0076961e-06
9.6771869e-06
1.043647e-05
1.1299118e-05
1.2281637e-05
1.3404586e-05
1.4693109e-05
1.6178217e-05
1.7898265e-05
1.9900727e-05
2.2244157e-05
2.5001024e-05
2.8261932e-05
3.2137026e-05
3.6759399e-05
4.230681e-05
4.8991211e-05
5.702555e-05
6.6721409e-05
7.850274e-05
9.3597163e-05
0.00011115124
0.00013252417
0.00015857017
0.00019033011
0.0002312182
0.00027881671
0.00033689606
0.0004077734
0.00049427571
0.00059985552
0.00072873773
0.00088609297
0.0010237418
0.0010225856
0.0010213586
0.0010200527
0.0010186581
0.0010171632
0.0010155534
0.0010138091
0.0010119017
0.0010097857
0.0010079711
0.0010064306
0.0010051276
0.0010040301
0.0010031118
0.0010023604
0.0010017738
0.0010013394
0.0010010759
0.0010010153
0.0010009358
0.0010009201
0.0010013089
7.9520101e-07
7.8963072e-06
6.8762428e-06
5.6139382e-06
7.3268042e-06
5.4854214e-06
6.1836708e-06
4.97378e-06
5.0392725e-06
4.6402596e-06
4.6504719e-06
4.5731145e-06
4.6371792e-06
4.707615e-06
4.8416931e-06
5.0041433e-06
5.209241e-06
5.4491609e-06
5.7171708e-06
6.0345999e-06
6.3971858e-06
6.8086112e-06
7.2741988e-06
7.8001851e-06
8.3942641e-06
9.0655926e-06
9.8254721e-06
1.0687521e-05
1.16681e-05
1.2787852e-05
1.4071984e-05
1.5551623e-05
1.7265344e-05
1.9260863e-05
2.1597023e-05
2.4347054e-05
2.7602263e-05
3.1471943e-05
3.6090598e-05
4.1642258e-05
4.8333721e-05
5.636636e-05
6.6069261e-05
7.7879073e-05
9.2244579e-05
0.00010971779
0.00013212213
0.00015824607
0.00019010091
0.00022895198
0.00027897213
0.00033720375
0.00040824757
0.00049492761
0.00060068962
0.00072975285
0.00088728087
0.0010229471
0.0010217812
0.0010205474
0.0010192383
0.0010178452
0.001016358
0.0010147647
0.0010130506
0.0010111967
0.0010091776
0.0010074591
0.0010060019
0.0010047723
0.0010037406
0.0010028816
0.0010021808
0.001001628
0.0010012112
0.0010009607
0.0010008881
0.0010007935
0.0010008193
0.0010011866
7.5882891e-07
6.6557889e-06
6.2325307e-06
4.8159844e-06
6.3025074e-06
4.7038165e-06
5.3683306e-06
4.1728535e-06
4.1693287e-06
3.9200113e-06
3.939369e-06
3.9207884e-06
4.0030927e-06
4.1022934e-06
4.2518332e-06
4.4308691e-06
4.6378345e-06
4.8864946e-06
5.1739059e-06
5.5014718e-06
5.8729379e-06
6.2923858e-06
6.7651605e-06
7.2975726e-06
7.8973328e-06
8.5735287e-06
9.3374912e-06
1.018319e-05
1.1160322e-05
1.227464e-05
1.355121e-05
1.5021088e-05
1.672285e-05
1.8704216e-05
2.1024205e-05
2.3756765e-05
2.6993268e-05
3.0842067e-05
3.544147e-05
4.1246495e-05
4.7966493e-05
5.6024326e-05
6.5778535e-05
7.7665336e-05
9.2119296e-05
0.00010970586
0.0001311248
0.000158617
0.00019067676
0.00022977572
0.00027745822
0.00033880639
0.00041025624
0.00049740825
0.00060371177
0.00073339623
0.00089163768
0.0010221642
0.0010209911
0.0010197531
0.0010184433
0.001017054
0.0010155761
0.0010139994
0.0010123115
0.0010104977
0.0010085893
0.0010069662
0.0010055914
0.0010044334
0.0010034646
0.0010026624
0.0010020112
0.0010014944
0.0010010999
0.0010008604
0.0010007713
0.0010006707
0.0010007268
0.0010010652
7.3584202e-07
5.483419e-06
5.6084598e-06
4.1040423e-06
5.2925902e-06
4.2461188e-06
4.0598596e-06
3.4498479e-06
3.4521233e-06
3.2999208e-06
3.3387101e-06
3.366289e-06
3.4674868e-06
3.5912143e-06
3.7485459e-06
3.940152e-06
4.1675743e-06
4.4292445e-06
4.7279672e-06
5.0660462e-06
5.4472895e-06
5.876028e-06
6.3576332e-06
6.8984402e-06
7.4968204e-06
8.1772735e-06
8.9442153e-06
9.8110883e-06
1.0794427e-05
1.1914639e-05
1.3197001e-05
1.4672912e-05
1.6381397e-05
1.8370681e-05
2.0700745e-05
2.3447029e-05
2.6701322e-05
3.0572702e-05
3.5206986e-05
4.0793406e-05
4.7503375e-05
5.595397e-05
6.5797246e-05
7.7795865e-05
9.2381879e-05
0.00011013423
0.00013175397
0.00015810092
0.00019191068
0.00023136495
0.0002794684
0.00033812632
0.00041349487
0.00050135303
0.00060848475
0.00073914287
0.00089853256
0.001021398
0.0010202205
0.0010189812
0.0010176736
0.0010162907
0.0010148247
0.0010132664
0.0010116055
0.0010098298
0.0010080299
0.0010065003
0.001005206
0.001004117
0.0010032078
0.0010024582
0.0010018526
0.0010013712
0.0010010031
0.0010007753
0.0010006684
0.0010005626
0.0010006387
0.0010009423
7.2920442e-07
4.6846545e-06
5.0197357e-06
4.0726137e-06
5.0400603e-06
3.2058453e-06
3.2274301e-06
2.8458573e-06
2.8556223e-06
2.7818136e-06
2.839097e-06
2.9042701e-06
3.0234012e-06
3.1605587e-06
3.3377569e-06
3.5454344e-06
3.7860806e-06
4.0600275e-06
4.3700758e-06
4.719082e-06
5.1109311e-06
5.5501002e-06
6.0367113e-06
6.585582e-06
7.2006662e-06
7.8909951e-06
8.6675673e-06
9.54387e-06
1.0536535e-05
1.1666139e-05
1.2958251e-05
1.4444716e-05
1.6165051e-05
1.8168133e-05
2.0515322e-05
2.3283532e-05
2.6564165e-05
3.046818e-05
3.5150945e-05
4.0798598e-05
4.7565999e-05
5.5688855e-05
6.6058876e-05
7.8195786e-05
9.2948771e-05
0.00011090666
0.00013277381
0.00015941869
0.00019363843
0.00023352467
0.00028214077
0.00034140577
0.00041761868
0.00050634802
0.00061451175
0.00074639563
0.0009072465
0.001020654
0.0010194752
0.0010182374
0.0010169351
0.0010155618
0.0010141104
0.001012573
0.0010109407
0.0010092034
0.0010075078
0.0010060682
0.0010048513
0.0010038283
0.0010029753
0.0010022737
0.0010017078
0.0010012579
0.0010009165
0.0010007023
0.0010005798
0.0010004641
0.0010005549
0.0010008126
7.3826724e-07
4.8425472e-06
4.4713964e-06
4.390134e-06
4.1555684e-06
2.5333298e-06
2.6055154e-06
2.3441826e-06
2.3660775e-06
2.3551917e-06
2.4311963e-06
2.5265088e-06
2.6562774e-06
2.8167843e-06
3.0092252e-06
3.2308642e-06
3.4838512e-06
3.7696429e-06
4.0911324e-06
4.4514948e-06
4.8546683e-06
5.3016423e-06
5.8034384e-06
6.3639206e-06
6.9905511e-06
7.6923485e-06
8.480318e-06
9.3680018e-06
1.0372148e-05
1.1513555e-05
1.2818155e-05
1.4318277e-05
1.6053955e-05
1.8075017e-05
2.0444545e-05
2.3240102e-05
2.6552021e-05
3.049729e-05
3.5243012e-05
4.0959856e-05
4.7783852e-05
5.6402419e-05
6.6494266e-05
7.8789049e-05
9.3730487e-05
0.00011191693
0.00013405893
0.00016103331
0.00019567
0.00023602796
0.00028520529
0.00034513702
0.00042222495
0.00051190984
0.00062121168
0.00075445536
0.00091693716
0.0010199386
0.0010187614
0.0010175284
0.0010162344
0.0010148737
0.00101344
0.0010119262
0.0010103248
0.0010086271
0.00100703
0.0010056755
0.0010045317
0.0010035712
0.0010027709
0.0010021132
0.0010015816
0.0010011578
0.0010008382
0.001000633
0.0010004972
0.0010003765
0.00100046
0.0010006801
6.5552256e-07
5.0817826e-06
3.8441857e-06
2.5550821e-06
2.6271753e-06
2.0870834e-06
2.0711603e-06
1.9475764e-06
1.975121e-06
2.0117646e-06
2.1059812e-06
2.2202875e-06
2.3700219e-06
2.546902e-06
2.752664e-06
2.9868436e-06
3.2516078e-06
3.5490362e-06
3.8821021e-06
4.2541384e-06
4.667139e-06
5.1286622e-06
5.6427037e-06
6.2154773e-06
6.8544123e-06
7.5685097e-06
8.3687883e-06
9.2688531e-06
1.0285593e-05
1.1440076e-05
1.2758637e-05
1.4274057e-05
1.6026992e-05
1.8068632e-05
2.0463535e-05
2.3288405e-05
2.6634152e-05
3.063003e-05
3.5447845e-05
4.1221076e-05
4.8422595e-05
5.6800967e-05
6.7041732e-05
7.9493265e-05
9.4626853e-05
0.00011304267
0.00013546263
0.0001627688
0.00019778634
0.0002386126
0.00028834761
0.00034894285
0.0004268476
0.00051747835
0.00062791042
0.0007625097
0.00092662437
0.0010192592
0.0010180865
0.0010168612
0.0010155786
0.0010142335
0.0010128204
0.001011333
0.0010097648
0.0010081084
0.0010066025
0.0010053268
0.0010042506
0.0010033477
0.0010025963
0.0010019788
0.0010014778
0.0010010767
0.0010007737
0.0010005705
0.0010004213
0.0010002982
0.0010003581
0.0010005382
4.9832442e-07
3.3669914e-06
2.8858394e-06
2.0352112e-06
2.0141339e-06
1.6832405e-06
1.6660725e-06
1.6183262e-06
1.6677087e-06
1.7380296e-06
1.8510833e-06
1.9850393e-06
2.150223e-06
2.3410323e-06
2.5590307e-06
2.8050234e-06
3.0812903e-06
3.3902438e-06
3.7349005e-06
4.1186486e-06
4.545419e-06
5.0179281e-06
5.5442246e-06
6.1293006e-06
6.7805563e-06
7.5069816e-06
8.3196233e-06
9.2321633e-06
1.0261654e-05
1.1429439e-05
1.2762223e-05
1.4293221e-05
1.6063926e-05
1.8127054e-05
2.0547561e-05
2.3400603e-05
2.6782278e-05
3.0999986e-05
3.5916515e-05
4.1767402e-05
4.8748132e-05
5.7245198e-05
6.7617459e-05
8.0209914e-05
9.5522089e-05
0.00011414779
0.0001368222
0.00016587338
0.0001997409
0.00024098177
0.00029120963
0.00035239125
0.0004309482
0.00052240368
0.00063382303
0.00076960952
0.0009351583
0.001018624
0.0010174587
0.0010162437
0.0010149752
0.0010136485
0.0010122587
0.0010108003
0.0010092676
0.0010076542
0.0010062305
0.0010050257
0.0010040105
0.0010031597
0.0010024523
0.0010018707
0.0010013973
0.0010010173
0.0010007284
0.001000525
0.0010003646
0.0010002392
0.0010002671
0.0010003823
3.8377663e-07
2.0255859e-06
2.2371274e-06
1.5901938e-06
1.5451337e-06
1.3577097e-06
1.3569216e-06
1.3620231e-06
1.4331744e-06
1.5295373e-06
1.6589885e-06
1.8100768e-06
1.9882128e-06
2.1910609e-06
2.420233e-06
2.6772373e-06
2.9644134e-06
3.2843234e-06
3.6399786e-06
4.0347691e-06
4.4725866e-06
4.9579146e-06
5.4959957e-06
6.0930421e-06
6.7565256e-06
7.4955506e-06
8.3213296e-06
9.2477825e-06
1.0292305e-05
1.1476706e-05
1.2828218e-05
1.4380709e-05
1.6177002e-05
1.8271275e-05
2.072772e-05
2.362185e-05
2.7061332e-05
3.1194497e-05
3.6142769e-05
4.2002192e-05
4.9036058e-05
5.7633982e-05
6.81071e-05
8.081625e-05
9.6266627e-05
0.00011602474
0.00013905842
0.0001670875
0.00020120562
0.00024274219
0.00029331893
0.00035826455
0.00043382457
0.00052584401
0.00063793963
0.00077454172
0.0009410799
0.0010180425
0.0010168869
0.0010156847
0.0010144324
0.0010131262
0.0010117617
0.0010103343
0.0010088389
0.0010072699
0.0010059182
0.0010047754
0.0010038135
0.0010030081
0.0010023392
0.0010017889
0.0010013401
0.0010009794
0.0010007034
0.001000501
0.0010003365
0.0010002148
0.0010002196
0.0010002865
3.0350348e-07
1.5698447e-06
1.6605706e-06
1.2516035e-06
1.2012503e-06
1.1070528e-06
1.1247542e-06
1.1680687e-06
1.2583595e-06
1.3742855e-06
1.5171435e-06
1.6819399e-06
1.8706817e-06
2.0836052e-06
2.3223929e-06
2.5888898e-06
2.8854464e-06
3.214676e-06
3.5795683e-06
3.9835016e-06
4.4303421e-06
4.9245488e-06
5.4713344e-06
6.0768804e-06
6.7486267e-06
7.4956503e-06
8.3291461e-06
9.2630551e-06
1.0314862e-05
1.1506473e-05
1.2865164e-05
1.4425223e-05
1.6230469e-05
1.8334743e-05
2.0799987e-05
2.3706254e-05
2.7174077e-05
3.1337555e-05
3.6274204e-05
4.2120771e-05
4.9211422e-05
5.8307196e-05
6.8913179e-05
8.1780649e-05
9.7412443e-05
0.00011641394
0.00013952476
0.00016764386
0.00020186631
0.00024352254
0.00029691822
0.00035910281
0.0004348099
0.00052700295
0.00063930648
0.00077616165
0.0009430124
0.0010175253
0.0010163816
0.0010151941
0.0010139596
0.0010126748
0.0010113364
0.0010099405
0.0010084833
0.0010069605
0.0010056689
0.001004578
0.0010036605
0.001002893
0.001002256
0.0010017317
0.0010013035
0.0010009595
0.0010006941
0.0010004929
0.0010003281
0.0010002101
0.0010001935
0.0010002153
2.1937957e-07
1.2001083e-06
1.2159547e-06
1.0002984e-06
9.506152e-07
9.1923011e-07
9.5778486e-07
1.030406e-06
1.1383318e-06
1.2704374e-06
1.4256229e-06
1.6023405e-06
1.8015617e-06
2.0244264e-06
2.2727608e-06
2.5483586e-06
2.8540235e-06
3.1922123e-06
3.5659166e-06
3.978521e-06
4.4338885e-06
4.9364675e-06
5.4914515e-06
6.1049926e-06
6.7844961e-06
7.5390027e-06
8.3796847e-06
9.3204987e-06
1.0378958e-05
1.1576924e-05
1.2941731e-05
1.4508296e-05
1.632076e-05
1.8430735e-05
2.0975266e-05
2.3912698e-05
2.742744e-05
3.1614893e-05
3.6542646e-05
4.24287e-05
4.9617388e-05
5.8368942e-05
6.8967241e-05
8.1830758e-05
9.7449281e-05
0.0001164318
0.00013951173
0.00016908067
0.00020348835
0.00024534732
0.00029628171
0.00035827251
0.00043373742
0.00052563033
0.00063756511
0.00077397064
0.00094027701
0.0010170845
0.001015955
0.0010147839
0.0010135683
0.0010123053
0.0010109919
0.0010096248
0.0010082004
0.0010067309
0.0010054861
0.0010044356
0.0010035525
0.0010028144
0.0010022016
0.0010016969
0.0010012844
0.001000953
0.0010006951
0.0010004955
0.0010003334
0.00100022
0.0010001864
0.0010001739
1.8600416e-07
9.6757945e-07
8.738721e-07
8.0292588e-07
7.7378629e-07
7.821752e-07
8.3907063e-07
9.3090133e-07
1.0502929e-06
1.1915785e-06
1.353312e-06
1.5354886e-06
1.7391806e-06
1.9658989e-06
2.2175215e-06
2.4961489e-06
2.8040015e-06
3.1436385e-06
3.5180893e-06
3.930749e-06
4.3854772e-06
4.8867074e-06
5.4396065e-06
6.0502934e-06
6.7261311e-06
7.476104e-06
8.3113304e-06
9.2457117e-06
1.029663e-05
1.1485726e-05
1.2840364e-05
1.4395705e-05
1.6194458e-05
1.8285462e-05
2.073453e-05
2.3642201e-05
2.711317e-05
3.1201314e-05
3.6018356e-05
4.1846879e-05
4.8966169e-05
5.7591422e-05
6.856143e-05
8.1331383e-05
9.6832998e-05
0.00011566695
0.00013856154
0.00016640425
0.00020027509
0.00024149004
0.00029165327
0.00035272218
0.00042708693
0.00051766905
0.00062804446
0.00076259721
0.00092670449
0.0010167478
0.0010156353
0.0010144832
0.0010132889
0.0010120501
0.0010107639
0.0010094277
0.0010080385
0.0010066032
0.0010053876
0.0010043622
0.0010035006
0.0010027803
0.0010021821
0.0010016885
0.0010012845
0.0010009593
0.0010007035