/*--------------------------------*- C++ -*----------------------------------*\
  =========                 |
  \\      /  F ield         | OpenFOAM: The Open Source CFD Toolbox
   \\    /   O peration     | Website:  https://openfoam.org
    \\  /    A nd           | Version:  6
     \\/     M anipulation  |
\*---------------------------------------------------------------------------*/
FoamFile
{
    version     2.0;
    format      ascii;
    class       volScalarField;
    location    "200";
    object      omega;
}
// * * * * * * * * * * * * * * * * * * * * * * * * * * * * * * * * * * * * * //

dimensions      [0 0 -1 0 0 0 0];

internalField   nonuniform List<scalar> 
16000
(
1313.4261
1559.6415
834.33322
504.99334
347.88369
260.24475
196.43018
160.67635
130.17004
110.51727
93.484936
80.952009
70.27361
61.877596
54.788029
48.969322
44.020716
39.847959
36.263479
33.183997
30.51151
28.185053
26.146369
24.353073
22.768258
21.362876
20.112238
18.996151
17.997608
17.102457
16.298812
15.57673
14.927737
14.344676
13.821358
13.352417
12.933092
12.559074
12.226426
11.931502
11.670887
11.441441
11.240227
11.064497
10.911682
10.779372
10.665313
10.567423
10.483817
10.412817
10.35299
10.303188
10.262662
10.231347
10.210373
10.197708
10.189885
10.183483
10.176512
10.168122
10.15668
10.141584
10.122705
10.100563
10.076594
10.053243
10.032545
10.014963
10.000071
9.9877011
9.9775769
9.9703024
9.9646841
9.9633261
9.9609608
9.9696468
9.9704569
9.9963292
9.9796325
10.009952
1061.4519
1602.4516
837.99595
511.63927
349.28218
263.47866
197.52758
162.23892
130.86841
111.17176
93.782719
81.129634
70.363929
61.947557
54.819524
48.984813
44.019602
39.838764
36.248381
33.166293
30.492881
28.167001
26.129743
24.338376
22.755702
21.352485
20.103915
18.989713
17.992831
17.099089
16.296633
15.575571
14.927499
14.345213
13.822482
13.353966
12.934915
12.561132
12.228723
11.934018
11.673569
11.444242
11.243099
11.067391
10.914551
10.782183
10.668035
10.570026
10.486266
10.415061
10.35495
10.304721
10.263487
10.230854
10.207406
10.19325
10.184864
10.178413
10.171596
10.163732
10.154184
10.141027
10.123693
10.102575
10.078954
10.055467
10.034501
10.01672
10.00169
9.9891745
9.9789984
9.9715006
9.9659544
9.9640674
9.9619219
9.9691653
9.9702074
9.9958316
9.9811256
10.011301
1090.2396
1645.0056
837.17793
517.40151
349.82389
266.16393
198.19905
163.43143
131.29835
111.53782
93.856662
81.174626
70.341635
61.9153
54.761862
48.919708
43.946994
39.765034
36.175456
33.096265
30.426915
28.105865
26.073826
24.287693
22.710089
21.311651
20.06751
18.957359
17.964155
17.073729
16.274238
15.555826
14.91017
14.330123
13.809507
13.342923
12.925586
12.55325
12.222147
11.928673
11.669326
11.44096
11.240648
11.065647
10.913395
10.781515
10.667767
10.570074
10.486549
10.415492
10.355424
10.3051
10.263549
10.23017
10.204963
10.189086
10.179993
10.173424
10.166648
10.158962
10.150008
10.138951
10.123481
10.103698
10.080676
10.057208
10.036068
10.018173
10.003067
9.9904894
9.980285
9.972682
9.9672027
9.9650024
9.9631149
9.9692809
9.9706547
9.9958205
9.9816371
10.010326
1116.8718
1684.2143
833.92337
522.21479
349.63132
268.20899
198.51589
164.1727
131.47392
111.55043
93.737739
81.076927
70.203114
61.774718
54.611558
48.770339
43.800312
39.624435
36.042863
32.972315
30.312259
28.00047
25.977573
24.200099
22.630613
21.239671
20.002428
18.898594
17.911185
17.026068
16.231436
15.517482
14.875943
14.299693
13.782606
13.319335
12.905104
12.535565
12.206891
11.915626
11.658294
11.43172
11.232979
11.059352
10.908283
10.77742
10.664543
10.567582
10.484664
10.414087
10.354366
10.304239
10.262689
10.229009
10.20296
10.185196
10.175242
10.168499
10.161716
10.154095
10.145379
10.135047
10.121789
10.103695
10.081564
10.058296
10.037101
10.019186
10.00409
9.9915239
9.9813505
9.9737065
9.9683369
9.9658988
9.964373
9.9694262
9.9712993
9.9943401
9.9827058
10.010089
1141.2935
1717.9703
828.55064
525.97877
348.73577
269.5394
198.49009
164.40697
131.39045
111.35622
93.476736
80.839204
69.950732
61.52796
54.370307
48.538355
43.580832
39.41813
35.851487
32.795173
30.149429
27.851164
25.841198
24.075709
22.517312
21.136558
19.90868
18.813461
17.834012
16.956265
16.168448
15.460803
14.825132
14.254335
13.742302
13.283704
12.873805
12.508305
12.183273
11.895211
11.640762
11.41679
11.220346
11.048738
10.89943
10.770093
10.658538
10.56271
10.480751
10.410967
10.351874
10.302204
10.260914
10.22723
10.200737
10.181615
10.170614
10.163644
10.15682
10.149212
10.140614
10.130664
10.118619
10.10259
10.081664
10.058789
10.037649
10.019807
10.004801
9.9923195
9.9822302
9.9746074
9.9693607
9.9667827
9.9656188
9.969706
9.9721037
9.9927893
9.9837437
10.009019
1163.4774
1743.4593
821.51686
528.58492
347.19245
270.06257
198.14616
164.05912
131.02046
110.96958
93.075482
80.461111
69.584487
61.174822
54.037833
48.223586
43.28826
39.14584
35.600944
32.564411
29.937925
27.657429
25.664159
23.913997
22.369707
21.001899
19.785947
18.701737
17.732514
16.864288
16.085328
15.385914
14.757915
14.194249
13.688821
13.236321
12.832025
12.471664
12.151365
11.867582
11.616887
11.396292
11.202861
11.033909
10.886924
10.759615
10.649822
10.555514
10.474856
10.406167
10.34797
10.298999
10.258201
10.224766
10.198178
10.178374
10.1661
10.158842
10.151957
10.144327
10.135779
10.126029
10.114563
10.100294
10.080932
10.058665
10.037692
10.020018
10.005184
9.9928609
9.9829093
9.9753688
9.9702515
9.9676184
9.9667925
9.9700877
9.9729867
9.9913486
9.9849567
10.008505
1183.4639
1757.6341
813.38291
529.91456
345.06593
269.67586
197.50847
163.33779
130.32777
110.39479
92.537112
79.945133
69.10583
60.717058
53.615244
47.827241
42.923409
38.808292
35.291734
32.280445
29.678024
27.419481
25.44663
23.715155
22.188025
20.835986
19.634594
18.563871
17.607214
16.750727
15.982717
15.293482
14.674966
14.120102
13.622808
13.177792
12.780365
12.426264
12.111649
11.833118
11.587062
11.370591
11.180843
11.015155
10.871025
10.746211
10.638594
10.546165
10.467124
10.399807
10.342751
10.294699
10.254598
10.221616
10.195178
10.175068
10.1617
10.154086
10.147121
10.139446
10.13091
10.121277
10.110148
10.096753
10.079363
10.057943
10.037249
10.019835
10.005253
9.993159
9.9834005
9.9759986
9.9710181
9.9684048
9.96787
9.9705555
9.9739117
9.990014
9.9859853
10.007826
1201.3261
1757.149
804.65329
529.7908
342.4123
268.23879
196.56803
162.35197
129.48009
109.63471
91.862422
79.293025
68.515118
60.155763
53.102911
47.349996
42.486583
38.405812
34.924009
31.943388
29.369795
27.137389
25.188719
23.47936
21.972532
20.639193
19.455102
18.40044
17.458763
16.616291
15.861356
15.184259
14.577026
14.03261
13.54494
13.108755
12.71941
12.372668
12.064676
11.792246
11.55169
11.340057
11.154616
10.992765
10.851989
10.730106
10.625047
10.534828
10.457694
10.392002
10.336311
10.289376
10.250151
10.217798
10.191704
10.171541
10.15742
10.149361
10.142304
10.134569
10.126021
10.116459
10.105562
10.092763
10.07694
10.056644
10.036336
10.01927
10.005015
9.99322
9.9837115
9.9764999
9.9716678
9.9691348
9.9688397
9.9710903
9.9748331
9.9887857
9.9869619
10.007259
1217.1845
1739.7671
795.51024
527.9606
339.31398
266.04184
195.30145
161.11284
128.48493
108.69571
91.053744
78.50863
67.813977
59.49337
52.502154
46.793314
41.978757
37.939246
34.498426
31.553831
29.013768
26.811701
24.891013
23.207289
21.724006
20.412394
19.248437
18.212477
17.288244
16.462081
15.722351
15.059321
14.465129
13.932751
13.456137
13.030061
12.649948
12.311605
12.011126
11.745611
11.511281
11.305168
11.124616
10.967122
10.830153
10.711588
10.60943
10.521715
10.446743
10.382901
10.32877
10.283124
10.244932
10.213357
10.187768
10.167769
10.153276
10.144658
10.137501
10.129695
10.121118
10.111598
10.100866
10.088481
10.073643
10.054801
10.034981
10.018347
10.004492
9.9930597
9.9838577
9.9768836
9.9722171
9.9698099
9.9697038
9.97168
9.975734
9.9877112
9.9877869
10.006534
1231.2193
1723.424
785.01133
524.17425
335.85421
263.46409
193.66808
159.64171
127.35076
107.58834
90.114599
77.597539
67.004804
58.732838
51.814615
46.158844
41.401028
37.409548
34.015765
31.112525
28.610696
26.443229
24.554411
22.89995
21.443563
20.156808
19.015896
18.001331
17.097017
16.289446
15.567021
14.919937
14.340477
13.821655
13.357452
12.942687
12.572872
12.243915
11.951751
11.693889
11.466441
11.266473
11.09132
10.938642
10.805883
10.690974
10.592016
10.507054
10.434464
10.372662
10.320258
10.27605
10.239023
10.208348
10.183389
10.163719
10.149174
10.139968
10.132705
10.124821
10.116207
10.10671
10.096106
10.084035
10.069876
10.052458
10.033222
10.017096
10.003707
9.9926969
9.9838564
9.9771635
9.9726855
9.9704349
9.9704724
9.972312
9.9766033
9.9868111
9.9885162
10.005818
1243.6542
1708.5961
773.45608
518.18109
332.06951
260.57049
191.70505
157.96057
126.08221
106.32285
89.047299
76.564773
66.089479
57.876736
51.041722
45.448056
40.754504
36.817708
33.477003
30.620491
28.161682
26.03318
24.180244
22.558819
21.132788
19.874101
18.7592
17.76874
16.886794
16.100043
15.396967
14.767621
14.204491
13.700649
13.25012
12.847769
12.489214
12.17057
11.887403
11.637864
11.417891
11.224602
11.055261
10.9078
10.779593
10.668618
10.573107
10.491101
10.421069
10.361462
10.310919
10.268268
10.232514
10.202839
10.178608
10.159371
10.144902
10.135282
10.127914
10.11995
10.111293
10.101809
10.091308
10.079499
10.065905
10.049669
10.031107
10.015557
10.002692
9.9921569
9.9837288
9.9773584
9.9730965
9.9710205
9.9711644
9.972977
9.9774338
9.9861219
9.9891435
10.00502
1254.7632
1694.7322
760.96346
510.13644
327.96413
257.41839
189.67061
156.08877
124.68032
104.90801
87.852863
75.414281
65.069217
56.926944
50.184499
44.662124
40.040241
36.164738
32.877429
30.072916
27.6622
25.577464
23.764924
22.180834
20.789107
19.562132
18.476577
17.513234
16.656343
15.892821
15.21132
14.601636
14.056544
13.569202
13.133703
12.744948
12.398648
12.091368
11.819043
11.578397
11.366402
11.180242
11.017023
10.875108
10.751733
10.644897
10.553029
10.474128
10.406784
10.349485
10.300906
10.259903
10.225503
10.196906
10.173478
10.154759
10.140475
10.130597
10.123126
10.115085
10.106384
10.096909
10.086495
10.074906
10.061776
10.046497
10.028692
10.013777
10.001484
9.9914691
9.9834984
9.9774894
9.9734754
9.9715824
9.9718052
9.9736679
9.9782222
9.9856688
9.9897178
10.003997
1264.8062
1681.0132
747.65602
501.62784
323.48965
254.04274
187.56848
154.04167
123.14172
103.34965
86.530192
74.147877
63.943925
55.884063
49.232816
43.788591
39.245508
35.439842
32.217914
29.472393
27.115963
25.080467
23.313212
21.770987
20.417561
19.225877
18.172866
17.239463
16.410064
15.671881
15.013937
14.425559
13.899933
13.430341
13.010974
12.636767
12.303389
12.007938
11.746242
11.515129
11.311669
11.13318
10.977233
10.84111
10.722785
10.62021
10.532128
10.45642
10.391843
10.336925
10.290374
10.25108
10.218094
10.190628
10.16806
10.149925
10.135912
10.125911
10.118344
10.110231
10.101491
10.092024
10.081689
10.070291
10.057542
10.043009
10.02604
10.011808
10.000126
9.9906671
9.9831903
9.9775789
9.9738464
9.9721397
9.9724227
9.974379
9.9789673
9.9854456
9.9903146
10.003212
1274.087
1666.3896
733.63322
492.72503
318.52926
250.48074
185.39636
151.83529
121.46254
101.65309
85.078358
72.766837
62.69041
54.722483
48.180464
42.828295
38.374877
34.648815
31.500561
28.821335
26.52573
24.545156
22.828171
21.332456
20.021334
18.868464
17.851103
16.950344
16.150711
15.439724
14.807202
14.24159
13.736678
13.285907
12.883622
12.524832
12.2049
11.921818
11.671194
11.449979
11.255324
11.084542
10.935557
10.805524
10.69256
10.594963
10.510766
10.438276
10.376491
10.32398
10.279485
10.241931
10.210389
10.18409
10.16242
10.144914
10.131241
10.12123
10.113576
10.105399
10.096628
10.087172
10.076914
10.065691
10.053265
10.039284
10.023221
10.009708
9.9986668
9.9897877
9.9828306
9.9776482
9.9742307
9.9727131
9.9730449
9.9751038
9.9796616
9.9854049
9.9908582
10.002597
1282.8979
1649.3059
718.97577
483.49357
313.61076
246.76379
183.14042
149.48151
119.63593
99.820002
83.455352
71.218993
61.29842
53.444691
47.027454
41.782097
37.430021
33.793885
30.728189
28.122896
25.895066
23.97531
22.313565
20.8691
19.604222
18.493553
17.51478
16.649206
15.881425
15.199091
14.591605
14.050072
13.566993
13.136001
12.751647
12.409227
12.104644
11.834309
11.595045
11.38396
11.198346
11.035306
10.893395
10.769512
10.661814
10.568882
10.488759
10.420003
10.360978
10.310853
10.268402
10.232584
10.202494
10.177375
10.156622
10.139776
10.126494
10.116561
10.108832
10.100604
10.091811
10.082375
10.072196
10.061142
10.049022
10.035555
10.020307
10.007541
9.9971573
9.9888704
9.9824458
9.9777156
9.9746436
9.9733218
9.9736995
9.9758418
9.9802987
9.985482
9.9913319
10.002159
1291.5101
1627.4839
703.71936
473.94472
308.90547
242.91527
180.77312
146.98672
117.65209
97.76034
81.63131
69.506694
59.764409
52.049327
45.774015
40.651376
36.413453
32.878235
29.904744
27.381286
25.228628
23.375777
21.773996
20.38219
19.167148
18.101773
17.164306
16.336341
15.602514
14.950941
14.371283
13.854893
13.394498
12.98394
12.617966
12.29204
12.00221
11.745017
11.517404
11.316673
11.14048
10.986213
10.8514
10.733707
10.631179
10.542859
10.466655
10.401398
10.345561
10.29775
10.257288
10.223169
10.194512
10.170569
10.150735
10.134562
10.121704
10.111917
10.104129
10.095864
10.087063
10.077657
10.067562
10.056671
10.044839
10.031854
10.017372
10.005369
9.9956505
9.9879562
9.9820627
9.9777953
9.9750917
9.9739796
9.9744123
9.9766024
9.9808867
9.9856413
9.9916611
10.001837
1300.183
1597.5144
687.84766
464.04203
304.4024
238.95211
178.25235
144.28378
115.35179
95.45607
79.594031
67.62366
58.084932
50.535542
44.421574
39.438876
35.329358
31.906609
29.035884
26.602085
24.527212
22.74711
21.211009
19.878512
18.717117
17.700028
16.806309
16.018071
15.319773
14.700199
14.149335
13.658827
13.221673
12.831965
12.484671
12.175453
11.90053
11.656573
11.440599
11.250021
11.082948
10.936732
10.809088
10.697802
10.601125
10.517355
10.444871
10.382915
10.33003
10.284889
10.246311
10.213814
10.186543
10.163753
10.144826
10.129327
10.11691
10.107318
10.099487
10.091203
10.08241
10.073048
10.063043
10.05231
10.04074
10.028196
10.01449
10.003252
9.9941986
9.9870869
9.9817094
9.9778984
9.9755711
9.9746866
9.9751972
9.977398
9.9814519
9.9858893
9.9919442
10.001524
1309.0643
1554.094
671.27222
453.70864
300.04116
234.88621
175.54186
141.19669
112.72144
92.891731
77.329491
65.562424
56.257332
48.903761
42.973576
38.149376
34.184353
30.885698
28.121102
25.786231
23.799927
22.099048
20.63381
19.364697
18.260325
17.29392
16.44572
15.698962
15.037287
14.450506
13.928988
13.464726
13.05103
12.682273
12.353677
12.061132
11.801064
11.570291
11.365886
11.185125
11.026965
10.888476
10.76772
10.662532
10.571196
10.492112
10.4238
10.364895
10.314749
10.272074
10.235654
10.204656
10.178686
10.15701
10.138962
10.124124
10.112154
10.102787
10.094935
10.08665
10.077884
10.068582
10.058679
10.048102
10.036762
10.024553
10.011727
10.001249
9.99285
9.986303
9.981416
9.978037
9.9760724
9.9754265
9.9760456
9.9782336
9.9820174
9.9862058
9.9922136
10.001162
1318.0902
1504.7841
655.24712
442.78542
295.67206
230.67355
173.05819
137.73964
109.69873
90.039538
74.821485
63.313531
54.27963
47.156167
41.436325
36.790078
32.975472
29.814986
27.172886
24.946439
23.056206
21.440445
20.05062
18.848091
17.803656
16.889625
16.087601
15.381095
14.756575
14.202907
13.710894
13.272916
12.882626
12.534705
12.224651
11.94861
11.703245
11.485593
11.292956
11.122942
10.973416
10.842122
10.727909
10.628572
10.542326
10.467656
10.403185
10.347662
10.299968
10.259599
10.225146
10.195845
10.171035
10.150421
10.133214
10.119011
10.107481
10.098357
10.090502
10.082239
10.073521
10.064298
10.054516
10.044108
10.033002
10.02111
10.009145
9.9994096
9.9916463
9.985641
9.9812139
9.9782295
9.9765909
9.9761738
9.9769271
9.9791042
9.9826035
9.9865502
9.9924392
10.000732
1326.9345
1451.8655
640.83377
431.0672
291.05782
227.25476
169.36177
133.75149
106.253
86.856542
72.053944
60.871386
52.154849
45.300207
39.805621
35.359388
31.72028
28.712776
26.204387
24.094924
22.307246
20.781473
19.470854
18.336454
17.350928
16.490494
15.735853
15.07127
14.483872
13.963092
13.500228
13.088089
12.720707
12.393092
12.101029
11.840929
11.609689
11.404534
11.222941
11.062705
10.921862
10.798322
10.69014
10.596343
10.514898
10.444374
10.383467
10.330993
10.285892
10.247673
10.215031
10.187242
10.163682
10.144063
10.127646
10.114045
10.102938
10.094062
10.086227
10.078006
10.069358
10.060237
10.050594
10.040373
10.029511
10.017936
10.006798
9.9977738
9.9906197
9.9851288
9.9811307
9.9785006
9.9771376
9.9769138
9.9778001
9.9799768
9.9832091
9.9868819
9.9926211
10.000198
1334.8992
1400.2962
628.81074
424.34585
288.62141
221.79507
164.78511
129.16405
102.33715
83.325282
69.021621
58.243886
49.897499
43.335969
38.104356
33.883477
30.438038
27.596768
25.231599
23.245927
21.565609
20.132927
18.90055
17.836251
16.911986
16.105189
15.397594
14.774346
14.223319
13.734586
13.299989
12.912802
12.567455
12.259297
11.984411
11.73948
11.521631
11.328285
11.157117
11.006043
10.873164
10.756484
10.654816
10.566194
10.489228
10.42257
10.364989
10.315363
10.272691
10.236465
10.205501
10.179115
10.156713
10.138014
10.122327
10.109285
10.098575
10.089941
10.082147
10.073991
10.065434
10.056437
10.046956
10.03694
10.026337
10.015085
10.004726
9.9963723
9.9897909
9.9847821
9.9811825
9.9788708
9.9777374
9.9776612
9.9786392
9.9807791
9.983764
9.9872065
9.9926388
9.9995926
1340.9153
1375.6156
619.05976
426.12515
287.15905
214.60841
159.47332
123.88594
97.909628
79.44613
65.7379
55.45535
47.512851
41.299117
36.362443
32.389386
29.152962
26.488315
24.273062
22.41531
20.845051
19.504215
18.352704
17.358232
16.494428
15.740127
15.078234
14.494875
13.978746
13.520609
13.112884
12.749336
12.424799
12.134964
11.876209
11.645468
11.440075
11.257675
11.096303
10.953842
10.828302
10.718498
10.622282
10.53842
10.46556
10.402447
10.34792
10.300908
10.260506
10.226095
10.19666
10.171557
10.150215
10.132349
10.117324
10.10479
10.094445
10.086039
10.078307
10.070236
10.061792
10.05294
10.04364
10.033849
10.02352
10.012602
10.002961
9.9952256
9.9891707
9.984604
9.9813689
9.9793429
9.9784073
9.9784502
9.9794779
9.9815278
9.9842678
9.9875117
9.9925262
9.9988657
1342.5989
1381.3228
609.99259
415.01628
280.31814
206.70337
153.08626
118.02955
92.996306
75.266478
62.245958
52.528362
45.057508
39.232579
34.617312
30.909593
27.893218
25.411648
23.349214
21.619366
20.15642
18.909944
17.837703
16.911036
16.105442
15.401292
14.782758
14.237012
13.753614
13.324042
12.941316
12.599696
12.294427
12.02154
11.777695
11.560026
11.365982
11.193294
11.041025
10.906681
10.788307
10.684119
10.592877
10.513311
10.444136
10.384188
10.332414
10.287689
10.249477
10.21668
10.188607
10.164651
10.144279
10.127149
10.112711
10.100627
10.090607
10.082407
10.074756
10.066788
10.058475
10.049786
10.040685
10.031136
10.021096
10.010522
10.001527
9.9943465
9.9887629
9.9845911
9.9816799
9.9799045
9.9791413
9.9792894
9.9803489
9.9822939
9.9848147
9.9878712
9.9924217
9.9979825
1336.4842
1373.0597
598.23641
402.09674
271.51805
197.48204
145.60146
111.51252
87.6522
70.850882
58.627336
49.543773
42.595034
37.190066
32.914633
29.48282
26.691706
24.395009
22.484946
20.881124
19.522717
18.363102
17.366087
16.503258
15.752072
15.094491
14.515978
14.004759
13.551257
13.14766
12.78758
12.465766
12.177876
11.920296
11.689991
11.484322
11.300926
11.137811
10.993297
10.865639
10.752925
10.653694
10.566902
10.491157
10.425219
10.367951
10.318753
10.2763
10.23975
10.208343
10.181428
10.158435
10.138998
10.1225
10.108564
10.096865
10.087123
10.079102
10.071547
10.063697
10.055529
10.047016
10.038127
10.028831
10.019092
10.008871
10.000439
9.9937401
9.9885651
9.9847348
9.9821019
9.9805397
9.9799243
9.9801657
9.98125
9.9831059
9.9854721
9.9884038
9.9925819
9.9975254
1318.5804
1313.6112
586.36765
385.90508
260.35689
186.84858
137.13818
104.48762
82.053538
66.357695
55.016307
46.610423
40.210274
35.238767
31.308445
28.152699
25.583253
23.466142
21.702431
20.218583
18.959129
17.881636
16.953208
16.148016
15.445558
14.829407
14.286305
13.805492
13.378207
12.997295
12.656901
12.352208
12.079243
11.834716
11.615863
11.420282
11.245686
11.090313
10.952553
10.830563
10.722557
10.627347
10.544508
10.472213
10.409291
10.35468
10.307409
10.266604
10.231479
10.201257
10.175302
10.153266
10.134469
10.11849
10.104965
10.093581
10.084066
10.076188
10.068743
10.061024
10.053008
10.044675
10.036
10.026959
10.017524
10.007666
9.999702
9.9934035
9.988566
9.9850163
9.9826099
9.9812185
9.9807222
9.9810385
9.9821348
9.9839121
9.9861648
9.9889896
9.992832
9.9972166
1285.2394
1253.6232
574.43622
367.09639
247.11343
175.08093
127.9562
97.200079
76.409728
61.946281
51.536256
43.825692
37.969005
33.424716
29.83258
26.946447
24.587682
22.639054
21.011019
19.637207
18.467641
17.464114
16.596989
15.842964
15.183499
14.603701
14.091514
13.637128
13.232533
12.871176
12.547671
12.257581
11.997236
11.763584
11.554006
11.367
11.199943
11.051255
10.919279
10.802153
10.69845
10.607205
10.5273
10.457563
10.396806
10.344008
10.298233
10.258631
10.224741
10.19558
10.170546
10.149108
10.1308
10.115217
10.102004
10.090857
10.081511
10.073741
10.066419
10.058839
10.050982
10.042827
10.034354
10.025542
10.016365
10.006923
9.9993224
9.9933321
9.9887526
9.9854148
9.9831755
9.9819063
9.981493
9.9818576
9.9829501
9.984661
9.9868389
9.9895833
9.9931514
9.9970963
1232.171
1185.8197
564.64089
347.46353
232.19092
162.91961
118.89424
90.416636
71.365652
58.135902
48.613099
41.547949
36.170746
31.988057
28.672095
25.998975
23.812134
21.999732
20.480435
19.194102
18.095477
17.149939
16.33058
15.616192
14.989851
14.437915
13.94931
13.514999
13.127591
12.781023
12.470309
12.191345
11.940745
11.715677
11.513686
11.332591
11.170702
11.026474
10.898105
10.78388
10.682715
10.593646
10.515491
10.44764
10.3885
10.337096
10.292528
10.253982
10.220719
10.192079
10.167477
10.146393
10.128373
10.113018
10.099981
10.088961
10.079699
10.071968
10.064786
10.057361
10.049675
10.041712
10.033455
10.024884
10.01598
10.0068
9.9994201
9.9936164
9.9891913
9.9859764
9.9838278
9.9826174
9.9822353
9.9826039
9.9836583
9.9852917
9.9874015
9.9900702
9.9934087
9.9970178
1167.1886
1119.8255
543.93394
324.07849
211.78075
147.09174
107.76004
82.60704
65.816399
54.101066
45.61695
39.28307
34.432804
30.636564
27.608108
25.151569
23.130033
21.445523
20.02636
18.819262
17.783978
16.889568
16.111865
15.431714
14.83374
14.305482
13.836767
13.419251
13.046076
12.711588
12.411123
12.140846
11.897595
11.678685
11.482512
11.30649
11.149068
11.008558
10.883108
10.771423
10.672622
10.585605
10.509216
10.442372
10.384055
10.333321
10.2893
10.251198
10.218295
10.189947
10.16558
10.144685
10.126814
10.111577
10.09863
10.087677
10.078461
10.070759
10.063722
10.056453
10.048935
10.041154
10.033092
10.024734
10.016063
10.007065
9.9998078
9.9941044
9.9897579
9.9865997
9.9844844
9.9832842
9.9828919
9.983225
9.9842073
9.9857432
9.9877649
9.9903123
9.9933913
9.9967189
1120.4291
1138.4383
550.33341
324.88979
210.79888
145.48586
106.20605
81.407578
64.946214
53.48502
45.188765
38.990921
34.238147
30.511342
27.532163
25.110421
23.112897
21.444551
20.036174
18.836197
17.805489
16.91387
16.137701
15.458197
14.860258
14.331624
13.862272
13.443975
13.069962
12.734649
12.433424
12.162412
11.918384
11.698634
11.500921
11.32345
11.164533
11.022294
10.895126
10.782003
10.681923
10.5937
10.516192
10.448322
10.389076
10.337508
10.292746
10.253989
10.220513
10.191666
10.166866
10.145596
10.127402
10.111885
10.098696
10.087531
10.078128
10.070259
10.063395
10.056306
10.048978
10.041396
10.033544
10.025407
10.016968
10.008212
10.000821
9.9950118
9.9905808
9.9873522
9.9851743
9.9839159
9.9834671
9.9837374
9.9846431
9.9861018
9.9880595
9.9905072
9.9933983
9.9965807
1138.6804
1195.5692
570.09075
337.97026
218.83051
150.73797
109.62463
83.728756
66.579898
54.674468
46.075274
39.663926
34.75669
30.916343
27.852636
25.367419
23.322023
21.617262
20.180755
18.958721
17.910487
17.004777
16.217158
15.528263
14.922549
14.387411
13.912551
13.489515
13.111339
12.772285
12.467636
12.19356
11.946783
11.72452
11.524586
11.345158
11.184243
11.039863
10.910771
10.796022
10.694417
10.604758
10.52592
10.456827
10.396469
10.343898
10.298239
10.258687
10.224509
10.195047
10.169711
10.147976
10.129381
10.113519
10.100035
10.08862
10.079004
10.070956
10.064274
10.057372
10.050235
10.042851
10.035202
10.027276
10.019055
10.010525
10.002829
9.9967554
9.9920925
9.9886595
9.9863004
9.9848807
9.9842865
9.984421
9.9851981
9.9865424
9.9883985
9.9907258
9.9934694
9.9965644
31457.677
35688.811
19924.96
13510.542
9571.0149
6847.238
4932.8107
3588.1046
2635.6318
1953.4883
1457.878
1098.3692
829.73168
634.40486
480.31128
367.89557
278.35108
211.8766
162.52108
126.27037
99.324288
79.559955
64.847228
53.917977
45.718952
39.515344
34.733237
30.975223
27.98805
25.560404
23.53533
21.81369
20.329499
19.036426
17.901094
16.899112
16.012119
15.22576
14.528884
13.911639
13.366109
12.885125
12.462275
12.092015
11.769358
11.489509
11.248099
11.041344
10.86746
10.721674
10.599081
10.495977
10.410883
10.343719
10.29322
10.256719
10.230624
10.21104
10.194446
10.17882
10.162276
10.144735
10.123764
10.101791
10.07514
10.052139
10.025249
10.007871
9.9848196
9.9745879
9.9542952
9.9531995
9.934492
9.9433191
9.9265866
9.946218
9.9330955
9.9631332
9.9436502
9.9722706
35371.299
30528.494
23049.79
17050.24
12303.004
8762.6747
6256.6062
4495.929
3258.9929
2382.1603
1754.3276
1299.1797
966.96544
722.18138
541.47921
407.45124
307.99184
234.23542
179.51826
138.89651
108.72164
86.458999
69.904106
57.651326
48.487947
41.594649
36.315271
32.18177
28.924362
26.305554
24.138519
22.306719
20.735815
19.373266
18.18137
17.132723
16.20687
15.387817
14.663556
14.023222
13.458206
12.960771
12.52431
12.142509
11.810228
11.522391
11.274336
11.061795
10.883409
10.734132
10.607851
10.501611
10.41452
10.345871
10.29427
10.257105
10.230779
10.211275
10.194941
10.179629
10.163402
10.146159
10.125383
10.103549
10.076822
10.053718
10.026656
10.009188
9.9859582
9.9757694
9.9553768
9.9543372
9.9356115
9.9443656
9.9276993
9.9472563
9.9343284
9.9643538
9.9449176
9.9731733
39070.685
21455.474
13403.611
7888.9676
3943.6097
1749.1586
777.00999
391.5614
243.59597
177.70825
144.6572
122.00829
106.23451
92.743527
82.65746
73.874673
66.370198
60.189446
54.498158
49.794403
45.358624
41.743864
38.160543
35.225082
32.506577
30.13213
27.964484
25.974135
24.262535
22.708621
21.294268
20.014948
18.862956
17.826026
16.893062
16.054466
15.301757
14.62697
14.024633
13.487083
13.009435
12.586209
12.212667
11.88464
11.597888
11.348489
11.132771
10.947328
10.792813
10.662261
10.549722
10.455253
10.378806
10.319385
10.275496
10.244372
10.222327
10.205544
10.190669
10.176155
10.160191
10.14315
10.122099
10.100402
10.073313
10.051008
10.023839
10.007774
9.9842705
9.9755794
9.9546149
9.9551235
9.9355341
9.9457327
9.9279841
9.9488649
9.9350212
9.9660753
9.9457637
9.9743819
36190.175
25139.792
13869.5
6785.0332
2711.5256
953.17531
402.69902
240.50291
185.61619
151.80025
131.85362
113.41434
100.57556
88.163479
79.42257
71.231934
64.256941
58.517669
53.050482
48.62361
44.319201
40.818181
37.371916
34.474746
31.874009
29.530898
27.427881
25.544455
23.851753
22.327131
20.953505
19.716434
18.602608
17.599595
16.696717
15.884698
15.155382
14.501176
13.916288
13.39479
12.931104
12.520053
12.157168
11.838255
11.559332
11.316661
11.106695
10.926141
10.776087
10.647916
10.537638
10.445809
10.371617
10.31409
10.271771
10.241882
10.220755
10.204597
10.19014
10.175876
10.160085
10.143097
10.122084
10.100318
10.07329
10.050893
10.023949
10.007912
9.9847051
9.9763085
9.9553313
9.9561888
9.9364904
9.946973
9.9290942
9.9502325
9.9362118
9.9676518
9.9469406
9.9756428
38223.011
24460.241
13221.831
6305.9
2443.5319
843.98645
371.37244
231.44427
182.05801
149.21499
129.3265
110.90862
98.514583
86.519436
77.879614
69.494839
63.077031
57.073709
52.030586
47.438038
43.476085
39.847908
36.651121
33.771311
31.208695
28.923298
26.886679
25.062517
23.426788
21.95434
20.628596
19.434106
18.357486
17.386938
16.512476
15.725352
15.017852
14.382846
13.814898
13.308226
12.857447
12.457712
12.104714
11.794382
11.522889
11.286619
11.082136
10.906245
10.760306
10.634199
10.526752
10.437514
10.365478
10.30974
10.268889
10.240121
10.219809
10.204163
10.190035
10.175923
10.160248
10.143231
10.122243
10.100345
10.073402
10.050864
10.024188
10.007984
9.9852744
9.9765525
9.9561505
9.9566967
9.9374907
9.9477402
9.9301942
9.9512508
9.9373895
9.9690418
9.9481102
9.9769204
38757.003
23913.04
12659.622
5659.6629
1984.718
655.08155
318.01811
215.61322
176.53058
144.61311
126.55777
107.69267
96.152375
84.049918
75.83562
67.594774
61.486004
55.611744
50.750965
46.301407
42.450081
38.966891
35.858497
33.070069
30.597509
28.386653
26.41365
24.644677
23.058037
21.62971
20.343201
19.183429
18.137676
17.194602
16.344611
15.579288
14.891164
14.273443
13.720907
13.227761
12.78885
12.39959
12.055777
11.753458
11.488918
11.258651
11.05931
10.887793
10.745354
10.621713
10.517132
10.430269
10.360188
10.306073
10.266547
10.238789
10.219196
10.203994
10.19013
10.176127
10.160522
10.143447
10.122456
10.100412
10.073539
10.050858
10.024479
10.008386
9.9858389
9.9771926
9.9569665
9.9575219
9.9385148
9.9487089
9.9313159
9.9523567
9.938582
9.9704756
9.9492867
9.9782565
39696.098
23410.122
12010.57
5122.6927
1701.9122
563.6328
296.37345
209.18449
173.06166
142.11368
124.17189
105.80945
94.296506
82.378943
74.303389
66.139262
60.243195
54.462918
49.741597
45.386537
41.638587
38.228161
35.194997
32.475041
30.064856
27.911761
25.991829
24.270622
22.726699
21.3362
20.083597
18.95436
17.936061
17.017632
16.189734
15.444189
14.773724
14.171842
13.633465
13.152762
12.724841
12.345318
12.010067
11.715234
11.457203
11.232562
11.038045
10.87063
10.73115
10.610439
10.508554
10.423874
10.355593
10.302978
10.264675
10.237844
10.218898
10.204085
10.190435
10.1765
10.160927
10.143766
10.122751
10.100546
10.073735
10.050907
10.02483
10.008611
9.9864104
9.9775345
9.9578029
9.9581719
9.9395385
9.9495921
9.9324433
9.9534348
9.9397777
9.971888
9.9504641
9.9796215
40470.302
22781.684
11288.081