/*--------------------------------*- C++ -*----------------------------------*\
  =========                 |
  \\      /  F ield         | OpenFOAM: The Open Source CFD Toolbox
   \\    /   O peration     | Website:  https://openfoam.org
    \\  /    A nd           | Version:  6
     \\/     M anipulation  |
\*---------------------------------------------------------------------------*/
FoamFile
{
    version     2.0;
    format      ascii;
    class       volScalarField;
    location    "200";
    object      p;
}
// * * * * * * * * * * * * * * * * * * * * * * * * * * * * * * * * * * * * * //

dimensions      [1 -1 -2 0 0 0 0];

internalField   nonuniform List<scalar> 
16000
(
98460.876
98524.213
98528.811
98590.417
98603.544
98660.287
98683.227
98735.348
98766.904
98816.156
98854.367
98902.608
98945.711
98994.312
99041.016
99090.77
99140.208
99191.442
99243.014
99295.731
99348.964
99402.958
99457.411
99512.334
99567.54
99622.944
99678.388
99733.742
99788.849
99843.559
99897.707
99951.11
100003.64
100055.05
100105.14
100153.81
100200.89
100246.33
100289.95
100331.6
100371.17
100408.56
100443.69
100476.49
100506.89
100534.86
100560.37
100583.41
100603.98
100622.1
100637.79
100651.1
100662.05
100670.73
100677.18
100681.48
100683.7
100683.92
100682.22
100678.68
100673.37
100666.42
100657.82
100647.81
100636.16
100623.52
100608.85
100594.28
100575.99
100561.07
100536.85
100526.04
100488.33
100494.22
100420.9
100479.75
100314.04
100502.78
100154.73
100549.61
98485.354
98553.232
98557.837
98624.455
98637.85
98699.306
98723.281
98779.557
98812.941
98865.853
98906.485
98958.063
99003.938
99055.697
99105.33
99158.132
99210.518
99264.693
99319.132
99374.646
99430.583
99487.166
99544.08
99601.31
99658.654
99716.002
99773.178
99830.031
99886.386
99942.073
99996.91
100050.72
100103.33
100154.54
100204.22
100252.11
100298.1
100342.02
100383.85
100423.45
100460.7
100495.54
100527.9
100557.73
100585.02
100609.74
100631.91
100651.54
100668.67
100683.34
100695.61
100705.53
100713.18
100718.64
100721.98
100723.3
100722.67
100720.19
100715.93
100710
100702.46
100693.41
100682.91
100671.07
100657.87
100643.56
100627.81
100611.43
100592.95
100575.3
100552.93
100536.41
100505.51
100498.56
100442.44
100474.3
100342.47
100489.57
100180.71
100541.43
98529.746
98603.181
98607.799
98679.784
98693.865
98760.074
98785.631
98846.002
98881.721
98938.251
98981.705
99036.627
99085.56
99140.517
99193.266
99249.162
99304.6
99361.741
99419.077
99477.366
99535.964
99595.05
99654.302
99713.673
99772.943
99831.974
99890.572
99948.562
100005.75
100061.94
100116.95
100170.58
100222.65
100272.98
100321.39
100367.73
100411.85
100453.56
100492.76
100529.47
100563.59
100595.04
100623.81
100649.88
100673.27
100693.99
100712.08
100727.6
100740.62
100751.2
100759.44
100765.42
100769.23
100770.97
100770.74
100768.64
100764.77
100759.22
100752.08
100743.44
100733.39
100721.99
100709.34
100695.49
100680.49
100664.45
100647.27
100629.28
100609.92
100590.37
100568.25
100548.36
100520.71
100505.81
100460.53
100473.76
100365.94
100480.33
100205.04
100535.43
98596.35
98675.81
98680.384
98758.335
98773.164
98844.631
98871.963
98936.836
98975.183
99035.669
99082.273
99140.84
99193.15
99251.578
99307.72
99366.942
99425.65
99485.929
99546.305
99607.461
99668.766
99730.347
99791.874
99853.258
99914.263
99974.719
100034.41
100093.13
100150.68
100206.84
100261.41
100314.19
100364.98
100413.62
100459.93
100503.77
100545.01
100583.56
100619.29
100652.1
100682.1
100709.2
100733.4
100754.77
100773.33
100789.14
100802.3
100812.88
100821
100826.75
100830.25
100831.61
100830.96
100828.41
100824.07
100818.06
100810.49
100801.45
100791.04
100779.35
100766.46
100752.46
100737.39
100721.33
100704.33
100686.43
100667.65
100648.08
100627.53
100606.45
100583.86
100561.78
100535.54
100515.63
100477.1
100477.11
100387.88
100476.07
100228.22
100537.31
98684.798
98771.064
98775.613
98860.206
98875.989
98953.203
98982.662
99052.393
99093.784
99158.517
99208.679
99271.156
99327.192
99389.332
99449.141
99511.887
99574.05
99637.593
99701.092
99765.142
99829.124
99893.104
99956.74
100019.9
100082.33
100143.82
100204.13
100263.05
100320.33
100375.76
100429.11
100480.2
100528.83
100574.83
100618.05
100658.38
100695.71
100729.96
100761.12
100789.1
100813.89
100835.64
100854.32
100870.03
100882.88
100892.95
100900.37
100905.27
100907.79
100908.06
100906.23
100902.44
100896.82
100889.52
100880.66
100870.36
100858.75
100845.91
100831.95
100816.97
100801.02
100784.2
100766.55
100748.13
100728.98
100709.14
100688.61
100667.44
100645.56
100623.09
100599.67
100576.03
100550.17
100526.97
100492.82
100483.09
100408.29
100475.01
100250.99
100542.5
98795.751
98889.594
98894.167
98986.17
99003.164
99086.723
99118.751
99193.797
99238.763
99308.133
99362.364
99429.111
99489.311
99555.485
99619.298
99685.819
99751.658
99818.612
99885.324
99952.279
100018.87
100085.1
100150.61
100215.23
100278.65
100340.66
100400.99
100459.39
100515.62
100569.44
100620.64
100669.02
100714.41
100756.66
100795.65
100831.28
100863.51
100892.3
100917.64
100939.61
100958.15
100973.47
100985.63
100994.73
101000.96
101004.43
101005.33
101003.82
101000.07
100994.26
100986.54
100977.09
100966.07
100953.61
100939.87
100924.96
100909.01
100892.12
100874.39
100855.91
100836.74
100816.94
100796.58
100775.69
100754.31
100732.44
100710.11
100687.32
100664.03
100640.27
100615.87
100591.01
100564.99
100539.59
100508.29
100491.29
100428.34
100476.71
100273.92
100551.03
98928.927
99031.444
99036.337
99136.822
99155.508
99246.203
99281.447
99362.375
99411.59
99486.059
99544.955
99616.375
99681.208
99751.749
99819.893
99890.418
99960.11
100030.56
100100.49
100170.27
100239.29
100307.48
100374.47
100440.04
100503.85
100565.66
100625.18
100682.15
100736.3
100787.42
100835.29
100879.74
100920.61
100957.8
100991.23
101020.85
101046.66
101068.7
101087.01
101101.67
101112.9
101120.67
101125.27
101126.82
101125.54
101121.63
101115.28
101106.72
101096.13
101083.72
101069.67
101054.17
101037.39
101019.48
101000.59
100980.85
100960.38
100939.28
100917.64
100895.53
100873.04
100850.19
100827.05
100803.63
100779.97
100756.06
100731.9
100707.49
100682.79
100657.77
100632.35
100606.5
100580.05
100553.21
100523.74
100501.28
100448.31
100480.65
100297.86
100561.65
99087.76
99200.596
99205.922
99315.772
99336.39
99434.793
99473.771
99560.977
99615.031
99694.946
99759.03
99835.452
99905.319
99980.497
100053.23
100127.91
100201.54
100275.47
100348.5
100420.87
100491.97
100561.66
100629.54
100695.33
100758.69
100819.33
100876.95
100931.28
100982.08
101029.13
101072.24
101111.28
101146.14
101176.76
101203.12
101225.24
101243.2
101257.08
101267.03
101273.22
101275.84
101275.01
101271.05
101264.17
101254.6
101242.59
101228.38
101212.22
101194.32
101174.9
101154.18
101132.34
101109.56
101086.01
101061.81
101037.11
101012.01
100986.62
100961.01
100935.25
100909.39
100883.48
100857.54
100831.6
100805.67
100779.73
100753.77
100727.77
100701.69
100675.49
100649.08
100622.39
100595.39
100567.66
100539.31
100512.9
100468.38
100486.54
100322.73
100574.44
99274.032
99398.542
99403.971
99524.26
99547.2
99653.973
99697.377
99791.345
99850.964
99936.76
100006.64
100088.46
100163.79
100243.89
100321.44
100400.38
100477.95
100555.23
100631.1
100705.64
100778.27
100848.74
100916.64
100981.64
101043.38
101101.55
101155.86
101206.05
101251.88
101293.18
101329.82
101361.71
101388.82
101411.15
101428.77
101441.78
101450.35
101454.63
101454.87
101451.31
101444.15
101433.77
101420.37
101404.26
101385.71
101365.02
101342.45
101318.27
101292.72
101266.03
101238.42
101210.09
101181.2
101151.92
101122.37
101092.69
101062.97
101033.3
101003.74
100974.36
100945.19
100916.26
100887.59
100859.19
100831.04
100803.13
100775.44
100747.92
100720.54
100693.23
100665.91
100638.52
100610.97
100582.77
100555.03
100525.95
100488.64
100494.11
100349.07
100588.97
99487.181
99625.114
99631.024
99763.162
99789.186
99905.25
99954.06
100055.46
100121.56
100213.8
100290.19
100377.85
100459.11
100544.4
100626.94
100710.16
100791.51
100871.83
100950.04
101026.09
101099.37
101169.58
101236.27
101299.07
101357.64
101411.65
101460.84
101504.96
101543.86
101577.41
101605.56
101628.3
101645.69
101657.84
101664.92
101667.14
101664.73
101657.98
101647.21
101632.72
101614.81
101593.95
101570.33
101544.34
101516.27
101486.46
101455.19
101422.74
101389.36
101355.29
101320.73
101285.88
101250.9
101215.94
101181.11
101146.54
101112.3
101078.46
101045.08
101012.19
100979.83
100948.01
100916.72
100885.96
100855.71
100825.94
100796.62
100767.69
100739.12
100710.81
100682.69
100654.71
100626.7
100598.36
100570.88
100540.31
100509.03
100503.16
100377.16
100604.06
99729.789
99883.167
99889.714
100035.19
100065.1
100191.39
100246.7
100356.22
100429.81
100529.09
100612.71
100706.66
100794.23
100884.89
100972.44
101059.74
101144.49
101227.23
101306.94
101383.42
101456.07
101524.5
101588.26
101646.98
101700.31
101747.99
101789.77
101825.5
101855.1
101878.55
101895.89
101907.24
101912.79
101912.76
101907.43
101897.14
101882.24
101863.09
101840.11
101813.67
101784.19
101752.12
101717.69
101681.36
101643.45
101604.29
101564.19
101523.41
101482.2
101440.8
101399.4
101358.16
101317.25
101276.79
101236.88
101197.61
101159.05
101121.24
101084.24
101048.05
101012.68
100978.14
100944.4
100911.46
100879.27
100847.8
100816.99
100786.8
100757.17
100728
100699.23
100670.8
100642.46
100614.24
100586.8
100555.79
100529.38
100513.72
100407.12
100619.53
100003.02
100174.51
100182.17
100342.8
100377.77
100515.4
100578.58
100697.04
100779.24
100886.2
100977.76
101078.4
101172.52
101268.55
101360.85
101451.74
101539.09
101623.19
101703.04
101778.33
101848.45
101912.99
101971.49
102023.61
102069.08
102107.67
102139.27
102163.82
102181.37
102192.05
102196.04
102193.62
102185.1
102170.86
102151.32
102126.92
102098.12
102065.4
102029.23
101990.06
101948.38
101904.6
101859.08
101812.24
101764.4
101715.91
101667.06
101618.1
101569.26
101520.76
101472.77
101425.44
101378.9
101333.24
101288.54
101244.88
101202.3
101160.82
101120.47
101081.24
101043.12
101006.1
100970.15
100935.24
100901.31
100868.33
100836.23
100804.95
100774.42
100744.56
100715.3
100686.56
100658.08
100630.15
100602.68
100572.12
100549.43
100525.66
100437.79
100634.38
100310.62
100503.16
100512.44
100690.14
100731.52
100881.62
100954.16
101082.36
101174.28
101289.51
101389.58
101497.09
101597.73
101698.76
101795.12
101888.55
101977.12
102060.85
102138.78
102210.52
102275.46
102333.2
102383.36
102425.68
102459.97
102486.16
102504.29
102514.46
102516.92
102511.94
102499.93
102481.3
102456.56
102426.22
102390.83
102350.96
102307.16
102259.98
102209.97
102157.61
102103.42
102047.82
101991.21
101933.94
101876.37
101818.81
101761.52
101704.74
101648.67
101593.48
101539.33
101486.33
101434.57
101384.14
101335.07
101287.42
101241.19
101196.4
101153.05
101111.1
101070.55
101031.35
100993.46
100956.83
100921.42
100887.15
100853.97
100821.8
100790.58
100760.21
100730.64
100701.74
100673.34
100645.83
100618.39
100588.97
100568.93
100538.74
100467.96
100648.13
100656.04
100873.1
100884.7
101081.6
101131.06
101294.8
101378.42
101517.18
101619.91
101743.89
101852.77
101967.03
102073.68
102178.79
102277.84
102372.02
102459.56
102540.29
102613.28
102678.12
102734.28
102781.43
102819.32
102847.84
102867
102876.93
102877.88
102870.2
102854.33
102830.8
102800.19
102763.11
102720.23
102672.21
102619.71
102563.4
102503.89
102441.81
102377.71
102312.09
102245.5
102178.33
102110.92
102043.65
101976.81
101910.69
101845.51
101781.48
101718.75
101657.45
101597.71
101539.59
101483.17
101428.47
101375.54
101324.36
101274.95
101227.28
101181.32
101137.05
101094.41
101053.36
101013.85
100975.8
100939.17
100903.87
100869.85
100837.03
100805.32
100774.65
100744.96
100716.09
100687.98
100660.99
100633.75
100606.02
100587.74
100552.91
100497.36
100661.27
101043.44
101289.21
101304.19
101522.69
101582.38
101760.95
101857.53
102007.57
102121.98
102254.89
102372.42
102492.68
102604.08
102711.44
102810.77
102902.79
102985.88
103059.73
103123.55
103176.97
103219.62
103251.36
103272.17
103282.2
103281.72
103271.15
103251.02
103221.96
103184.67
103139.9
103088.43
103031.07
102968.62
102901.85
102831.52
102758.34
102682.97
102606.03
102528.09
102449.61
102371.12
102293
102215.48
102138.91
102063.55
101989.63
101917.32
101846.78
101778.12
101711.43
101646.78
101584.21
101523.75
101465.4
101409.16
101355
101302.9
101252.82
101204.71
101158.53
101114.2
101071.66
101030.86
100991.72
100954.16
100918.12
100883.51
100850.27
100818.31
100787.56
100757.95
100729.31
100701.7
100675.3
100648.51
100622.83
100605.54
100567.84
100526.04
100673.39
101478.23
101757.68
101777.55
102020.14
102092.54
102287.03
102398.73
102560.76
102687.14
102828.48
102953.64
103078.11
103191.72
103298.15
103393.88
103479.27
103552.9
103614.49
103663.44
103699.6
103722.88
103733.46
103731.67
103718
103693.11
103657.76
103612.79
103559.15
103497.77
103429.64
103355.71
103276.93
103194.19
103108.32
103020.13
102930.31
102839.53
102748.37
102657.35
102566.86
102477.43
102389.34
102302.67
102217.79
102134.88
102054.11
101975.6
101899.46
101825.73
101754.47
101685.69
101619.41
101555.6
101494.25
101435.32
101378.76
101324.51
101272.53
101222.74
101175.08
101129.46
101085.83
101044.1
101004.18
100966.02
100929.51
100894.6
100861.19
100829.21
100798.6
100769.25
100741.05
100714.13
100688.39
100662.37
100638.9
100621.88
100583.14
100554.4
100683.87
101967.78
102286.45
102313.04
102581.86
102669.66
102880.86
103009.52
103184.08
103322.12
103470.06
103600.4
103725.72
103837.25
103937.66
104023.95
104096.28
104153.59
104195.78
104222.65
104234.43
104231.51
104214.5
104184.22
104141.62
104087.76
104023.78
103950.86
103870.2
103782.96
103690.29
103593.24
103492.83
103389.97
103285.51
103180.2
103074.7
102969.6
102865.43
102762.57
102661.36
102562.32
102465.52
102370.94
102278.95
102189.64
102103.14
102019.49
101938.73
101860.88
101785.94
101713.87
101644.65
101578.24
101514.57
101453.58
101395.21
101339.37
101286
101235.01
101186.32
101139.84
101095.49
101053.18
101012.84
100974.37
100937.7
100902.74
100869.42
100837.66
100807.4
100778.53
100750.96
100724.88
100699.91
100674.97
100653.72
100636.52
100598.34
100581.44
100692.39
102518.94
102883.9
102920.68
103218.59
103326.63
103555.91
103700.34
103883.26
104031.98
104183.64
104314.65
104435.25
104537.89
104624.61
104693.07
104743.54
104775.54
104789.44
104785.68
104765.07
104728.63
104677.59
104613.27
104537.13
104450.64
104355.28
104252.48
104143.63
104030.03
103912.85
103793.2
103672.05
103550.26
103428.59
103307.7
103188.14
103070.41
102954.9
102841.86
102731.6
102624.55
102520.48
102419.41
102321.66
102227.25
102136.22
102048.55
101964.24
101883.25
101805.54
101731.03
101659.67
101591.38
101526.08
101463.67
101404.08
101347.2
101292.95
101241.23
101191.95
101145.01
101100.33
101057.8
101017.35
100978.89
100942.34
100907.6
100874.61
100843.3
100813.6
100785.39
100758.66
100733.55
100709.47
100685.9
100666.79
100649.29
100612.96
100606.15
100698.82
103143.35
103562.97
103615.37
103942.83
104073.7
104317.54
104479.12
104670.39
104823.2
104972.13
105095.48
105201.88
105285.16
105347.1
105386.34
105403.67
105399.5
105374.99
105331.43
105270.41
105193.67
105103.06
105000.45
104887.69
104766.57
104638.78
104505.89
104369.33
104230.37
104090.15
103949.66
103809.75
103671.14
103534.46
103400.2
103268.77
103140.54
103015.74
102894.48
102777.05
102663.71
102553.97
102447.97
102345.9
102247.7
102153.36
102062.82
101976.01
101892.85
101813.27
101737.16
101664.44
101594.99
101528.71
101465.5
101405.26
101347.86
101293.22
101241.22
101191.77
101144.77
101100.11
101057.7
101017.46
100979.29
100943.11
100908.85
100876.42
100845.76
100816.8
100789.44
100763.72
100739.7
100716.62
100694.68
100677.6
100659.87
100626.31
100627.24
100702.52
103868.95
104350.01
104423.36
104775.53
104925.75
105179.38
105353.48
105546.72
105695.24
105830.01
105932.9
106011.1
106060.49
106083.2
106079.31
106050.6
105998.68
105925.74
105834.05
105726.02
105604.06
105470.53
105327.68
105177.58
105022.14
104863.07
104701.86
104539.83
104378.1
104217.62
104059.17
103903.42
103750.89
103601.99
103457.05
103316.31
103180
103048.14
102920.76
102798.15
102680.31
102566.57
102457.16
102352.15
102251.46
102155
102062.68
101974.38
101889.99
101809.4
101732.49
101659.12
101589.18
101522.56
101459.11
101398.74
101341.32
101286.74
101234.88
101185.65
101138.93
101094.63
101052.65
101012.9
100975.29
100939.74
100906.16
100874.5
100844.69
100816.64
100790.29
100765.71
100742.83
100720.9
100700.77
100685.51
100667.45
100636.63
100644.83
100704.24
104711.31
105248.6
105334.64
105702.36
105890.18
106166.36
106334.7
106512.22
106638.98
106740.6
106803.87
106834.96
106832.38
106799.24
106737.45
106650.11
106540.21
106410.99
106265.6
106107.08
105938.25
105761.72
105579.79
105394.51
105207.63
105020.65
104834.83
104651.19
104470.58
104293.67
104121
103952.96
103789.86
103631.89
103479.18
103331.87
103189.96
103053.31
102921.93
102796.16
102675.53
102559.32
102447.93
102341.31
102239.34
102141.89
102048.81
101959.96
101875.2
101794.39
101717.38
101644.04
101574.23
101507.81
101444.65
101384.63
101327.63
101273.51
101222.18
101173.51
101127.4
101083.76
101042.48
101003.47
100966.65
100931.93
100899.25
100868.53
100839.71
100812.72
100787.5
100764.15
100742.45
100721.81
100703.55
100689.68
100671.45
100644.61
100658.64
100702.77
105665.81
106259.44
106390.42
106804.01
106987.45
107238.6
107396.13
107536.06
107619.68
107665.3
107666.26
107629.17
107555.81
107451
107318.72
107163.47
106989.41
106800.54
106600.49
106392.49
106179.35
105963.52
105747.01
105531.51
105318.41
105108.79
104903.53
104703.28
104508.54
104319.66
104136.9
103960.4
103790.23
103626.39
103468.87
103317.63
103172.5
103033.22
102899.94
102772.84
102650.81
102533.56
102421.56
102314.56
102212.43
102114.98
102022.06
101933.5
101849.13
101768.8
101692.34
101619.61
101550.47
101484.75
101422.34
101363.09
101306.89
101253.6
101203.11
101155.31
101110.1
101067.36
101027.02
100988.97
100953.13
100919.43
100887.8
100858.17
100830.47
100804.63
100780.65
100758.59
100738.12
100718.89
100702.48
100689.65
100671.89
100649.76
100666.44
100697.53
106799.68
107462.43
107621
108013.64
108197.15
108405.05
108514.21
108585.02
108591.75
108551.73
108464.19
108337.74
108177.34
107989.59
107780.01
107553.98
107316.1
107070.46
106820.47
106568.99
106318.33
106070.35
105826.49
105587.89
105355.36
105129.53
104910.8
104699.43
104495.59
104299.32
104110.61
103929.38
103755.5
103588.81
103429.2
103276.46
103130.24
102990.35
102857.06
102729.99
102607.9
102491.04
102379.56
102273.24
102171.89
102075.33
101983.36
101895.81
101812.49
101733.24
101657.89
101586.28
101518.26
101453.67
101392.39
101334.28
101279.2
101227.04
101177.68
101131.01
101086.92
101045.32
101006.1
100969.19
100934.5
100901.96
100871.5
100843.06
100816.58
100791.98
100769.3
100748.53
100729.32
100711.6
100696.9
100684.9
100668.27
100650.87
100667.2
100688.14
108163.38
108840.34
109001.4
109346.8
109478.2
109598.31
109613.31
109574.78
109470.08
109317.33
109121.48
108893.07
108639.28
108367.55
108083.8
107793.16
107499.75
107206.87
106917.09
106632.38
106354.19
106083.58
105821.27
105567.74
105323.26
105087.95
104861.82
104644.78
104436.68
104237.33
104046.51
103863.96
103689.4
103522.58
103363.29
103211.15
103065.73
102927.06
102795.34
102669.45
102548.52
102433.14
102323.19
102218.46
102118.74
102023.81
101933.48
101847.56
101765.86
101688.21
101614.43
101544.37
101477.87
101414.79
101354.97
101298.3
101244.63
101193.86
101145.86
101100.53
101057.76
101017.46
100979.54
100943.91
100910.49
100879.22
100850.03
100822.85
100797.64
100774.33
100752.96
100733.46
100715.53
100699.33
100686.11
100674.81
100659.73
100646.74
100661.5
100673.54
109703.68
110350.17
110469.37
110705.8
110729.82
110707.67
110581.91
110398.1
110156.67
109876.73
109567.16
109238.84
108899.22
108554.84
108210.5
107869.95
107535.88
107210.22
106894.3
106588.98
106294.74
106011.83
105740.28
105480
105230.77
104992.34
104764.39
104546.57
104338.51
104139.86
103950.25
103769.29
103596.63
103431.97
103274.97
103125.14
102982.15
102846.29
102717.22
102593.34
102474.66
102361.71
102254.12
102151.74
102054.31
101961.63
101873.49
101789.7
101710.07
101634.42
101562.59
101494.43
101429.76
101368.45
101310.37
101255.37
101203.33
101154.15
101107.69
101063.86
101022.56
100983.7
100947.18
100912.92
100880.86
100850.92
100823.04
100797.17
100773.24
100751.23
100731.14
100712.88
100696.22
100681.45
100669.49
100658.84
100645.6
100636.28
100648.31
100653.76
111321.49
111897.95
111921
111960.84
111809.76
111592.86
111292.29
110947.15
110566.89
110168.54
109761.08
109352.93
108949.38
108554.48
108170.79
107800.02
107443.13
107100.59
106772.5
106458.75
106159.01
105872.91
105599.96
105339.66
105091.48
104854.91
104629.43
104414.52
104209.71
104014.54
103828.53
103651.26
103482.34
103321.46
103168.12
103021.8
102882.56
102750.54
102624.51
102503.45
102387.96
102278.04
102173.44
102073.92
101979.27
101889.27
101803.72
101722.43
101645.2
101571.88
101502.29
101436.27
101373.69
101314.39
101258.23
101205.1
101154.88
101107.43
101062.67
101020.48
100980.77
100943.45
100908.42
100875.63
100844.99
100816.43
100789.91
100765.36
100742.73
100721.99
100703.15
100686.08
100670.65
100657.21
100646.27
100636.3
100624.98
100618.5
100627.65
100628.34
113105.04
113270.62
113097.84
112841.79
112463.92
112035.35
111566.51
111083.56
110596.68
110116.33
109647.77
109194.92
108759.72
108343.21
107945.67
107566.94
107206.51
106863.68
106537.72
106227.82
105933.19
105653.05
105386.64
105133.24
104892.16
104662.77
104444.44
104236.6
104038.73
103850.31
103670.86
103499.92
103337.16
103182.15
103034.3
102893.36
102759.65
102632.66
102510.73
102393.87
102282.71
102176.89
102076.22
101980.47
101889.4
101802.83
101720.55
101642.39
101568.16
101497.69
101430.84
101367.45
101307.38
101250.48
101196.64
101145.72
101097.61
101052.21
101009.4
100969.09
100931.18
100895.59
100862.24
100831.05
100801.96
100774.89
100749.8
100726.63
100705.33
100685.87
100668.25
100652.34
100638.09
100625.82
100615.72
100606.46
100596.96
100592.49
100598.82
100596.16
114238.79
113994.44
113573.68
113070.39
112518.62
111955.18
111393.94
110847.47
110320.57
109816.64
109336.55
108880.45
108447.7
108037.38
107648.38
107279.59
106929.93
106598.28
106283.59
105984.84
105701.08
105431.45
105175.12
104931.35
104699.42
104478.69
104268.55
104068.44
103877.85
103696.26
103523.22
103358.36
103201.34
103051.64
102908.79
102772.96
102644.18
102520.94
102402.56
102289.69
102182.22
102079.96
101982.65
101890.08
101802.06
101718.38
101638.86
101563.32
101491.6
101423.54
101358.99
101297.79
101239.82
101184.95
101133.04
101083.98
101037.65
100993.96
100952.8
100914.07
100877.68
100843.56
100811.61
100781.77
100753.97
100728.15
100704.25
100682.21
100662.01
100643.6
100626.95
100611.98
100598.68
100587.24
100577.68
100569.14
100561.34
100557.53
100560.01
100557.34
113760.43
113411.2
112927.18
112376.06
111808.53
111245.84
110699.26
110174.84
109674.54
109199.16
108748.2
108320.85
107915.93
107532.26
107168.59
106823.66
106496.35
106185.68
105890.66
105610.39
105344.02
105090.76
104849.85
104620.63
104402.44
104194.71
103996.87
103808.44
103628.93
103457.91
103294.97
103139.77
102991.87
102850.76
102716.3
102588.66
102467.08
102350.35
102238.64
102132.29
102031.02
101934.66
101842.97
101755.77
101672.86
101594.06
101519.21
101448.13
101380.68
101316.7
101256.04
101198.59
101144.2
101092.74
101044.11
100998.19
100954.87
100914.05
100875.64
100839.54
100805.66
100773.93
100744.26
100716.59
100690.85
100666.98
100644.92
100624.63
100606.05
100589.16
100573.92
100560.26
100548.2
100537.81
100529.04
100521.52
100515.27
100511.61
100511.25
100509.88
110619.88
111024.32
110915.46
110699.85
110369.31
110000.45
109606.48
109208.1
108811.95
108424.48
108048.32
107685.4
107336.46
107001.84
106681.47
106375.11
106082.29
105802.51
105535.24
105279.96
105036.13
104803.24
104580.81
104368.35
104165.42
103971.59
103786.46
103609.64
103440.77
103279.51
103125.56
102978.6
102838.13
102703.9
102576.15
102454.68
102338.05
102226.04
102119.24
102017.36
101920.28
101827.79
101739.71
101655.87
101576.11
101500.26
101428.18
101359.71
101294.71
101233.04
101174.58
101119.18
101066.75
101017.15
100970.27
100926.02
100884.28
100844.96
100807.96
100773.21
100740.61
100710.09
100681.56
100654.96
100630.23
100607.3
100586.11
100566.62
100548.78
100532.54
100517.87
100504.74
100493.12
100483.03
100474.41
100467.18
100461.39
100457.28
100454.93
100453.87
111469.66
111521.51
111376.56
111074.15
110635
110125
109572.8
109002.23
108419.67
107842.17
107274.75
106719.49
106191.58
105679.07
105194.44
104748.6
104329.39
103959.73
103626.8
103331.28
103069.46
102839.81
102635.85
102458.5
102301.17
102161.71
102038.79
101926.28
101823.85
101734.51
101655.94
101584.03
101517.31
101454.83
101395.92
101340.08
101286.97
101236.39
101188.14
101142.07
101098.14
101056.23
101016.25
100978.28
100942.3
100908.19
100875.92
100845.44
100816.68
100789.61
100764.13
100740.22
100717.74
100696.71
100676.88
100658.4
100640.74
100624.43
100608.29
100593.82
100578.33
100565.6
100549.55
100538.99
100520.56
100513.56
100489.52
100489.39
100454.44
100467.32
100412.29
100449.04
100359.58
100437.19
100292.29
100436
100205.19
100449.08
100094.91
100483.64
96306.445
96540.919
97012.531
97522.447
98056.736
98610.235
99076.15
99479.182
99856.951
100194.02
100484.95
100738.45
100954.84
101139.38
101293.61
101419.72
101522.67
101603.05
101663.84
101705.25
101731.99
101745.51
101744.69
101735.92
101716.07
101685.69
101650.6
101610.71
101569.46
101527.9
101482.78
101436.71
101389.79
101342.45
101295.45
101249.32
101204.33
101160.76
101118.67
101078.19
101039.42
101002.37
100967.05
100933.38
100901.38
100871.02
100842.25
100815.05
100789.37
100765.18
100742.4
100721
100700.86
100681.97
100664.1
100647.38
100631.31
100616.39
100601.53
100588.13
100573.72
100561.77
100546.74
100536.63
100519.28
100512.27
100489.69
100488.83
100456.03
100467.19
100415.23
100449.18
100363.57
100437.94
100296.18
100437.54
100207.9
100453.12
100094.81
100490.34
104196.92
104235.4
104230.6
104191.97
104120.43
104026.41
103915.2
103791.9
103659.49
103522.96
103383.05
103244.13
103105.08
102968.8
102835.49
102708.32
102583.58
102468.47
102356.5
102256.25
102159.41
102068.8
101982.75
101900.99
101826.61
101763.7
101697.89
101642.73
101588.45
101527.51
101468.12
101412.16
101359.19
101308.89
101260.99
101215.25
101171.5
101129.6
101089.4
101050.89
101014.09
100978.92
100945.41
100913.44
100883.03
100854.13
100826.74
100800.81
100776.32
100753.24
100731.5
100711.1
100691.9
100673.94
100656.96
100641.14
100625.94
100611.89
100597.83
100585.22
100571.49
100560.19
100545.68
100536.04
100519.12
100512.37
100490.18
100489.32
100456.92
100467.76
100416.79
100449.5
100365.8
100437.72
100299.06
100437.32
100210.88
100453.59
100097.11
100492.51
101409.76
101412.17
101419.47
101434.88
101455.63
101479.09
101504.05
101530.79
101556.31
101582.43
101606.06
101628.88
101648.23
101665.25
101677.99
101687.99
101693.02
101694.15
101690.1
101681.5
101667.71
101649.36
101629.32
101604.48
101574.86
101541.68
101505.43
101466.94
101427.48
101388.02
101348.04
101307.99
101268.11
101228.56
101189.53
101151.23
101113.77
101077.31
101041.92
101007.71
100974.76
100943.1
100912.78
100883.8
100856.17
100829.88
100804.93
100781.31
100758.98
100737.93
100718.09
100699.45
100681.88
100665.42
100649.8
100635.22
100621.11
100608.08
100594.89
100583.11
100570.07
100559.48
100545.5
100536.49
100519.89
100513.74
100491.78
100491.38
100458.94
100470.31
100418.87
100452.41
100367.83
100440.89
100300.93
100440.27
100212.6
100456.69
100098.45
100495.52
101831.37
101839.81
101841.18
101839.84
101834.63
101828.43
101818.99
101811.28
101801.12
101791.83
101780.03
101767.44
101752.6
101738.74
101721.79
101703.89
101684.49
101661.52
101638.57
101611.07
101584.43
101552.78
101521.92
101488.77
101454.37
101419.92
101385.4
101351.16
101316.9
101282.43
101247.95
101213.65
101179.63
101146.02
101112.91
101080.38
101048.51
101017.38
100987.03
100957.57
100929.05
100901.51
100875.01
100849.58
100825.24
100802.01
100779.9
100758.92
100739.03
100720.25
100702.5
100685.79
100670.01
100655.19
100641.08
100627.88
100615.03
100603.15
100591.02
100580.18
100568
100558.17
100544.86
100536.43
100520.34
100514.59
100492.87
100492.82
100460.61
100472.11
100421.01
100454.35
100370.19
100442.8
100303.39
100442.37
100214.88
100458.97
100100.15
100497.99
101271.38
101277.31
101283.3
101291.34
101298.56
101305.68
101310.86
101317.73
101321.53
101328.07
101329.92
101334.81
101335.28
101335.92
101333.41
101330.93
101325.74
101320.12
101312.38
101304.26
101293.92
101283.16
101270.31
101256.38
101240.68
101223.58
101204.96
101185.06
101163.95
101141.88
101118.94
101095.32
101071.14
101046.58
101021.79
100996.92
100972.1
100947.49
100923.16
100899.28
100875.93
100853.2
100831.16
100809.88
100789.41
100769.78
100751.02
100733.15
100716.16
100700.06
100684.8
100670.38
100656.71
100643.82
100631.47
100619.87
100608.48
100597.89
100586.93
100577.13
100565.9
100556.86
100544.3
100536.46
100520.94
100515.6
100494.31
100494.5
100462.71
100474.18
100423.25
100456.62
100372.55
100445.14
100305.74
100444.72
100217.05
100461.34
100101.77
100500.39
101070.74
101078.47
101084.74
101091.47
101099.1
101105.45
101111.45
101117.34
101120
101125.2
101125.82
101129.88
101129.3
101132.11
101130.85
101131.65
101129.58
101127.46
101122.96
101118.53
101112.33
101105.51
101097.25
101088.16
101077.79
101066.55
101054.22
101041.03
101026.93
101012.03
100996.35
100980
100963.04
100945.6
100927.76
100909.63
100891.31
100872.93
100854.51
100836.27
100818.27
100800.59
100783.31
100766.5
100750.22
100734.52
100719.42
100704.97
100691.15
100677.99
100665.45
100653.54
100642.17
100631.38
100620.96
100611.1
100601.3
100592.12
100582.45
100573.77
100563.56
100555.37
100543.64
100536.38
100521.52
100516.52
100495.74
100496.07
100464.67
100476.1
100425.67
100458.7
100375.15
100447.24
100308.33
100446.88
100219.38
100463.58
100103.46
100502.62
100788.08
100795.88
100802.38
100809.9
100817.76
100825.95
100832.67
100842.06