/*--------------------------------*- C++ -*----------------------------------*\
  =========                 |
  \\      /  F ield         | OpenFOAM: The Open Source CFD Toolbox
   \\    /   O peration     | Website:  https://openfoam.org
    \\  /    A nd           | Version:  6
     \\/     M anipulation  |
\*---------------------------------------------------------------------------*/
FoamFile
{
    version     2.0;
    format      ascii;
    class       surfaceScalarField;
    location    "200";
    object      phi;
}
// * * * * * * * * * * * * * * * * * * * * * * * * * * * * * * * * * * * * * //

dimensions      [1 0 -1 0 0 0 0];

internalField   nonuniform List<scalar> 
31760
(
-0.00059633601
-0.039683089
0.040279424
-0.0013299829
-0.04443199
0.045165637
-0.0020842804
-0.045441723
0.046196019
-0.0028931111
-0.048179189
0.048988019
-0.0037203507
-0.050015198
0.050842436
-0.0046045632
-0.052578728
0.05346294
-0.0055170029
-0.054838433
0.055750871
-0.0064831681
-0.057477888
0.058444053
-0.0074862813
-0.060050068
0.06105318
-0.0085425874
-0.062862862
0.063919167
-0.009643755
-0.065719908
0.066821074
-0.010799783
-0.068760972
0.069916999
-0.012006857
-0.071904193
0.073111265
-0.013271534
-0.075213498
0.076478174
-0.014593152
-0.078658233
0.079979848
-0.015976155
-0.082269431
0.083652434
-0.017421299
-0.086039804
0.087484946
-0.018931794
-0.089986196
0.09149669
-0.020509249
-0.094111812
0.095689265
-0.022156507
-0.09842835
0.10007561
-0.023875473
-0.10294345
0.10466241
-0.025668993
-0.10766773
0.10946125
-0.027538816
-0.112611
0.11448082
-0.029487725
-0.11778408
0.11973299
-0.031518039
-0.1231978
0.12522811
-0.033631948
-0.12886434
0.13097825
-0.035832063
-0.13479504
0.13699515
-0.038121092
-0.141003
0.14329203
-0.040501198
-0.14750124
0.14988134
-0.042974462
-0.15430381
0.15677707
-0.045543326
-0.16142501
0.16399387
-0.048209497
-0.16888087
0.17154704
-0.050972879
-0.17668714
0.17945052
-0.053833841
-0.18486211
0.18772308
-0.056793029
-0.19342214
0.19638133
-0.059851068
-0.20238835
0.20544639
-0.063009097
-0.21178041
0.21493844
-0.066264375
-0.2216236
0.22487888
-0.069614634
-0.23194056
0.23529082
-0.073056792
-0.242756
0.24619816
-0.076587388
-0.25409625
0.25762684
-0.080201571
-0.26598885
0.26960303
-0.083894349
-0.27846237
0.28215514
-0.087659164
-0.29154815
0.29531296
-0.091489102
-0.30527742
0.30910736
-0.095376067
-0.31968432
0.32357128
-0.099310235
-0.33480377
0.33873794
-0.10328115
-0.35067309
0.35464401
-0.10727668
-0.36733091
0.37132643
-0.11128246
-0.38481857
0.38882435
-0.11528322
-0.40317841
0.40717917
-0.11926083
-0.42245579
0.42643339
-0.1231953
-0.4426979
0.44663237
-0.12706367
-0.46395451
0.46782288
-0.13084087
-0.48627716
0.49005436
-0.13449796
-0.50972079
0.51337789
-0.13800298
-0.53434275
0.53784777
-0.14131923
-0.56020349
0.56351974
-0.14440638
-0.58736498
0.59045214
-0.14721853
-0.61589345
0.61870559
-0.1497042
-0.64585832
0.64834399
-0.15180565
-0.67733052
0.67943197
-0.15345926
-0.71038683
0.71204043
-0.15459088
-0.74510391
0.74623554
-0.1551236
-0.78156703
0.78209974
-0.15496017
-0.81985794
0.81969451
-0.15401221
-0.86007588
0.85912793
-0.15214187
-0.90228682
0.90041648
-0.1492713
-0.94662914
0.94375857
-0.14517537
-0.99309693
0.989001
-0.13984362
-1.0419614
1.0366297
-0.13285926
-1.0929836
1.0859993
-0.1244429
-1.1469043
1.1384879
-0.11373441
-1.2026732
1.1919647
-0.10150019
-1.2624913
1.2502571
-0.085997493
-1.3225772
1.3070745
-0.069007417
-1.3896334
1.3726433
-0.047660884
-1.4526995
1.431353
-0.024402376
-1.528505
1.5052464
-1.5953345
1.5669739
-0.0005738319
-0.039109256
-0.001258492
-0.043747329
-0.001969389
-0.044730825
-0.0027302817
-0.047418295
-0.0035141263
-0.049231352
-0.0043472885
-0.051745565
-0.0052107996
-0.053974922
-0.0061236762
-0.056565011
-0.0070742637
-0.05909948
-0.0080749969
-0.061862128
-0.009119993
-0.064674911
-0.010217546
-0.067663418
-0.011365173
-0.070756566
-0.012568879
-0.07400979
-0.013827771
-0.077399341
-0.015146447
-0.080950754
-0.016525641
-0.08466061
-0.017968757
-0.088543079
-0.019477371
-0.092603198
-0.02105424
-0.09685148
-0.022701416
-0.10129627
-0.024421329
-0.10594782
-0.026216787
-0.11081554
-0.028089913
-0.11591095
-0.030043153
-0.12124456
-0.032079437
-0.12682805
-0.034201234
-0.13267324
-0.036411149
-0.13879309
-0.038711261
-0.14520112
-0.041104254
-0.15191081
-0.043591951
-0.15893731
-0.046176064
-0.16629675
-0.048857805
-0.1740054
-0.051637862
-0.18208206
-0.054514896
-0.19054511
-0.057488197
-0.19941505
-0.060556361
-0.20871225
-0.063721141
-0.21845882
-0.066979772
-0.22868193
-0.070328696
-0.23940708
-0.073764562
-0.25066038
-0.077283141
-0.26247027
-0.080879214
-0.27486629
-0.084547253
-0.28788011
-0.088280493
-0.30154418
-0.092071465
-0.31589334
-0.095911162
-0.33096407
-0.099789769
-0.34679448
-0.10369576
-0.36342491
-0.10761667
-0.38089766
-0.11153769
-0.39925739
-0.11544273
-0.41855075
-0.11931342
-0.4388272
-0.12312904
-0.46013889
-0.12686625
-0.48253995
-0.13049898
-0.50608807
-0.13399773
-0.530844
-0.13733014
-0.55687107
-0.14045853
-0.58423659
-0.14334126
-0.61301072
-0.14593241
-0.64326716
-0.14817872
-0.67508422
-0.15002256
-0.70854298
-0.15139697
-0.7437295
-0.15222964
-0.78073436
-0.15243803
-0.81964956
-0.1519323
-0.86058161
-0.15060246
-0.90361667
-0.14835139
-0.94888021
-0.14501328
-0.99643504
-0.14051582
-1.0464589
-0.13458262
-1.0989168
-0.12724884
-1.1542381
-0.11797724
-1.2119448
-0.10712173
-1.2733469
-0.093540035
-1.3361589
-0.078300133
-1.4048733
-0.059351712
-1.4716479
-0.038571354
-1.5492854
-1.6206332
-0.00053651533
-0.038572741
-0.001190657
-0.043093188
-0.0018557581
-0.044065725
-0.0025773804
-0.046696673
-0.0033156731
-0.04849306
-0.0041067261
-0.050954512
-0.0049239802
-0.053157668
-0.005792
-0.055696991
-0.0066949221
-0.058196558
-0.0076486119
-0.060908438
-0.0086445489
-0.063678975
-0.0096925786
-0.066615388
-0.010789631
-0.069659514
-0.011941484
-0.072857937
-0.013148314
-0.076192511
-0.014413516
-0.079685551
-0.015738869
-0.083335258
-0.017126742
-0.087155205
-0.01857976
-0.091150181
-0.020100057
-0.095331183
-0.021690234
-0.099706098
-0.023353012
-0.10428504
-0.025090135
-0.10907842
-0.026905143
-0.11409595
-0.028800474
-0.11934923
-0.030778658
-0.12484987
-0.032842386
-0.13060952
-0.034994185
-0.13664129
-0.037236785
-0.14295852
-0.039572281
-0.14957532
-0.042002173
-0.15650742
-0.044528578
-0.16377035
-0.047151855
-0.17138212
-0.049873164
-0.17936075
-0.052692183
-0.18772609
-0.055608002
-0.19649923
-0.058617656
-0.20570259
-0.061719353
-0.21535712
-0.064913874
-0.22548741
-0.068198866
-0.23612209
-0.071569598
-0.24728965
-0.075022746
-0.25901712
-0.078553684
-0.27133536
-0.082157182
-0.28427661
-0.085826938
-0.29787443
-0.089555842
-0.31216444
-0.093336103
-0.32718381
-0.097158571
-0.34297201
-0.10101316
-0.35957033
-0.10488812
-0.37702271
-0.10877043
-0.39537508
-0.11264547
-0.41467571
-0.1164965
-0.43497617
-0.12030519
-0.4563302
-0.12405071
-0.47879443
-0.12770934
-0.50242944
-0.1312549
-0.52729845
-0.13465775
-0.55346822
-0.13788457
-0.58100977
-0.14089809
-0.6099972
-0.14365606
-0.64050919
-0.1461118
-0.67262847
-0.14821213
-0.70644265
-0.1498983
-0.74204334
-0.15110406
-0.7795286
-0.15175313
-0.81900048
-0.15176928
-0.86056547
-0.1510512
-0.90433474
-0.14950296
-0.95042845
-0.14699505
-0.99894295
-0.1434287
-1.0500252
-0.1386037
-1.1037418
-0.13247353
-1.1603682
-0.12467212
-1.2197462
-0.11534074
-1.2826782
-0.10369628
-1.3478033
-0.090391945
-1.4181777
-0.073904099
-1.4881358
-0.05553615
-1.5676534
-1.6427988
-0.0005024526
-0.038070288
-0.001131874
-0.042463766
-0.0017598269
-0.043437772
-0.0024475471
-0.046008953
-0.0031475516
-0.047793055
-0.0039023156
-0.050199747
-0.0046805831
-0.0523794
-0.005510305
-0.054867269
-0.0063734555
-0.057333408
-0.0072873137
-0.059994579
-0.0082427852
-0.062723503
-0.0092499466
-0.065608226
-0.010305516
-0.068603945
-0.01141583
-0.071747623
-0.012580335
-0.075028006
-0.013803294
-0.078462592
-0.015085806
-0.082052745
-0.016431211
-0.0858098
-0.017841382
-0.08974001
-0.019319333
-0.093853232
-0.020867236
-0.098158194
-0.022487712
-0.10266456
-0.024183891
-0.10738224
-0.025958368
-0.11232147
-0.027813732
-0.11749387
-0.029753135
-0.12291046
-0.031778952
-0.1285837
-0.033894141
-0.1345261
-0.036100823
-0.14075184
-0.038401229
-0.14727491
-0.04079695
-0.1541117
-0.043289238
-0.16127806
-0.045879215
-0.16879214
-0.048566746
-0.17667322
-0.051351676
-0.18494116
-0.054233674
-0.19361724
-0.057211671
-0.2027246
-0.060281471
-0.21228732
-0.063440765
-0.22232812
-0.066690474
-0.23287238
-0.070027129
-0.24395299
-0.073446583
-0.25559767
-0.076944865
-0.26783707
-0.080517239
-0.28070424
-0.084158137
-0.29423353
-0.087861339
-0.30846124
-0.091619787
-0.32342536
-0.095425449
-0.33916635
-0.099269211
-0.35572656
-0.10314081
-0.37315111
-0.1070291
-0.39148678
-0.11092049
-0.41078432
-0.11480098
-0.43109568
-0.11865417
-0.45247701
-0.12246115
-0.47498745
-0.12620165
-0.49868894
-0.12985265
-0.52364745
-0.13338735
-0.54993352
-0.13677661
-0.5776205
-0.13998743
-0.60678639
-0.14298245
-0.63751416
-0.14571985
-0.66989107
-0.14815292
-0.70400959
-0.15022856
-0.73996769
-0.15188825
-0.7778689
-0.15306597
-0.81782276
-0.15368758
-0.85994386
-0.15366838
-0.90435394
-0.15292016
-0.95117667
-0.15133131
-1.0005318
-0.148797
-1.0525596
-0.14516828
-1.1073706
-0.14035708
-1.1651794
-0.13410302
-1.2260002
-0.12643334
-1.2903479
-0.11677965
-1.357457
-0.10556655
-1.4293908
-0.091599608
-1.5021028
-0.075863265
-1.5833897
-1.6618112
-0.00047216815
-0.03759812
-0.0010832589
-0.041852675
-0.0016784104
-0.04284262
-0.0023378234
-0.04534954
-0.0030052696
-0.047125609
-0.0037301356
-0.049474881
-0.0044762975
-0.051633238
-0.0052751638
-0.054068402
-0.0061066238
-0.056501948
-0.006988882
-0.059112321
-0.0079129006
-0.061799485
-0.0088889594
-0.064632167
-0.0099137062
-0.067579198
-0.01099311
-0.070668219
-0.012127297
-0.073893819
-0.013320493
-0.077269396
-0.014573956
-0.080799282
-0.015891063
-0.084492694
-0.017273815
-0.088357258
-0.018725048
-0.092401999
-0.020247804
-0.096635438
-0.0218447
-0.10106767
-0.023518772
-0.10570816
-0.025272478
-0.11056776
-0.027109412
-0.11565694
-0.02903199
-0.12098789
-0.031043199
-0.12657249
-0.033145194
-0.1324241
-0.035340732
-0.1385563
-0.037631013
-0.14498463
-0.040018174
-0.15172454
-0.042502895
-0.15879334
-0.045085871
-0.16620917
-0.047767269
-0.17399182
-0.050546814
-0.18216161
-0.05342336
-0.19074069
-0.056396172
-0.19975179
-0.059464056
-0.20921944
-0.062622295
-0.21916988
-0.065868625
-0.22962605
-0.069204099
-0.24061752
-0.072623999
-0.25217777
-0.076124832
-0.26433624
-0.079702761
-0.27712631
-0.083352743
-0.29058355
-0.087069677
-0.3047443
-0.090847189
-0.31964785
-0.094678417
-0.33533512
-0.098555785
-0.3518492
-0.10247064
-0.36923626
-0.10641273
-0.38754469
-0.11037161
-0.40682544
-0.11433446
-0.42713284
-0.1182873
-0.44852416
-0.12221465
-0.4710601
-0.12609838
-0.49480521
-0.12991831
-0.51982753
-0.13365208
-0.54619975
-0.13727414
-0.57399844
-0.14075572
-0.60330481
-0.14406411
-0.63420577
-0.14716316
-0.66679202
-0.15001167
-0.70116108
-0.15256354
-0.73741583
-0.1547671
-0.77566534
-0.15656406
-0.81602581
-0.15788917
-0.85861874
-0.15866995
-0.90357316
-0.15882537
-0.95102126
-0.15825643
-1.0011007
-0.15687203
-1.0539439
-0.15454455
-1.109698
-0.15117886
-1.1685451
-0.14657634
-1.2306027
-0.14070251
-1.2962217
-0.13314256
-1.365017
-0.12415049
-1.4383828
-0.11280068
-1.5134526
-0.099832983
-1.5963575
-1.6775863
-0.00044662755
-0.037151493
-0.00104599
-0.041253313
-0.0016147945
-0.042273816
-0.00225253
-0.044711804
-0.0028947512
-0.046483388
-0.0035971154
-0.048772517
-0.0043193673
-0.050910987
-0.0050957138
-0.053292056
-0.0059045677
-0.055693094
-0.0067652788
-0.05825161
-0.0076680817
-0.060896682
-0.0086237483
-0.063676501
-0.0096293105
-0.066573636
-0.010690698
-0.069606832
-0.011808251
-0.072776266
-0.012985686
-0.076091961
-0.014225317
-0.079559651
-0.015529897
-0.083188113
-0.016902337
-0.086984818
-0.01834561
-0.090958726
-0.019862177
-0.09511887
-0.021455761
-0.099474084
-0.023128705
-0.10403522
-0.024884633
-0.10881184
-0.026726165
-0.1138154
-0.028656179
-0.11905787
-0.030677519
-0.12455115
-0.032792382
-0.13030924
-0.035002841
-0.13634585
-0.03731058
-0.14267689
-0.039716923
-0.1493182
-0.042222298
-0.15628797
-0.044827451
-0.16360401
-0.047532167
-0.1712871
-0.050336051
-0.17935773
-0.053238382
-0.18783836
-0.056238105
-0.19675206
-0.05933379
-0.20612375
-0.062523927
-0.21597974
-0.065803725
-0.22634625
-0.06917291
-0.23724834
-0.072629792
-0.24872089
-0.076171333
-0.2607947
-0.07979381
-0.27350383
-0.08349358
-0.28688378
-0.08726618
-0.30097171
-0.09110679
-0.31580724
-0.095010014
-0.3314319
-0.098969041
-0.34789017
-0.10297722
-0.36522808
-0.10702668
-0.38349524
-0.11110817
-0.40274394
-0.11521173
-0.42302928
-0.11932565
-0.44441024
-0.12343684
-0.46694892
-0.12753075
-0.4907113
-0.13159062
-0.51576766
-0.13559722
-0.54219315
-0.13952944
-0.57006622
-0.14336231
-0.59947195
-0.14706916
-0.63049892
-0.15061816
-0.66324302
-0.1539747
-0.69780454
-0.15709911
-0.73429141
-0.15994686
-0.7728176
-0.16246774
-0.81350492
-0.16460661
-0.85647988
-0.1662996
-0.90188017
-0.16747225
-0.94984861
-0.16804831
-1.0005247
-0.16793508
-1.0540572
-0.16703465
-1.1105985
-0.16524682
-1.170333
-0.16242504
-1.2334245
-0.15850298
-1.3001438
-0.15316191
-1.370358
-0.14655298
-1.4449918
-0.13794483
-1.5220608
-0.12793248
-1.6063699
-1.6900176
-0.00042546384
-0.036726029
-0.0010154737
-0.040663303
-0.0015642436
-0.041725046
-0.0021872509
-0.044088797
-0.0028118908
-0.045858748
-0.0034998466
-0.048084561
-0.0042072798
-0.050203553
-0.0049704527
-0.052528883
-0.0057673178
-0.054896229
-0.0066172488
-0.057401679
-0.0075111277
-0.060002803
-0.0084592533
-0.062728375
-0.0094590764
-0.065573813
-0.010516409
-0.068549499
-0.011632539
-0.071660136
-0.012810893
-0.074913607
-0.014053767
-0.078316777
-0.015364846
-0.081877034
-0.016746344
-0.085603321
-0.018201975
-0.089503095
-0.019734651
-0.093586194
-0.021347389
-0.097861347
-0.02304385
-0.10233876
-0.024826558
-0.10702913
-0.026698535
-0.11194343
-0.028662946
-0.11709346
-0.030721961
-0.12249214
-0.032877907
-0.12815329
-0.035132249
-0.1340915
-0.037486526
-0.14032262
-0.039941763
-0.14686296
-0.042498538
-0.15373119
-0.045156791
-0.16094576
-0.047916703
-0.16852719
-0.050777511
-0.17649692
-0.053738683
-0.18487719
-0.056799337
-0.19369141
-0.059957867
-0.20296522
-0.063213664
-0.21272394
-0.066564184
-0.22299573
-0.070005316
-0.2338072
-0.073538889
-0.24518731
-0.077161575
-0.25717201
-0.080871296
-0.26979411
-0.08466518
-0.28308989
-0.088539857
-0.29709703
-0.0924917
-0.3118554
-0.096516635
-0.32740697
-0.10061047
-0.34379634
-0.10476758
-0.36107097
-0.1089822
-0.37928061
-0.11324735
-0.39847879
-0.11755552
-0.41872111
-0.12189783
-0.44006793
-0.12626395
-0.4625828
-0.13064249
-0.48633275
-0.13501982
-0.51139033
-0.13938119
-0.53783178
-0.14370882
-0.56573859
-0.14798362
-0.59519715
-0.15218239
-0.62630015
-0.15628008
-0.65914533
-0.16024728
-0.69383733
-0.16405148
-0.73048721
-0.16765564
-0.76921345
-0.17101815
-0.81014241
-0.17409
-0.85340803
-0.17681804
-0.89915213
-0.17914399
-0.94752265
-0.18099755
-0.99867113
-0.18230215
-1.0527526
-0.18297167
-1.109929
-0.18291983
-1.1703848
-0.18202682
-1.2343175
-0.18021916
-1.3019515
-0.17725295
-1.3733243
-0.17321267
-1.4490321
-0.16750796
-1.5277655
-0.16061931
-1.6132586
-1.6989605
-0.00041193926
-0.03631409
-0.00098491204
-0.04009033
-0.0015227083
-0.041187249
-0.0021403789
-0.043471126
-0.0027576462
-0.045241481
-0.0034413494
-0.047400858
-0.0041451741
-0.049499729
-0.0049067423
-0.051767315
-0.0057039182
-0.054099053
-0.0065559003
-0.056549696
-0.0074545743
-0.059104129
-0.0084094287
-0.06177352
-0.0094193144
-0.064563927
-0.010489629
-0.067479185
-0.011621623
-0.070528142
-0.012819531
-0.073715699
-0.014085803
-0.077050505
-0.015423749
-0.080539088
-0.016836901
-0.084190169
-0.018328123
-0.088011872
-0.019901158
-0.092013159
-0.021559023
-0.096203482
-0.023304943
-0.10059284
-0.02514225
-0.10519182
-0.027073597
-0.11001208
-0.02910139
-0.11506567
-0.031228043
-0.12036548
-0.03345527
-0.12592607
-0.035784781
-0.13176199
-0.038217421
-0.13788998
-0.040753882
-0.1443265
-0.043394455
-0.15109062
-0.046139284
-0.15820093
-0.048987859
-0.16567862
-0.051940155
-0.17354463
-0.054995585
-0.18182176
-0.058152831
-0.19053416
-0.061411819
-0.19970623
-0.064771244
-0.20936452
-0.068230369
-0.2195366
-0.071785777
-0.2302518
-0.07543791
-0.24153518
-0.079186166
-0.25342376
-0.083028909
-0.26595136
-0.086964526
-0.27915428
-0.090991006
-0.29307055
-0.0951068
-0.3077396
-0.099309283
-0.32320448
-0.10359534
-0.33951028
-0.10796223
-0.35670408
-0.11240599
-0.37483686
-0.11692231
-0.39396247
-0.12150603
-0.41413739
-0.12615093
-0.43542304
-0.13085039
-0.45788333
-0.13559535
-0.48158779
-0.14037686
-0.50660882
-0.14518337
-0.53302527
-0.15000212
-0.56091983
-0.15481771
-0.59038157
-0.15961337
-0.62150448
-0.16436876
-0.65438994
-0.16906127
-0.68914482
-0.17366484
-0.72588364
-0.17814976
-0.76472853
-0.18248267
-0.8058095
-0.18662474
-0.84926596
-0.19053368
-0.89524319
-0.19415772
-0.94389861
-0.19744267
-0.99538618
-0.20032185
-1.0498734
-0.20272422
-1.1075266
-0.20457912
-1.1685299
-0.20579223
-1.2331044
-0.20628672
-1.301457
-0.20587939
-1.3737316
-0.20460675
-1.4503047
-0.20199051
-1.5303818
-0.19843679
-1.6168123
-1.7042319
-0.00040613025
-0.035907959
-0.00097083851
-0.039525622
-0.0015055475
-0.04065254
-0.0021262431
-0.04285043
-0.0027456705
-0.044622053
-0.00343492
-0.046711608
-0.0041463154
-0.048788333
-0.0049176186
-0.050996011
-0.0057280388
-0.053288633
-0.0065956851
-0.05568205
-0.0075139488
-0.058185865
-0.0084917002
-0.060795769
-0.0095286083
-0.063527019
-0.010629818
-0.066377976
-0.011797451
-0.069360508
-0.013035672
-0.072477478
-0.014347281
-0.075738897
-0.015736059
-0.07915031
-0.017205172
-0.082721055
-0.01875842
-0.086458624
-0.020399115
-0.090372464
-0.022130574
-0.094472024
-0.023955797
-0.098767615
-0.025877676
-0.10326994
-0.02789921
-0.10799054
-0.030022359
-0.11294252
-0.03224895
-0.11813889
-0.034580656
-0.12359436
-0.037018415
-0.12932423
-0.039563249
-0.13534514
-0.042214992
-0.14167475
-0.044974311
-0.1483313
-0.047840665
-0.15533458
-0.050814226
-0.16270506
-0.053894685
-0.17046417
-0.057081198
-0.17863525
-0.060374143
-0.18724122
-0.063772698
-0.19630768
-0.0672765
-0.20586072
-0.070885377
-0.21592773
-0.074599399
-0.22653777
-0.078415826
-0.23771875
-0.082336773
-0.24950281
-0.086362093
-0.26192604
-0.09049193
-0.27502444
-0.094725581
-0.2888369
-0.099062793
-0.30340239
-0.10350298
-0.31876429
-0.10804559
-0.33496767
-0.11268938
-0.35206029
-0.11743314
-0.3700931
-0.12227512
-0.38912049
-0.1272127
-0.40919981
-0.13224305
-0.43039269
-0.13736193
-0.45276446
-0.14256519
-0.47638453
-0.14784639
-0.50132763
-0.15319885
-0.52767281
-0.15861389
-0.55550479
-0.1640815
-0.58491396
-0.16958947
-0.61599651
-0.17512408
-0.64885533
-0.18066902
-0.68359988
-0.18620486
-0.7203478
-0.1917101
-0.75922329
-0.19715909
-0.8003605
-0.20252392
-0.84390113
-0.20776853
-0.88999858
-0.21285829
-0.93880885
-0.21774446
-0.99050001
-0.22237762
-1.0452402
-0.2267024
-1.1032018
-0.23065503
-1.1645773
-0.2341696
-1.2295899
-0.23717837
-1.2984482
-0.23954008
-1.3713699
-0.2412603
-1.4485845
-0.24195561
-1.5296865
-0.24196887
-1.6167991
-1.7056118
-0.00040571928
-0.03550224
-0.00098013866
-0.038951202
-0.001519697
-0.040112982
-0.0021520244
-0.042218103
-0.0027837128
-0.043990365
-0.0034890363
-0.046006285
-0.0042201526
-0.048057217
-0.0050141478
-0.050202016
-0.0058521033
-0.052450677
-0.0067508802
-0.054783273
-0.0077055026
-0.057231243
-0.0087241197
-0.059777152
-0.009807556
-0.062443583
-0.010960663
-0.065224869
-0.012186491
-0.06813468
-0.013488688
-0.071175281
-0.014871025
-0.074356559
-0.016337075
-0.077684261
-0.017890697
-0.081167432
-0.0195352
-0.084814121
-0.021273844
-0.088633821
-0.023110131
-0.092635736
-0.02504697
-0.096830777
-0.027087069
-0.10122984
-0.02923227
-0.10584534
-0.031484868
-0.11068992
-0.033846285
-0.11577747
-0.036317497
-0.12112315
-0.038898848
-0.12674288
-0.041591174
-0.13265282
-0.044394484
-0.13887144
-0.047308774
-0.14541701
-0.050333862
-0.15230949
-0.053470044
-0.15956887
-0.05671673
-0.16721748
-0.060074569
-0.17527741
-0.063543261
-0.18377252
-0.067123153
-0.19272779
-0.070815212
-0.20216866
-0.074619563
-0.21212338
-0.078537144
-0.22262019
-0.082567288
-0.23368861
-0.086713082
-0.24535702
-0.090975796
-0.25766333
-0.095356552
-0.27064368
-0.099857442
-0.28433601
-0.10447943
-0.29878041
-0.10922455
-0.31401918
-0.11409399
-0.33009823
-0.11908914
-0.34706514
-0.12421137
-0.36497087
-0.12946134
-0.38387051
-0.13483988
-0.40382127
-0.14034671
-0.42488586
-0.14598202
-0.44712914
-0.1517442
-0.47062235
-0.15763156
-0.49544026
-0.16364147
-0.5216629
-0.16977
-0.54937627
-0.17601202
-0.57867194
-0.18236163
-0.6096469
-0.18881053
-0.64240643
-0.19534869
-0.67706172
-0.20196489
-0.7137316
-0.20864464
-0.75254355
-0.21537156
-0.79363358
-0.22212494
-0.83714775
-0.22888479
-0.88323873
-0.23562031
-0.93207333
-0.24230225
-0.98381806
-0.2488915
-1.038651
-0.25534421
-1.0967491
-0.26161313
-1.1583084
-0.26765423
-1.2235488
-0.27340704
-1.2926954
-0.27878092
-1.365996
-0.28374882
-1.4436166
-0.28800953
-1.5254258
-0.29184428
-1.6129644
-1.7028211
-0.00041338161
-0.035088858
-0.0010067419
-0.038357842
-0.0015620856
-0.039557638
-0.0022171356
-0.041563053
-0.0028737151
-0.043333785
-0.0036081126
-0.045271887
-0.0043735933
-0.047291736
-0.0052057166
-0.049369893
-0.006088203
-0.051568191
-0.0070362143
-0.053835262
-0.0080469335
-0.056220523
-0.0091275353
-0.05869655
-0.010280125
-0.061290993
-0.011509446
-0.063995548
-0.012818836
-0.06682529
-0.014212533
-0.069781584
-0.015694433
-0.072874659
-0.017268141
-0.076110553
-0.018937404
-0.079498169
-0.020705665
-0.083045861
-0.022576464
-0.086763021
-0.024552355
-0.090659846
-0.026636112
-0.094747021
-0.028829696
-0.099036258
-0.031135219
-0.10353982
-0.033553896
-0.10827125
-0.036086473
-0.1132449
-0.038733571
-0.11847605
-0.041495776
-0.12398068
-0.044372707
-0.12977589
-0.047364959
-0.13587919
-0.050472009
-0.14230996
-0.053694477
-0.14908702
-0.057032179
-0.15623117
-0.060485873
-0.16376379
-0.064055778
-0.1717075
-0.067743287
-0.18008502
-0.071549335
-0.18892174
-0.075475396
-0.1982426
-0.079523423
-0.20807535
-0.083695848
-0.21844777
-0.087992951
-0.22939151
-0.092419892
-0.24093008
-0.096978888
-0.25310433
-0.10167381
-0.26594877
-0.10650774
-0.27950207
-0.11148481
-0.29380333
-0.11660835
-0.30889564
-0.12188254
-0.32482404
-0.12731139
-0.34163629
-0.13289871
-0.35938354
-0.1386483
-0.37812092
-0.1445639
-0.39790568
-0.15064916
-0.41880059
-0.15690683
-0.44087147
-0.16334007
-0.46418911
-0.16995142
-0.48882892
-0.17674213
-0.51487219
-0.18371386
-0.54240453
-0.19086694
-0.57151886
-0.19820017
-0.60231366
-0.20571259
-0.63489401
-0.21340117
-0.66937314
-0.22126133
-0.70587144
-0.22928712
-0.74451776
-0.23747108
-0.78544962
-0.24580391
-0.82881492
-0.25427218
-0.87477046
-0.26286174
-0.92348377
-0.2715499
-0.97512991
-0.2803149
-1.029886
-0.28912757
-1.0879364
-0.29795725
-1.1494787
-0.30677433
-1.2147317
-0.3155365
-1.2839332
-0.32418542
-1.3573471
-0.3326866
-1.4351155
-0.34080741
-1.517305
-0.34875543
-1.6050164
-1.6955388
-0.00042835401
-0.034660504
-0.0010507569
-0.037735439
-0.001632848
-0.038975547
-0.0023225091
-0.040873392
-0.0030178284
-0.042638466
-0.0037957435
-0.044493972
-0.004612126
-0.046475354
-0.0054999572
-0.048482062
-0.0064464164
-0.050621732
-0.0074646407
-0.052817037
-0.0085540732
-0.055131091
-0.0097211705
-0.057529453
-0.010969093
-0.060043071
-0.012302487
-0.062662154
-0.01372543
-0.065402347
-0.015241907
-0.068265107
-0.016856069
-0.071260497
-0.018571515
-0.074395107
-0.020391844
-0.077677841
-0.022320309
-0.081117395
-0.024359754
-0.084723576
-0.026512637
-0.088506962
-0.028781192
-0.092478466
-0.031166748
-0.096650701
-0.033670406
-0.10103616
-0.036292901
-0.10564875
-0.039034676
-0.11050312
-0.041895821
-0.1156149
-0.044876472
-0.12100003
-0.047976602
-0.12667576
-0.051195951
-0.13265984
-0.054535114
-0.13897079
-0.05799445
-0.14562769
-0.061574489
-0.15265113
-0.065276637
-0.16006164
-0.069102376
-0.16788176
-0.073053624
-0.17613377
-0.077132909
-0.18484246
-0.081342561
-0.19403294
-0.085686445
-0.20373146
-0.090168023
-0.21396619
-0.094791308
-0.22476822
-0.099560209
-0.23616118
-0.10448101
-0.24818353
-0.10955872
-0.26087106
-0.11479913
-0.27426167
-0.1202082
-0.28839426
-0.12579211
-0.30331173
-0.13155753
-0.31905863
-0.13751109
-0.33568272
-0.14365942
-0.35323521
-0.15000993
-0.37177041
-0.15656926
-0.39134635
-0.16334467
-0.41202518
-0.17034316
-0.43387299
-0.1775716
-0.45696067
-0.18503677
-0.48136374
-0.19274553
-0.50716344
-0.20070357
-0.53444649
-0.2089175
-0.56330493
-0.21739259
-0.59383858
-0.22613363
-0.62615297
-0.23514511
-0.66036166
-0.24443047
-0.69658608
-0.25399232
-0.73495591
-0.26383173
-0.7756102
-0.27394937
-0.81869728
-0.28434432
-0.86437552
-0.29501219
-0.91281589
-0.30594694
-0.96419515
-0.3171372
-1.0186957
-0.32857011
-1.0765035
-0.34022772
-1.1378211
-0.35209653
-1.2028629
-0.36415842
-1.2718713
-0.37638566
-1.3451199
-0.38873694
-1.4227642
-0.40104452
-1.5049975
-0.41345591
-1.5926051
-1.6834006
-0.0004529333
-0.034207571
-0.0011166363
-0.037071736
-0.0017391075
-0.038353076
-0.0024774565
-0.040135043
-0.0032279561
-0.041887967
-0.0040666308
-0.043655298
-0.0049532906
-0.045588694
-0.005917691
-0.047517661
-0.0069509026
-0.04958852
-0.0080640677
-0.051703872
-0.0092588807
-0.053936278
-0.010540973
-0.05624736
-0.011914731
-0.058669313
-0.013384494
-0.06119239
-0.014954771
-0.06383207
-0.016629578
-0.0665903
-0.018412614
-0.069477461
-0.020307818
-0.072499903
-0.022318132
-0.075667526
-0.024446328
-0.078989199
-0.026694434
-0.08247547
-0.029064329
-0.086137067
-0.031557276
-0.08998552
-0.034174093
-0.094033883
-0.036915061
-0.098295194
-0.039780329
-0.10278348
-0.042769713
-0.10751374
-0.045883275
-0.11250134
-0.049120484
-0.11776282
-0.052481625
-0.12331461
-0.055967253
-0.12917421
-0.059577775
-0.13536027
-0.063314347
-0.14189112
-0.067178583
-0.1487869
-0.07117276
-0.15606746
-0.075299844
-0.16375468
-0.079562493
-0.17187112
-0.083965203
-0.18043975
-0.088512154
-0.18948599
-0.093208276
-0.19903534
-0.098059376
-0.20911509
-0.10307137
-0.21975623
-0.10825045
-0.23098209
-0.1136046
-0.24282938
-0.11914124
-0.25533441
-0.12486872
-0.26853419
-0.13079519
-0.28246779
-0.13692967
-0.29717725
-0.14328165
-0.31270664
-0.14986042
-0.32910396
-0.1566762
-0.34641943
-0.16373916
-0.36470746
-0.17105986
-0.38402565
-0.17864914
-0.40443591
-0.1865182
-0.42600392
-0.19467835
-0.44880052
-0.2031409
-0.47290119
-0.21191761
-0.49838673
-0.22102026
-0.52534383
-0.23046054
-0.55386466
-0.24025068
-0.58404844
-0.25040228
-0.61600138
-0.26092729
-0.64983664
-0.27183703
-0.68567634
-0.28314316
-0.72364979
-0.29485649
-0.76389686
-0.30698796
-0.80656581
-0.31954714
-0.85181634
-0.33254241
-0.89982063
-0.34598527
-0.95075229
-0.3598749
-1.0048061
-0.37420961
-1.0621688
-0.38899234
-1.1230383
-0.40422766
-1.1876276
-0.41991226
-1.2561867
-0.43604876
-1.3289834
-0.45260254
-1.4062104
-0.4694641
-1.488136
-0.48673406
-1.5753351
-1.6660076
-0.0004874601
-0.033720111
-0.0012059286
-0.036353268
-0.0018838825
-0.037675122
-0.0026868942
-0.039332031
-0.0035112513
-0.041063609
-0.0044304192
-0.04273613
-0.0054098657
-0.044609247
-0.006475212
-0.046452315
-0.0076218169
-0.048441915
-0.0088587919
-0.050466897
-0.010189946
-0.052605124
-0.01162028
-0.054817026
-0.013154974
-0.057134619
-0.01479816
-0.059549204
-0.016554441
-0.062075789
-0.018427434
-0.064717307
-0.020420864
-0.067484031
-0.022537373
-0.070383394
-0.024779514
-0.073425385
-0.027149219
-0.076619494
-0.029647705
-0.079976984
-0.032275968
-0.083508804
-0.0350339
-0.087227589
-0.037921817
-0.091145966
-0.040939131
-0.095277881
-0.044085587
-0.099637027
-0.047360449
-0.10423888
-0.050763604
-0.10909819
-0.054295363
-0.11423106
-0.057955927
-0.11965405
-0.061746267
-0.12538387
-0.065667889
-0.13143865
-0.069723173
-0.13783583
-0.073915106
-0.14459496
-0.078246941
-0.15173563
-0.082722869
-0.15927875
-0.087348483
-0.1672455
-0.09212879
-0.17565944
-0.097070658
-0.18454412
-0.10218086
-0.19392514
-0.10746707
-0.20382888
-0.11293767
-0.21428563
-0.11860159
-0.22531818
-0.12446831
-0.23696265
-0.13054806
-0.24925466
-0.13685137
-0.26223088
-0.14338945
-0.27592971
-0.15017429
-0.2903924
-0.15721768
-0.30566325
-0.16453286
-0.32178878
-0.17213261
-0.33881968
-0.18003118
-0.35680888
-0.18824287
-0.37581395
-0.19678238
-0.3958964
-0.20566496
-0.41712134
-0.21490679
-0.4395587
-0.22452425
-0.46328373
-0.23453431
-0.48837668
-0.24495467
-0.51492348
-0.25580309
-0.54301623
-0.26709859
-0.57275294
-0.27886006
-0.6042399
-0.29110731
-0.6375894
-0.30386049
-0.67292315
-0.31713981
-0.71037047
-0.33096703
-0.75006965
-0.34536293
-0.7921699
-0.36034945
-0.83682982
-0.37594988
-0.8842202
-0.39218353
-0.93451864
-0.40906942
-0.98792022
-0.42662627
-1.044612
-0.4448651
-1.1047995
-0.46380544
-1.1686872
-0.4834689
-1.2365233
-0.50388262
-1.3085696
-0.52503167
-1.3850614
-0.54685547
-1.4663122
-0.56943292
-1.5527577
-1.6429252
-0.000532746
-0.033187365
-0.0013208061
-0.035565208
-0.0020717726
-0.036924155
-0.0029577782
-0.038446026
-0.0038778736
-0.040143514
-0.0049009347
-0.041713069
-0.0059995892
-0.043510593
-0.0071949338
-0.04525697
-0.0084864544
-0.047150395
-0.0098812943
-0.049072058
-0.011385234
-0.051101184
-0.013002518
-0.053199743
-0.014738763
-0.055398374
-0.01659765
-0.057690317
-0.018583392
-0.060090046
-0.020698976
-0.062601723
-0.022947125
-0.065235881
-0.02532969
-0.068000829
-0.027848085
-0.07090699
-0.0305028
-0.073964779
-0.033294193
-0.07718559
-0.036221506
-0.08058149
-0.03928444
-0.084164655
-0.042481826
-0.08794858
-0.045813085
-0.091946622
-0.049277104
-0.096173007
-0.052873834
-0.10064215
-0.056603292
-0.10536873
-0.060465697
-0.11036865
-0.064462971
-0.11565678
-0.068596572
-0.12125027
-0.072870083
-0.12716514
-0.077286652
-0.13341926
-0.081851088
-0.14003053
-0.086568543
-0.14701817
-0.091445652
-0.15440164
-0.096489004