/*--------------------------------*- C++ -*----------------------------------*\
  =========                 |
  \\      /  F ield         | OpenFOAM: The Open Source CFD Toolbox
   \\    /   O peration     | Website:  https://openfoam.org
    \\  /    A nd           | Version:  6
     \\/     M anipulation  |
\*---------------------------------------------------------------------------*/
FoamFile
{
    version     2.0;
    format      ascii;
    class       volScalarField;
    location    "200";
    object      rho;
}
// * * * * * * * * * * * * * * * * * * * * * * * * * * * * * * * * * * * * * //

dimensions      [1 -3 0 0 0 0 0];

internalField   nonuniform List<scalar> 
16000
(
1.1553472
1.1616732
1.1597973
1.1611839
1.1605676
1.1612313
1.1610487
1.1614589
1.1614774
1.1617873
1.1619169
1.1621916
1.1623906
1.1626628
1.1629092
1.1631942
1.1634756
1.1637796
1.1640887
1.1644127
1.1647445
1.1650871
1.1654375
1.165796
1.1661608
1.1665315
1.1669066
1.167285
1.1676653
1.168046
1.1684259
1.1688032
1.1691773
1.1695481
1.16988
1.170208
1.1705314
1.1708474
1.1711501
1.1714394
1.1717152
1.1719754
1.172219
1.1724462
1.1726564
1.172849
1.1730237
1.1731804
1.1733189
1.1734393
1.1735416
1.1736261
1.1736929
1.1737424
1.173775
1.1737911
1.1737912
1.1737757
1.1737452
1.1737002
1.1736412
1.173569
1.1734833
1.173386
1.1732749
1.1731554
1.1730176
1.1728801
1.1727079
1.1725627
1.1723306
1.1722127
1.1718509
1.1718717
1.1711771
1.1716483
1.1700915
1.1717181
1.1684086
1.1720431
1.1554552
1.1618427
1.1598685
1.1613502
1.1607077
1.1614348
1.1612532
1.1617107
1.1617429
1.16209
1.1622419
1.1625486
1.1627734
1.1630751
1.1633484
1.1636613
1.1639696
1.1643002
1.1646352
1.1649845
1.1653406
1.1657066
1.1660792
1.1664585
1.1668428
1.1672311
1.1676221
1.1680144
1.1684065
1.1687968
1.1691837
1.1695659
1.1699419
1.1703092
1.1706693
1.1710095
1.1713147
1.1716141
1.1719026
1.1721755
1.1724323
1.1726717
1.1728931
1.1730964
1.1732816
1.1734482
1.1735962
1.1737257
1.1738368
1.1739298
1.174005
1.1740627
1.1741035
1.1741277
1.1741359
1.1741286
1.1741065
1.17407
1.1740197
1.1739563
1.17388
1.1737917
1.1736915
1.1735803
1.1734576
1.1733253
1.1731799
1.1730283
1.1728562
1.1726889
1.1724747
1.1723089
1.1720063
1.1719184
1.1713706
1.1716185
1.1703485
1.171627
1.1686264
1.1720158
1.1557038
1.162146
1.1601003
1.16166
1.1610054
1.1617867
1.161614
1.1621126
1.1621647
1.1625455
1.1627227
1.1630594
1.1633117
1.1636415
1.1639426
1.1642827
1.1646178
1.1649745
1.165335
1.1657088
1.1660885
1.1664768
1.1668703
1.167269
1.167671
1.168075
1.1684796
1.1688832
1.1692841
1.1696807
1.1700713
1.1704543
1.1708282
1.1711918
1.1715426
1.1718798
1.1722057
1.1724817
1.1727449
1.1729961
1.1732294
1.1734426
1.1736364
1.1738109
1.173966
1.1741018
1.1742186
1.1743165
1.1743961
1.1744579
1.1745022
1.1745299
1.1745414
1.1745373
1.1745184
1.1744853
1.1744385
1.1743789
1.1743068
1.174223
1.1741279
1.174022
1.1739056
1.1737794
1.1736433
1.173498
1.1733423
1.1731785
1.1730005
1.1728184
1.1726081
1.1724144
1.1721417
1.1719847
1.1715333
1.1716182
1.1705586
1.1715542
1.1688479
1.1719726
1.1561298
1.1626143
1.1605054
1.1621477
1.1614816
1.1623208
1.1621595
1.1627022
1.1627769
1.1631942
1.1633998
1.1637693
1.164052
1.1644127
1.1647441
1.1651137
1.165478
1.1658626
1.1662503
1.1666497
1.1670539
1.1674648
1.1678792
1.1682967
1.1687151
1.1691331
1.1695489
1.1699609
1.1703671
1.1707658
1.1711552
1.1715337
1.1718996
1.1722517
1.1725886
1.1729088
1.1732105
1.1734969
1.1737323
1.1739486
1.1741513
1.1743314
1.1744895
1.1746277
1.1747454
1.1748433
1.1749219
1.1749817
1.1750235
1.175048
1.1750559
1.1750481
1.1750253
1.1749884
1.174938
1.1748749
1.1748
1.1747137
1.1746169
1.1745099
1.1743933
1.1742677
1.1741332
1.1739904
1.1738393
1.1736802
1.1735126
1.1733371
1.173151
1.1729573
1.1727452
1.1725335
1.1722753
1.1720742
1.1716851
1.1716545
1.1707562
1.1715259
1.1690576
1.1720042
1.1567208
1.1632333
1.1610784
1.1628049
1.1621327
1.1630306
1.162885
1.1634728
1.1635742
1.1640293
1.1642669
1.1646706
1.1649865
1.1653797
1.1657436
1.166144
1.166539
1.1669523
1.1673679
1.1677931
1.1682215
1.1686544
1.1690885
1.169523
1.1699555
1.1703846
1.1708082
1.1712244
1.1716313
1.1720269
1.1724095
1.1727772
1.1731287
1.1734626
1.1737776
1.1740726
1.1743468
1.1745988
1.1748325
1.1750068
1.175167
1.1753078
1.1754233
1.175518
1.1755922
1.175646
1.1756808
1.1756971
1.1756961
1.1756787
1.1756459
1.1755988
1.1755381
1.175465
1.1753802
1.1752846
1.175179
1.175064
1.1749403
1.1748085
1.1746689
1.1745221
1.1743683
1.1742079
1.1740409
1.1738673
1.1736869
1.1734997
1.173304
1.1731003
1.1728831
1.1726592
1.1724068
1.1721764
1.1718294
1.1717113
1.1709476
1.171523
1.1692704
1.1720608
1.1574888
1.1640126
1.1618307
1.1636427
1.1629699
1.1639279
1.1638025
1.1644376
1.1645706
1.1650656
1.1653394
1.1657798
1.1661326
1.1665605
1.1669597
1.1673931
1.1678205
1.168264
1.1687083
1.1691598
1.1696121
1.170066
1.1705182
1.1709674
1.1714111
1.1718474
1.1722742
1.1726895
1.1730911
1.1734771
1.1738457
1.1741951
1.174524
1.1748312
1.1751157
1.1753766
1.1756133
1.1758256
1.176013
1.1761728
1.1762765
1.1763689
1.1764357
1.1764795
1.1765033
1.1765068
1.1764916
1.1764591
1.1764102
1.1763463
1.1762686
1.1761784
1.1760765
1.1759642
1.1758422
1.1757116
1.1755731
1.1754275
1.1752753
1.1751171
1.1749533
1.1747842
1.1746102
1.1744313
1.1742476
1.1740591
1.1738655
1.1736665
1.1734608
1.1732479
1.1730244
1.1727915
1.1725401
1.1722905
1.1719724
1.171788
1.1711348
1.1715444
1.1694864
1.1721484
1.1584272
1.1649443
1.1627616
1.1646597
1.163993
1.165015
1.1649164
1.1656018
1.1657723
1.1663104
1.1666254
1.1671055
1.1674991
1.1679646
1.1684019
1.1688702
1.1693318
1.1698064
1.1702797
1.170757
1.1712321
1.1717051
1.1721726
1.1726328
1.1730832
1.1735215
1.1739454
1.1743528
1.1747416
1.1751098
1.1754555
1.1757774
1.1760742
1.1763449
1.1765891
1.1768061
1.1769957
1.177158
1.1772936
1.1774022
1.1774666
1.1774989
1.1775094
1.1774953
1.1774619
1.1774092
1.1773388
1.1772525
1.1771515
1.1770375
1.1769116
1.1767753
1.1766297
1.176476
1.1763151
1.1761479
1.1759752
1.1757977
1.1756161
1.1754307
1.1752419
1.17505
1.1748552
1.1746575
1.174457
1.1742534
1.1740465
1.1738357
1.17362
1.1733984
1.1731683
1.1729286
1.1726758
1.1724138
1.1721155
1.1718809
1.1713251
1.1715853
1.1697155
1.1722547
1.1595499
1.1660484
1.1638848
1.1658742
1.1652207
1.1663096
1.1662449
1.1669832
1.1671977
1.1677817
1.1681433
1.1686661
1.1691044
1.1696101
1.1700881
1.170593
1.1710898
1.1715958
1.1720977
1.1725994
1.1730951
1.1735839
1.1740624
1.1745284
1.1749792
1.1754123
1.1758252
1.1762159
1.1765822
1.1769222
1.1772345
1.1775177
1.177771
1.177994
1.1781863
1.1783482
1.1784798
1.178582
1.1786552
1.1787005
1.1787209
1.1786823
1.1786282
1.1785503
1.1784534
1.1783394
1.1782091
1.1780651
1.1779085
1.1777413
1.1775647
1.1773803
1.1771892
1.1769926
1.1767915
1.1765868
1.1763792
1.1761693
1.1759578
1.1757449
1.1755309
1.1753161
1.1751005
1.1748842
1.1746668
1.1744484
1.1742283
1.1740061
1.1737808
1.1735511
1.1733147
1.1730697
1.1728144
1.1725454
1.1722604
1.171989
1.1715163
1.1716444
1.1699551
1.1723781
1.1608737
1.1673694
1.1652212
1.1673045
1.1666708
1.1678294
1.1678057
1.1685997
1.1688647
1.1694976
1.169911
1.1704795
1.1709661
1.1715143
1.1720351
1.1725777
1.1731102
1.1736469
1.1741756
1.1746989
1.1752111
1.1757106
1.1761937
1.1766581
1.1771006
1.1775188
1.1779102
1.1782728
1.1786045
1.1789039
1.1791698
1.1794014
1.1795982
1.1797603
1.1798883
1.1799829
1.180045
1.1800758
1.1800766
1.1800496
1.1799968
1.1798985
1.1797721
1.1796252
1.1794599
1.1792801
1.1790863
1.1788815
1.1786668
1.1784444
1.1782155
1.1779818
1.1777444
1.1775044
1.1772629
1.1770205
1.176778
1.176536
1.1762948
1.1760548
1.175816
1.1755787
1.1753428
1.1751082
1.1748746
1.1746418
1.1744092
1.1741762
1.1739418
1.1737047
1.1734627
1.1732137
1.1729558
1.1726841
1.1724074
1.1721114
1.1717111
1.17172
1.1702104
1.1725198
1.1624053
1.168926
1.1667786
1.1689612
1.1683557
1.1695878
1.169614
1.1704673
1.1707905
1.1714761
1.171947
1.1725646
1.1731035
1.1736966
1.1742618
1.1748426
1.1754099
1.1759753
1.1765275
1.1770676
1.17759
1.1780925
1.1785713
1.1790235
1.1794463
1.1798369
1.1801933
1.1805134
1.1807958
1.1810395
1.1812438
1.1814086
1.1815341
1.1816213
1.1816714
1.1816859
1.1816666
1.1816152
1.1815341
1.1814259
1.1812908
1.181126
1.1809216
1.1807002
1.1804624
1.1802135
1.1799536
1.179686
1.1794119
1.1791334
1.1788518
1.1785687
1.1782852
1.1780022
1.1777208
1.1774414
1.1771649
1.1768915
1.1766216
1.1763553
1.1760927
1.1758338
1.1755785
1.1753266
1.1750776
1.1748313
1.174587
1.174344
1.1741015
1.1738579
1.1736113
1.1733596
1.1730998
1.1728286
1.1725566
1.1722471
1.1719083
1.1718112
1.1704829
1.1726759
1.1641506
1.1707039
1.1685682
1.1708571
1.1702901
1.171601
1.1716876
1.1726051
1.1729953
1.1737384
1.1742731
1.1749438
1.1755384
1.1761783
1.1767887
1.1774068
1.1780065
1.1785964
1.1791661
1.1797154
1.1802386
1.1807329
1.1811946
1.1816207
1.1820084
1.1823552
1.1826594
1.1829196
1.1831349
1.1833051
1.1834304
1.1835116
1.1835498
1.1835469
1.1835049
1.1834265
1.1833141
1.1831702
1.1829983
1.1828007
1.1825785
1.18234
1.1820521
1.1817525
1.18144
1.18112
1.1807931
1.1804622
1.1801288
1.1797946
1.1794611
1.1791296
1.1788011
1.1784765
1.1781565
1.1778418
1.1775327
1.1772295
1.1769324
1.1766414
1.1763564
1.1760774
1.175804
1.175536
1.1752729
1.1750143
1.1747595
1.1745077
1.1742581
1.1740092
1.1737592
1.1735059
1.1732456
1.1729774
1.1727081
1.1723949
1.1721073
1.1719181
1.1707786
1.1728354
1.1661157
1.1727233
1.170606
1.1730115
1.1724955
1.1738921
1.1740518
1.1750393
1.1755064
1.176312
1.1769169
1.1776442
1.1782972
1.1789846
1.1796388
1.180291
1.1809177
1.1815247
1.1821022
1.1826488
1.1831589
1.1836295
1.1840568
1.184438
1.1847708
1.1850533
1.1852844
1.1854636
1.1855912
1.1856678
1.1856949
1.1856744
1.1856085
1.1855001
1.1853523
1.1851687
1.1849526
1.1847074
1.1844369
1.184144
1.1838303
1.18351
1.1831387
1.1827591
1.1823715
1.1819805
1.1815872
1.1811942
1.1808027
1.1804147
1.1800312
1.1796534
1.1792821
1.1789182
1.1785621
1.1782141
1.1778747
1.1775439
1.1772216
1.1769079
1.1766025
1.1763052
1.1760155
1.1757331
1.1754575
1.1751881
1.1749242
1.1746651
1.1744098
1.1741569
1.1739048
1.1736512
1.1733921
1.1731288
1.1728613
1.172553
1.1723059
1.1720406
1.1710898
1.1729938
1.1683321
1.1750141
1.172923
1.1754552
1.1750048
1.1764938
1.1767402
1.1778036
1.1783573
1.1792305
1.1799108
1.180697
1.181409
1.1821419
1.1828356
1.1835149
1.1841588
1.1847704
1.1853407
1.1858673
1.1863448
1.1867701
1.18714
1.1874523
1.1877054
1.1878986
1.1880319
1.1881061
1.1881227
1.188084
1.1879927
1.187852
1.1876655
1.1874372
1.1871712
1.1868719
1.1865436
1.1861902
1.1858161
1.1854242
1.1850166
1.1846067
1.1841572
1.1836981
1.1832366
1.1827766
1.1823191
1.1818665
1.18142
1.1809811
1.1805507
1.1801298
1.179719
1.1793188
1.1789296
1.1785515
1.1781846
1.1778288
1.1774842
1.1771503
1.1768268
1.1765133
1.1762095
1.1759147
1.1756284
1.17535
1.1750787
1.1748138
1.1745543
1.1742989
1.1740462
1.1737937
1.1735378
1.1732809
1.1730156
1.1727192
1.1725023
1.1721776
1.1714039
1.173144
1.1708238
1.1776021
1.1755492
1.1782209
1.1778527
1.179442
1.1797903
1.180936
1.1815864
1.1825314
1.1832909
1.184136
1.1849043
1.1856768
1.1864006
1.1870944
1.1877394
1.1883367
1.1888776
1.1893594
1.1897775
1.1901292
1.1904122
1.1906257
1.1907693
1.1908439
1.1908514
1.1907941
1.1906754
1.1904991
1.1902696
1.1899915
1.1896698
1.1893094
1.1889154
1.1884929
1.1880467
1.1875814
1.1871017
1.1866102
1.1861094
1.1856128
1.1850842
1.1845486
1.1840165
1.1834912
1.1829735
1.1824656
1.1819682
1.1814827
1.1810096
1.1805498
1.1801034
1.1796709
1.1792522
1.1788475
1.1784566
1.1780792
1.177715
1.1773638
1.1770249
1.1766979
1.1763823
1.1760774
1.1757826
1.1754971
1.1752204
1.1749514
1.1746893
1.174433
1.1741812
1.1739313
1.1736807
1.1734314
1.17317
1.172891
1.1726953
1.1723285
1.1717128
1.1732901
1.1736344
1.1805231
1.178524
1.1813485
1.1810844
1.1827817
1.1832489
1.1844829
1.1852386
1.1862581
1.1870971
1.187997
1.1888135
1.1896133
1.1903502
1.1910377
1.1916589
1.1922134
1.1926936
1.1930971
1.1934204
1.1936623
1.1938223
1.1939013
1.1939013
1.1938252
1.193677
1.1934613
1.1931834
1.1928489
1.1924638
1.1920341
1.1915659
1.191065
1.1905371
1.1899879
1.1894223
1.1888452
1.1882614
1.1876728
1.1870823
1.1865039
1.185899
1.1852923
1.1846948
1.1841098
1.1835375
1.1829797
1.182437
1.1819101
1.1813995
1.1809056
1.1804284
1.179968
1.1795242
1.1790969
1.1786856
1.1782901
1.17791
1.1775445
1.1771932
1.1768554
1.1765306
1.176218
1.1759169
1.1756266
1.1753464
1.1750753
1.1748125
1.174557
1.1743076
1.1740618
1.1738184
1.1735775
1.1733227
1.173065
1.1728826
1.1724914
1.17202
1.1734313
1.1768154
1.1838232
1.1818972
1.1848898
1.1847547
1.1865675
1.1871719
1.1884995
1.1893659
1.1904582
1.191371
1.1923145
1.1931618
1.1939667
1.1946889
1.1953376
1.1958982
1.1963699
1.196747
1.1970282
1.1972125
1.1973011
1.197296
1.1972011
1.1970209
1.1967612
1.1964284
1.1960295
1.1955717
1.1950624
1.1945089
1.1939184
1.1932977
1.1926531
1.1919908
1.1913161
1.190634
1.1899496
1.189267
1.188587
1.1879141
1.187262
1.1865851
1.1859148
1.185259
1.1846213
1.1840011
1.1834001
1.1828183
1.1822562
1.1817138
1.1811913
1.1806885
1.1802051
1.1797408
1.1792952
1.1788677
1.1784579
1.1780652
1.1776889
1.1773282
1.1769826
1.1766513
1.1763335
1.1760286
1.1757357
1.175454
1.1751828
1.1749211
1.1746682
1.1744227
1.1741827
1.1739479
1.1737164
1.1734714
1.1732372
1.1730606
1.1726616
1.1723257
1.1735648
1.1803892
1.1875602
1.185735
1.1889064
1.1889284
1.1908624
1.1916216
1.1930473
1.1940242
1.1951793
1.1961499
1.1971137
1.1979614
1.1987344
1.199399
1.1999613
1.2004101
1.2007454
1.2009649
1.20107
1.2010633
1.2009495
1.2007343
1.2004249
1.2000292
1.199556
1.1990142
1.1984128
1.1977608
1.1970669
1.1963393
1.1955857
1.1948132
1.1940281
1.1932363
1.1924429
1.1916521
1.1908689
1.1900962
1.1893343
1.1885896
1.1878739
1.1871306
1.1864055
1.1856998
1.1850175
1.1843574
1.1837205
1.1831067
1.1825159
1.1819481
1.1814029
1.1808799
1.1803786
1.1798985
1.1794391
1.1789996
1.1785793
1.1781777
1.1777939
1.1774271
1.1770765
1.1767415
1.1764211
1.1761147
1.1758215
1.1755405
1.1752712
1.1750125
1.1747638
1.1745238
1.174291
1.1740662
1.1738449
1.1736131
1.1734034
1.1732287
1.1728358
1.1726218
1.1736874
1.1844362
1.1917785
1.1900974
1.1934735
1.1936933
1.1957549
1.1966723
1.1981853
1.1992645
1.2004603
1.2014569
1.2024006
1.2031988
1.2038836
1.2044282
1.2048382
1.2051075
1.2052392
1.2052359
1.2051036
1.2048497
1.2044834
1.2040148
1.2034548
1.2028147
1.2021058
1.201339
1.2005251
1.199674
1.1987948
1.197896
1.1969851
1.1960688
1.1951531
1.1942427
1.1933422
1.1924553
1.1915857
1.1907344
1.1899022
1.1890996
1.188328
1.1875282
1.1867581
1.1860124
1.1852944
1.1846027
1.1839379
1.1832994
1.1826869
1.1820999
1.1815379
1.1810002
1.1804862
1.1799952
1.1795263
1.1790789
1.1786521
1.1782451
1.1778571
1.1774873
1.1771347
1.1767986
1.1764783
1.1761727
1.1758813
1.1756032
1.1753376
1.1750837
1.1748409
1.1746079
1.1743839
1.1741698
1.1739593
1.1737436
1.173559
1.1733865
1.1730103
1.1728965
1.1737971
1.1890602
1.1965951
1.195107
1.1986805
1.1991483
1.201328
1.2024071
1.203985
1.2051328
1.2063262
1.2072909
1.2081471
1.2088193
1.2093338
1.2096731
1.2098456
1.2098525
1.2097029
1.2094058
1.2089736
1.2084192
1.2077566
1.2070004
1.2061646
1.2052631
1.2043089
1.2033141
1.2022897
1.2012458
1.2001911
1.1991334
1.1980793
1.1970345
1.1960038
1.1949911
1.1939993
1.1930318
1.192091
1.1911755
1.1902878
1.1894399
1.1886165
1.1877769
1.1869719
1.1861962
1.1854516
1.1847369
1.1840519
1.1833961
1.1827686
1.1821687
1.1815958
1.1810489
1.1805271
1.1800298
1.1795558
1.1791044
1.1786747
1.1782658
1.1778768
1.1775068
1.177155
1.1768205
1.1765024
1.1762001
1.1759126
1.1756392
1.1753791
1.1751318
1.1748964
1.1746717
1.1744578
1.174255
1.1740559
1.1738582
1.1736988
1.1735292
1.173175
1.1731458
1.1738917
1.1944463
1.2021816
1.2009777
1.2047125
1.2054091
1.2076598
1.2088904
1.2104988
1.21165
1.2127603
1.2135979
1.2142624
1.2146989
1.2149332
1.2149602
1.2147954
1.2144496
1.2139398
1.213283
1.2124978
1.2116026
1.2106157
1.2095545
1.208435
1.2072722
1.2060793
1.2048681
1.2036488
1.2024303
1.20122
1.2000242
1.1988479
1.1976956
1.1965705
1.1954751
1.194411
1.193381
1.1923851
1.1914206
1.1904928
1.1896132
1.1887468
1.1878801
1.1870502
1.1862541
1.1854918
1.1847623
1.1840648
1.1833986
1.1827626
1.1821559
1.1815775
1.1810264
1.1805016
1.1800022
1.1795272
1.1790755
1.1786463
1.1782387
1.1778516
1.1774842
1.1771357
1.176805
1.1764915
1.1761943
1.1759127
1.1756458
1.175393
1.1751536
1.1749269
1.1747119
1.174509
1.1743179
1.1741306
1.1739521
1.173815
1.1736469
1.1733228
1.1733729
1.1739704
1.200786
1.2086194
1.207718
1.2115245
1.2125926
1.214963
1.2162179
1.217739
1.2187692
1.2196565
1.2202232
1.2205519
1.220613
1.2204377
1.2200363
1.2194342
1.2186536
1.2177196
1.2166564
1.2154878
1.2142357
1.2129204
1.21156
1.2101706
1.2087659
1.207358
1.2059566
1.2045701
1.2032051
1.2018672
1.2005605
1.1992884
1.1980533
1.196857
1.1957001
1.1945842
1.1935102
1.1924756
1.1914776
1.1905269
1.1896291
1.1887269
1.1878438
1.1869989
1.1861915
1.1854198
1.1846833
1.1839805
1.1833104
1.1826719
1.1820638
1.181485
1.1809344
1.1804108
1.1799133
1.1794408
1.1789922
1.1785666
1.178163
1.1777805
1.1774182
1.1770751
1.1767505
1.1764434
1.1761532
1.175879
1.1756201
1.175376
1.1751458
1.1749289
1.1747246
1.1745337
1.1743544
1.1741798
1.1740206
1.1739001
1.1737345
1.173457
1.1735697
1.174022
1.2081108
1.2159535
1.2155778
1.2195991
1.2207619
1.2230485
1.2242668
1.2255272
1.2262676
1.2267517
1.2268684
1.2266945
1.2262302
1.2255181
1.2245857
1.2234693
1.2222006
1.2208111
1.2193291
1.2177802
1.2161865
1.2145673
1.2129388
1.2113146
1.2097055
1.2081206
1.2065669
1.2050498
1.2035733
1.2021406
1.2007537
1.199414
1.1981223
1.1968785
1.1956824
1.1945347
1.1934343
1.1923762
1.1913616
1.1904049
1.1894974
1.1885642
1.187676
1.1868258
1.1860156
1.1852425
1.1845059
1.1838042
1.1831361
1.1825004
1.1818958
1.1813211
1.180775
1.1802565
1.1797643
1.1792974
1.1788549
1.1784355
1.1780385
1.1776628
1.1773076
1.1769719
1.176655
1.176356
1.1760742
1.1758089
1.1755593
1.1753249
1.175105
1.1748988
1.1747061
1.1745274
1.1743601
1.1741994
1.1740592
1.1739514
1.1737917
1.1735658
1.1737173
1.1740448
1.2168337
1.2247303
1.2247825
1.2287105
1.2299402
1.2319134
1.2328447
1.2336043
1.233799
1.2336511
1.2331117
1.2322662
1.231144
1.2298005
1.228277
1.2266165
1.2248554
1.223026
1.2211557
1.2192675
1.21738
1.2155082
1.213664
1.2118567
1.2100933
1.2083787
1.2067168
1.2051098
1.2035594
1.202066
1.2006299
1.1992505
1.1979271
1.1966583
1.1954437
1.1942823
1.1931707
1.1921038
1.1910903
1.1901382
1.1892073
1.1882744
1.1873874
1.1865409
1.1857348
1.1849672
1.1842366
1.1835415
1.1828805
1.1822522
1.1816554
1.1810886
1.1805506
1.1800403
1.1795564
1.179098
1.1786638
1.1782531
1.1778646
1.1774977
1.1771513
1.1768246
1.1765168
1.1762271
1.1759549
1.1756994
1.17546
1.1752361
1.1750271
1.1748323
1.1746516
1.1744853
1.1743302
1.1741841
1.1740616
1.1739639
1.1738154
1.1736405
1.1738021
1.1740326
1.2275004
1.2349743
1.2353643
1.2388912
1.2398601
1.2411701
1.2414426
1.2413842
1.2407503
1.2397476
1.2383839
1.2367554
1.2349127
1.2329177
1.2308162
1.22865
1.2264521
1.2242495
1.2220633
1.2199099
1.2178014
1.2157469
1.2137527
1.2118232
1.2099608
1.2081671
1.2064423
1.2047864
1.2031983
1.2016768
1.2002201
1.1988269
1.1974946
1.1962215
1.1950065
1.1938473
1.1927377
1.1916771
1.1906794
1.1897387
1.1887885
1.1878661
1.1869876
1.1861519
1.1853565
1.1846
1.1838807
1.1831971
1.1825476
1.1819308
1.1813452
1.1807897
1.1802628
1.1797635
1.1792905
1.1788427
1.1784191
1.1780188
1.1776407
1.177284
1.1769478
1.1766313
1.1763337
1.1760543
1.1757925
1.1755475
1.1753188
1.1751059
1.1749081
1.1747249
1.1745564
1.1744022
1.1742593
1.1741279
1.1740209
1.1739311
1.173798
1.1736701
1.1738234
1.1739734
1.2398869
1.2464658
1.2468397
1.2494782
1.2497497
1.2499776
1.2492157
1.2480462
1.246369
1.2443813
1.2421332
1.2397211
1.2372014
1.2346294
1.2320439
1.2294761
1.2269486
1.2244781
1.2220763
1.2197508
1.2175066
1.2153463
1.2132709
1.2112802
1.209373
1.2075478
1.2058023
1.2041342
1.2025408
1.2010196
1.1995677
1.1981825
1.1968608
1.1956008
1.1944008
1.1932557
1.1921599
1.1911209
1.190149
1.1892123
1.1882563
1.1873518
1.1864894
1.1856702
1.1848909
1.1841504
1.1834467
1.1827784
1.1821438
1.1815416
1.1809702
1.1804285
1.1799151
1.1794288
1.1789685
1.1785331
1.1781217
1.1777332
1.1773667
1.1770213
1.1766962
1.1763906
1.1761039
1.1758353
1.1755842
1.17535
1.1751321
1.1749301
1.1747434
1.1745715
1.1744147
1.1742722
1.1741412
1.174024
1.1739302
1.1738476
1.1737326
1.1736447
1.1737775
1.1738569
1.2527011
1.2584389
1.2584353
1.2595295
1.2585778
1.2572881
1.2551948
1.2527572
1.2499886
1.2470566
1.2440234
1.2409643
1.237922
1.2349323
1.2320175
1.2291933
1.2264687
1.2238491
1.2213365
1.2189308
1.2166306
1.2144335
1.2123363
1.2103357
1.2084279
1.2066092
1.2048757
1.2032236
1.2016495
1.2001498
1.198721
1.1973596
1.1960628
1.1948285
1.1936536
1.1925307
1.1914596
1.1904548
1.1895079
1.1885554
1.187625
1.1867405
1.1858999
1.1851009
1.1843417
1.1836206
1.1829357
1.1822855
1.1816684
1.1810831
1.1805281
1.1800022
1.179504
1.1790325
1.1785864
1.1781648
1.1777667
1.1773911
1.1770372
1.176704
1.1763908
1.1760969
1.1758215
1.175564
1.1753238
1.1751004
1.1748933
1.174702
1.1745259
1.1743649
1.174219
1.1740872
1.1739677
1.1738634
1.1737804
1.173705
1.1736096
1.1735526
1.1736567
1.1736845
1.2667915
1.2697675
1.2685962
1.2671845
1.2644961
1.2614578
1.2580051
1.2544227
1.250767
1.2471402
1.2435824
1.2401311
1.2368037
1.2336117
1.230559
1.2276459
1.2248699
1.222227
1.2197125
1.2173207
1.215046
1.2128829
1.2108256
1.2088689
1.2070076
1.2052368
1.203552
1.2019486
1.2004225
1.19897
1.1975872
1.1962704
1.1950174
1.1938256
1.1926887
1.1916015
1.1905742
1.1896144
1.1886858
1.1877379
1.1868408
1.1859864
1.1851752
1.184404
1.1836716
1.1829759
1.1823154
1.1816885
1.1810938
1.1805298
1.1799953
1.1794889
1.1790094
1.1785558
1.178127
1.1777219
1.1773396
1.1769791
1.1766397
1.1763206
1.1760208
1.1757398
1.1754769
1.1752315
1.175003
1.1747908
1.1745946
1.1744139
1.1742483
1.1740976
1.1739616
1.1738395
1.1737303
1.1736368
1.173562
1.1734937
1.1734175
1.1733832
1.1734572
1.1734499
1.2785768
1.2769974
1.2740294
1.270377
1.2662456
1.261991
1.2577051
1.2535108
1.2494462
1.2455471
1.2418229
1.2382788
1.2349119
1.2317169
1.2286867
1.2258133
1.2230885
1.2205041
1.2180522
1.2157246
1.2135147
1.2114152
1.2094203
1.2075235
1.2057199
1.2040041
1.2023716
1.2008176
1.1993386
1.1979303
1.1965891
1.1953121
1.1940975
1.1929408
1.1918346
1.1907814
1.1897972
1.1888661
1.1879161
1.1869986
1.1861259
1.1852966
1.1845081
1.1837589
1.1830472
1.1823712
1.1817295
1.1811205
1.1805428
1.1799951
1.1794761
1.1789846
1.1785193
1.1780793
1.1776635
1.1772708
1.1769005
1.1765515
1.1762231
1.1759145
1.1756249
1.1753536
1.1751
1.1748636
1.1746437
1.1744398
1.1742516
1.1740785
1.1739203
1.1737767
1.1736474
1.1735319
1.1734296
1.1733426
1.1732717
1.1732086
1.1731481
1.1731228
1.1731623
1.1731508
1.2787443
1.2749091
1.2709483
1.2665023
1.2619729
1.2574811
1.2531291
1.2489576
1.244983
1.2412112
1.2376375
1.2342553
1.2310548
1.228026
1.2251584
1.2224423
1.2198684
1.2174282
1.2151136
1.212917
1.2108314
1.2088503
1.2069677
1.205178
1.203476
1.2018569
1.2003164
1.1988502
1.1974547
1.1961261
1.1948609
1.1936567
1.1925108
1.191417
1.1903725
1.1893881
1.1884639
1.1875524
1.18664
1.1857741
1.18495
1.1841669
1.1834226
1.1827154
1.1820438
1.181406
1.1808008
1.1802267
1.1796822
1.1791663
1.1786777
1.1782151
1.1777776
1.1773641
1.1769735
1.1766051
1.1762577
1.1759307
1.1756233
1.1753346
1.1750639
1.1748107
1.1745742
1.1743539
1.1741493
1.1739598
1.173785
1.1736246
1.1734781
1.1733453
1.173226
1.1731197
1.1730263
1.1729466
1.1728805
1.1728243
1.1727772
1.1727529
1.1727609
1.1727572
1.2592847
1.260242
1.2585242
1.2560155
1.2528863
1.2495683
1.2461578
1.2427791
1.2394691
1.2362654
1.2331797
1.2302207
1.2273895
1.2246851
1.2221042
1.2196426
1.2172952
1.2150571
1.2129231
1.2108883
1.2089479
1.2070974
1.2053324
1.2036489
1.2020427
1.2005107
1.1990487
1.1976543
1.1963235
1.1950538
1.1938424
1.1926882
1.1915852
1.1905286
1.1895249
1.188586
1.187685
1.1867588
1.1858788
1.1850387
1.1842395
1.1834784
1.1827544
1.1820658
1.1814112
1.1807893
1.1801987
1.1796381
1.1791062
1.178602
1.1781242
1.1776719
1.1772439
1.1768392
1.1764569
1.1760961
1.175756
1.1754357
1.1751344
1.1748515
1.1745862
1.1743378
1.1741057
1.1738894
1.1736883
1.1735019
1.1733298
1.1731715
1.1730267
1.1728951
1.1727764
1.1726703
1.1725765
1.1724954
1.1724266
1.1723691
1.1723233
1.1722918
1.1722758
1.1722705
1.2675159
1.266721
1.2655129
1.2640286
1.2616491
1.258639
1.2546955
1.2501545
1.2452297
1.2401843
1.2350696
1.229956
1.2250022
1.2201834
1.215606
1.2114159
1.2075731
1.204141
1.201074
1.1983451
1.1959127
1.1937803
1.1918852
1.1902394
1.1887662
1.1874615
1.1863055
1.185266
1.1843349
1.1835018
1.1827509
1.1820597
1.1814187
1.1808177
1.1802535
1.1797204
1.1792171
1.1787402
1.1782894
1.1778598
1.1774519
1.1770653
1.176697
1.1763493
1.1760204
1.1757109
1.1754198
1.1751461
1.1748889
1.1746473
1.1744204
1.1742075
1.1740072
1.1738192
1.1736412
1.1734742
1.173314
1.1731649
1.1730172
1.1728834
1.1727414
1.1726228
1.1724764
1.1723769
1.1722099
1.1721413
1.1719258
1.1719147
1.1716012
1.1716993
1.1712041
1.1715045
1.1706946
1.1713515
1.170021
1.1712776
1.1691053
1.1713196
1.1678421
1.1715356
1.0968079
1.1038468
1.1127585
1.1221431
1.1315106
1.1401306
1.1471732
1.1530745
1.1581984
1.1626056
1.1663562
1.1695986
1.1723685
1.174741
1.1767608
1.1784578
1.1798661
1.1809972
1.181886
1.1825432
1.1829988
1.1832773
1.1833882
1.1833782
1.183254
1.1830429
1.1827614
1.1824133
1.1820322
1.1816216
1.1811839
1.1807328
1.1802734
1.1798139
1.1793609
1.178919
1.17849
1.1780752
1.177679
1.1773014
1.1769408
1.1765979
1.1762724
1.1759628
1.1756703
1.1753944
1.1751343
1.1748895
1.1746592
1.1744427
1.1742389
1.1740474
1.1738667
1.1736969
1.1735356
1.1733842
1.1732382
1.1731019
1.1729661
1.1728427
1.1727106
1.1725997
1.1724624
1.1723673
1.1722095
1.1721414
1.171937
1.1719206
1.1716225
1.1717084
1.1712351
1.171515
1.1707328
1.171365
1.1700559
1.1712965
1.169128
1.1713543
1.1678399
1.1715898
1.211082
1.2121997
1.2143732
1.2161845
1.2159887
1.2147056
1.2129491
1.2109786
1.2088797
1.2067656
1.2046438
1.2025886
1.2005978
1.1987133
1.19691
1.1952198
1.1936288
1.1921561
1.1907885
1.1895332
1.1883894
1.1873656
1.186448
1.1855896
1.1848137
1.184101
1.1833939
1.1827516
1.1821114
1.1815057
1.1809196
1.1803782
1.1798624
1.1793855
1.1789321
1.1785003
1.1780905
1.1777016
1.1773347
1.1769798
1.1766433
1.1763254
1.1760224
1.175736
1.175466
1.1752106
1.1749691
1.1747412
1.1745263
1.1743239
1.1741332
1.1739536
1.1737839
1.1736242
1.1734723
1.1733295
1.1731914
1.1730625
1.1729335
1.1728164
1.1726903
1.1725844
1.1724522
1.1723605
1.1722075
1.1721401
1.1719414
1.1719222
1.1716316
1.1717093
1.1712494
1.1715121
1.170752
1.1713559
1.1700815
1.1712866
1.1691545
1.1713502
1.1678578
1.1716051
1.1709379
1.1709533
1.1738238
1.1785501
1.1802097
1.1809776
1.1813177
1.1815997
1.1818438
1.1821111
1.1823433
1.1825855
1.1827844
1.1829983
1.1830727
1.1832427
1.1832217
1.1832891
1.1832094
1.183127
1.1830077
1.1828599
1.1826996
1.1824379
1.1821898
1.1818514
1.1814857
1.1811012
1.1807093
1.1803159
1.1799214
1.1795256
1.1791341
1.1787473
1.1783694
1.1780005
1.1776427
1.1772974
1.176965
1.1766451
1.17634
1.1760486
1.1757711
1.1755073
1.1752573
1.1750205
1.1747976
1.174587
1.1743885
1.1742016
1.1740255
1.1738597
1.1737031
1.1735557
1.1734151
1.1732828
1.1731544
1.1730345
1.1729137
1.1728041
1.1726846
1.1725849
1.1724575
1.1723708
1.172221
1.1721577
1.1719604
1.1719449
1.1716543
1.1717353
1.1712733
1.1715402
1.1707756
1.171385
1.170102
1.1713123
1.1691712
1.1713745
1.1678696
1.1716287
1.1778003
1.1797985
1.1842743
1.1878686
1.1885477
1.1885506
1.1882381
1.187953
1.1875758
1.1872577
1.1868796
1.1865453
1.1861684
1.1858216
1.1854533
1.1851021
1.1847337
1.1843596
1.1839796
1.1835876
1.1831825
1.1827433
1.1822968
1.1818707
1.1814353
1.1810223
1.1806195
1.1802281
1.1798447
1.1794694
1.1791006
1.1787404
1.1783895
1.1780491
1.1777182
1.1773963
1.1770852
1.1767848
1.1764954
1.176216
1.1759489
1.1756931
1.1754488
1.1752156
1.1749942
1.174784
1.1745856
1.1743978
1.1742202
1.1740528
1.1738946
1.1737455
1.1736042
1.1734709
1.1733434
1.1732231
1.1731058
1.172996
1.1728843
1.1727829
1.1726708
1.1725773
1.172456
1.1723736
1.1722286
1.1721677
1.1719744
1.1719593
1.1716725
1.1717517
1.1712945
1.1715563
1.1707978
1.171399
1.170126
1.1713262
1.1691934
1.1713895
1.1678843
1.1716482
1.1717448
1.173499
1.1780352
1.1820396
1.1831046
1.1831962
1.1827588
1.1827426
1.1824131
1.1823818
1.1821283
1.1820569
1.1818517
1.1817176
1.1815205
1.1813562
1.1811584
1.1809769
1.1807793
1.1805856
1.1803835
1.1801871
1.1799808
1.179764
1.1795386
1.1793041
1.17906
1.1788094
1.1785539
1.1782947
1.1780318
1.1777672
1.1775029
1.1772401
1.1769795
1.1767219
1.1764693
1.1762227
1.175982
1.1757482
1.1755233
1.1753071
1.1750982
1.1748987
1.1747082
1.1745273
1.1743548
1.1741916
1.1740371
1.1738911
1.1737529
1.1736222
1.1734981
1.1733805
1.1732675
1.1731605
1.1730555
1.1729566
1.172855
1.1727623
1.1726584
1.1725715
1.1724565
1.1723787
1.1722387
1.1721805
1.1719912
1.1719769
1.1716939
1.1717716
1.1713182
1.1715766
1.1708229
1.1714185
1.1701496
1.1713437
1.1692141
1.1714065
1.1678986
1.1716675
1.1705896
1.1728041
1.1777152
1.1812812
1.1819988
1.1820052
1.1817174
1.1815788
1.1813443
1.1811862
1.180959
1.1807872
1.1805704
1.1804004
1.1801942
1.1800254
1.1798326
1.1796566
1.1794631
1.1792797
1.1790838
1.1788908
1.1786899
1.1784911
1.1782874
1.1780841
1.1778783
1.1776722
1.1774655
1.1772579
1.1770485
1.1768394
1.1766312
1.1764246
1.1762195
1.176016
1.1758161
1.1756201
1.1754272
1.1752395
1.1750583
1.1748827
1.1747129
1.1745495
1.1743931
1.1742437
1.1741012
1.1739657
1.1738369
1.1737146
1.1735984
1.173488
1.1733826
1.1732822
1.1731852
1.1730925
1.1730007
1.1729136
1.1728228
1.1727393
1.172644
1.172564
1.1724559
1.1723826
1.1722482
1.1721923
1.1720076
1.1719932
1.171715
1.1717901
1.1713422
1.1715951
1.1708475
1.1714355
1.1701749
1.1713595
1.1692365
1.1714223
1.1679135
1.1716859
1.1681033
1.1705952
1.1756903