/*--------------------------------*- C++ -*----------------------------------*\
  =========                 |
  \\      /  F ield         | OpenFOAM: The Open Source CFD Toolbox
   \\    /   O peration     | Website:  https://openfoam.org
    \\  /    A nd           | Version:  6
     \\/     M anipulation  |
\*---------------------------------------------------------------------------*/
FoamFile
{
    version     2.0;
    format      ascii;
    class       volScalarField;
    location    "200";
    object      T;
}
// * * * * * * * * * * * * * * * * * * * * * * * * * * * * * * * * * * * * * //

dimensions      [0 0 0 1 0 0 0];

internalField   nonuniform List<scalar> 
16000
(
297.03775
295.48038
296.02805
295.79869
295.99077
295.94422
296.03826
296.04964
296.11337
296.14699
296.2013
296.24491
296.29681
296.34536
296.39733
296.44848
296.50103
296.55341
296.60622
296.65884
296.71133
296.76341
296.81502
296.86603
296.91641
296.96614
297.01524
297.06374
297.11168
297.15913
297.20613
297.25267
297.29877
297.34457
297.38641
297.42794
297.46901
297.50921
297.54786
297.58494
297.62048
297.65424
297.68611
297.71606
297.74404
297.76998
297.79387
297.81571
297.83549
297.85323
297.86896
297.88272
297.89455
297.90452
297.9127
297.91914
297.92391
297.92711
297.92883
297.92918
297.92824
297.92616
297.92297
297.9189
297.91385
297.9083
297.90175
297.89566
297.88816
297.88373
297.87546
297.87638
297.86407
297.87762
297.85141
297.89717
297.8403
297.95075
297.84307
298.01496
297.04052
295.49435
296.06701
295.83147
296.03043
295.98347
296.08156
296.09446
296.16134
296.19751
296.25421
296.30048
296.35465
296.40569
296.45983
296.5132
296.56771
296.62199
296.67648
296.73066
296.78453
296.83785
296.89058
296.9426
296.99392
297.04453
297.09446
297.14376
297.19248
297.24064
297.28824
297.33528
297.38172
297.42735
297.4723
297.51527
297.55461
297.59329
297.6306
297.66603
297.69959
297.73118
297.7607
297.78814
297.81348
297.8367
297.8578
297.8768
297.89372
297.9086
297.92148
297.93243
297.94151
297.9488
297.95437
297.9583
297.96066
297.96156
297.96109
297.95935
297.95644
297.95247
297.94754
297.94178
297.93521
297.92809
297.92028
297.91253
297.90418
297.89752
297.88946
297.88669
297.87723
297.88323
297.86573
297.89692
297.8558
297.94371
297.85976
298.00321
297.06037
295.52947
296.11838
295.88192
296.08592
296.04104
296.14216
296.15821
296.22743
296.26681
296.3259
296.37518
296.43173
296.48547
296.54188
296.59758
296.65411
296.71033
296.76652
296.82225
296.87749
296.93205
296.98588
297.03891
297.09116
297.14265
297.1934
297.24347
297.29288
297.34162
297.38966
297.43694
297.48336
297.5288
297.57301
297.61581
297.65738
297.69366
297.72838
297.76149
297.79247
297.82115
297.8476
297.87183
297.89384
297.91363
297.93125
297.94673
297.96012
297.9715
297.98092
297.98847
297.99424
297.9983
298.00075
298.0017
298.00121
297.99939
297.99635
297.99217
297.98698
297.98086
297.97392
297.96626
297.95796
297.94916
297.93989
297.93053
297.92103
297.91257
297.90401
297.89866
297.89043
297.89159
297.87884
297.89972
297.87055
297.94175
297.87402
298.00333
297.09612
295.58722
296.18768
295.95097
296.15944
296.11728
296.22132
296.24085
296.31259
296.35541
296.417
296.46944
296.52847
296.58497
296.6437
296.70174
296.7603
296.81842
296.87628
296.93353
296.9901
297.04586
297.10076
297.15477
297.20791
297.26019
297.31166
297.36232
297.41217
297.46116
297.50921
297.5562
297.60199
297.64643
297.68931
297.73043
297.76954
297.80686
297.83863
297.86809
297.89577
297.92087
297.94349
297.96381
297.98181
297.99753
298.01105
298.02244
298.03177
298.03913
298.04462
298.04833
298.05037
298.05083
298.04983
298.04748
298.04385
298.03906
298.0332
298.02638
298.0187
298.01026
298.00116
297.99148
297.98131
297.97076
297.95988
297.94894
297.93807
297.92801
297.91848
297.91121
297.90312
297.90091
297.89098
297.9047
297.88269
297.94194
297.88543
298.00411
297.14831
295.66885
296.27462
296.03902
296.2511
296.21285
296.31947
296.34319
296.41739
296.46409
296.52828
296.58412
296.64576
296.70517
296.76631
296.82676
296.8874
296.94747
297.00704
297.06582
297.12374
297.1807
297.23667
297.29162
297.34558
297.39855
297.45054
297.50154
297.55148
297.60028
297.6478
297.69387
297.73833
297.781
297.82168
297.86019
297.89637
297.93005
297.96154
297.9865
298.00967
298.03052
298.04854
298.06419
298.07749
298.08848
298.09728
298.10397
298.10868
298.11151
298.11258
298.11201
298.10991
298.1064
298.10161
298.09564
298.08859
298.08056
298.07166
298.062
298.05165
298.04073
298.02932
298.0175
298.00536
297.99298
297.98042
297.96788
297.95556
297.94398
297.9333
297.92443
297.91596
297.91133
297.90285
297.91123
297.8955
297.94404
297.89606
298.00868
297.21768
295.77606
296.37846
296.14684
296.36183
296.32857
296.43746
296.46607
296.54278
296.59374
296.66069
296.72015
296.78456
296.84699
296.91067
296.9736
297.03639
297.09843
297.15973
297.22005
297.27931
297.33745
297.39443
297.45022
297.50484
297.55826
297.61045
297.66134
297.71084
297.7588
297.80503
297.84936
297.89159
297.93154
297.96905
298.00396
298.03615
298.06556
298.09212
298.11547
298.13264
298.14833
298.16114
298.17136
298.1793
298.18491
298.18839
298.18987
298.18945
298.18731
298.18356
298.17834
298.17178
298.16401
298.15516
298.14534
298.13467
298.12324
298.11114
298.09848
298.08535
298.07184
298.05803
298.044
298.02982
298.01556
298.00128
297.98712
297.97331
297.96026
297.94831
297.93803
297.92888
297.92239
297.91464
297.91877
297.90723
297.94772
297.9073
298.01476
297.3044
295.90895
296.50122
296.275
296.49209
296.4651
296.57608
296.61026
296.68965
296.74526
296.81523
296.87856
296.94597
297.0116
297.07796
297.14348
297.20852
297.2726
297.33566
297.39753
297.45812
297.51736
297.57521
297.63164
297.68661
297.74007
297.79194
297.84211
297.89041
297.93667
297.98069
298.02225
298.06119
298.09734
298.13059
298.16082
298.18799
298.21204
298.23306
298.251
298.26392
298.27325
298.2801
298.28418
298.28605
298.2857
298.28331
298.27907
298.27309
298.26558
298.25666
298.24649
298.23521
298.22295
298.20985
298.19602
298.18158
298.16661
298.15121
298.13547
298.11948
298.10332
298.08707
298.07078
298.05453
298.03837
298.02236
298.0066
297.99128
297.97679
297.96355
297.95199
297.94199
297.93403
297.92649
297.92722
297.91907
297.95245
297.91819
298.02201
297.40864
296.06216
296.64222
296.42393
296.64253
296.62319
296.73629
296.77684
296.8592
296.91994
296.99326
297.06076
297.13144
297.20045
297.26969
297.3379
297.40527
297.47142
297.53625
297.59961
297.66139
297.72154
297.77998
297.83665
297.89147
297.94434
297.99513
298.04367
298.08977
298.13324
298.17386
298.21144
298.24584
298.27696
298.30472
298.3291
298.35008
298.36775
298.38214
298.39334
298.40165
298.40351
298.40353
298.40088
298.39605
298.38921
298.38048
298.37011
298.35823
298.34505
298.33071
298.31538
298.2992
298.28231
298.26484
298.24691
298.22862
298.21007
298.19132
298.17248
298.15361
298.13479
298.11609
298.09755
298.07924
298.06119
298.04346
298.02612
298.00934
297.99347
297.97893
297.96615
297.95522
297.94609
297.93844
297.93641
297.93071
297.95795
297.92914
298.02953
297.53369
296.2197
296.80474
296.59649
296.81585
296.80537
296.92055
296.96807
297.05369
297.1199
297.19688
297.26877
297.34294
297.41547
297.4877
297.55867
297.62839
297.69657
297.76306
297.82772
297.89042
297.95109
298.00961
298.06588
298.11976
298.17111
298.21975
298.26548
298.3081
298.34741
298.38324
298.41543
298.44389
298.46858
298.48953
298.50679
298.52042
298.53055
298.5373
298.54088
298.54154
298.53709
298.52952
298.51959
298.50755
298.49379
298.47834
298.46154
298.4435
298.42444
298.40453
298.38392
298.36276
298.34119
298.31932
298.29727
298.27514
298.25301
298.23094
298.20903
298.18732
298.16588
298.14477
298.12402
298.10369
298.08381
298.06441
298.04555
298.02737
298.01016
297.99437
297.98044
297.96855
297.95846
297.95048
297.94624
297.94231
297.96392
297.94037
298.03659
297.68268
296.41279
296.98994
296.79396
297.01344
297.013
297.13039
297.18552
297.27478
297.34684
297.42786
297.50439
297.58232
297.65851
297.73386
297.80759
297.87961
297.94967
298.01756
298.08315
298.14627
298.2068
298.26458
298.31947
298.37128
298.41982
298.4649
298.50631
298.54387
298.5774
298.60681
298.632
298.65297
298.66977
298.6825
298.69133
298.6964
298.6979
298.69605
298.69113
298.68316
298.67175
298.65601
298.63827
298.61863
298.59759
298.57518
298.55175
298.52741
298.5024
298.47686
298.45097
298.42484
298.39862
298.37241
298.34632
298.32043
298.29481
298.26951
298.24461
298.22016
298.19619
298.17276
298.14989
298.12763
298.10599
298.08501
298.0647
298.04519
298.02674
298.00976
297.99473
297.98188
297.971
297.96253
297.95658
297.95384
297.97017
297.95082
298.04298
297.85473
296.62207
297.19823
297.01699
297.23636
297.24737
297.36739
297.43089
297.5244
297.60278
297.68832
297.76978
297.85175
297.93173
298.01024
298.08665
298.16077
298.23235
298.30115
298.36699
298.42968
298.48904
298.54487
298.59698
298.64516
298.68921
298.72894
298.76417
298.79477
298.82066
298.84181
298.85825
298.87007
298.87742
298.88052
298.87962
298.87496
298.86681
298.85548
298.84123
298.82414
298.80506
298.78059
298.75468
298.7272
298.6987
298.66923
298.63911
298.60849
298.57756
298.54648
298.51539
298.48442
298.45369
298.42329
298.3933
298.3638
298.33484
298.30647
298.27874
298.25168
298.22532
298.1997
298.17484
298.15076
298.12748
298.10502
298.08338
298.06266
298.04305
298.02497
298.0089
297.99513
297.98357
297.97453
297.96731
297.96523
297.97647
297.96094
298.05057
298.05234
296.86025
297.43193
297.26808
297.48718
297.51103
297.63426
297.70686
297.80531
297.89046
297.98101
298.06764
298.15385
298.23761
298.31915
298.39793
298.47367
298.54608
298.61491
298.6799
298.74084
298.7975
298.84965
298.89708
298.9396
298.97702
299.00921
299.03606
299.05755
299.0737
299.08462
299.09045
299.09142
299.08779
299.07988
299.06803
299.0526
299.03391
299.01233
298.98817
298.96155
298.93395
298.90079
298.86651
298.83115
298.79519
298.75872
298.72203
298.68526
298.64859
298.61216
298.5761
298.54051
298.50549
298.47113
298.43747
298.40459
298.37251
298.34128
298.31091
298.28144
298.25287
298.22524
298.19854
298.1728
298.14802
298.12421
298.10138
298.07957
298.05894
298.03986
298.02282
298.00816
297.996
297.98636
297.97828
297.97641
297.98292
297.97067
298.05663
298.27641
297.12767
297.69353
297.54984
297.76878
297.80694
297.93416
298.01662
298.12076
298.2131
298.30909
298.40103
298.4915
298.57879
298.66295
298.7434
298.81984
298.89191
298.95931
299.02176
299.07901
299.13082
299.17696
299.21726
299.25156
299.27976
299.30184
299.31783
299.32783
299.33203
299.33067
299.32406
299.31253
299.29648
299.27633
299.25252
299.22546
299.19556
299.16325
299.12881
299.09243
299.0555
299.01416
298.97156
298.92846
298.88523
298.84199
298.79899
298.75635
298.71425
298.67279
298.63207
298.59218
298.5532
298.51518
298.47816
298.44218
298.40726
298.37342
298.34067
298.30901
298.27847
298.24902
298.22069
298.19346
298.16735
298.14236
298.11848
298.09573
298.07422
298.05427
298.03634
298.02085
298.00811
297.99789
297.98929
297.98722
297.98951
297.98068
298.06263
298.52594
297.42789
297.98639
297.86591
298.0849
298.13887
298.27101
298.36405
298.47464
298.5745
298.67618
298.77331
298.86771
298.95789
299.04372
299.1246
299.20015
299.26998
299.33378
299.39124
299.44212
299.4862
299.52335
299.55345
299.57648
299.5925
299.60162
299.60407
299.60012
299.59014
299.57454
299.55377
299.52831
299.49866
299.46531
299.42879
299.38957
299.34809
299.30484
299.26006
299.21398
299.16799
299.11841
299.06779
299.01725
298.96713
298.91751
298.86862
298.82055
298.77344
298.72736
298.68241
298.63863
298.59607
298.55476
298.51474
298.47601
298.43857
298.40243
298.36758
298.33402
298.30174
298.27073
298.24097
298.21247
298.18522
298.15921
298.13444
298.11092
298.0887
298.06802
298.0493
298.03304
298.01972
298.00894
298.00013
297.99756
297.99608
297.98967
298.0667
298.7946
297.76464
298.31438
298.22029
298.43993
298.51118
298.6494
298.75367
298.87136
298.97883
299.08612
299.18789
299.28534
299.3771
299.4629
299.5421
299.6143
299.67908
299.73615
299.78525
299.82622
299.85895
299.88345
299.89977
299.90809
299.90867
299.90186
299.88808
299.86782
299.84163
299.81008
299.77377
299.73328
299.68921
299.64211
299.59253
299.54099
299.48795
299.4339
299.37904
299.3236
299.26906
299.21146
299.15336
299.09592
299.03946
298.98402
298.92979
298.87682
298.82523
298.77506
298.72636
298.67916
298.63348
298.58933
298.54671
298.50561
298.46602
298.42792
298.39129
298.35612
298.32238
298.29005
298.25911
298.22955
298.20136
298.17453
298.14905
298.12492
298.10217
298.08095
298.06158
298.04461
298.03064
298.01932
298.01053
298.0073
298.00265
297.99824
298.06957
299.09917
298.14293
298.68245
298.61834
298.83941
298.9294
299.07491
299.19068
299.31587
299.4306
299.5428
299.64791
299.74665
299.83768
299.92064
299.9949
300.06008
300.11583
300.16194
300.19833
300.22498
300.24202
300.24968
300.24828
300.23827
300.22016
300.19456
300.16212
300.12353
300.07951
300.03078
299.97804
299.92195
299.86314
299.80223
299.73972
299.67614
299.61197
299.54765
299.48327
299.41917
299.35686
299.29169
299.22684
299.16319
299.10109
299.04051
298.9816
298.92438
298.86893
298.81525
298.76336
298.71327
298.66497
298.61844
298.57365
298.5306
298.48924
298.44954
298.41146
298.37499
298.34009
298.30672
298.27485
298.24447
298.21556
298.1881
298.16209
298.13752
298.11441
298.09282
298.07298
298.05542
298.04075
298.02883
298.02014
298.01622
298.00906
298.00634
298.07118
299.4392
298.56896
299.09727
299.0667
299.29037
299.40037
299.55463
299.68111
299.81346
299.93433
300.04972
300.15562
300.25248
300.33897
300.41478
300.47933
300.5324
300.57381
300.60362
300.62197
300.62919
300.62572
300.61211
300.58904
300.55724
300.51753
300.47075
300.41778
300.35948
300.29669
300.23022
300.16082
300.08919
300.01596
299.94171
299.86695
299.79208
299.71761
299.64387
299.57088
299.49917
299.43011
299.35789
299.28717
299.21817
299.15124
299.0863
299.02346
298.9627
298.90405
298.84749
298.79302
298.74059
298.69019
298.64176
298.59528
298.5507
298.50796
298.46704
298.42787
298.39041
298.35464
298.32051
298.28797
298.25701
298.2276
298.19971
298.17335
298.14851
298.12519
298.10343
298.08334
298.06533
298.04995
298.03733
298.02862
298.02415
298.0155
298.01412
298.07094
299.82311
299.04924
299.56537
299.57285
299.79969
299.92977
300.09636
300.23203
300.36964
300.49361
300.60866
300.71093
300.80079
300.87704
300.9395
300.98787
301.02221
301.04275
301.04991
301.04429
301.02663
300.9978
300.95874
300.91049
300.8541
300.79063
300.72115
300.64668
300.56818
300.48656
300.40262
300.31713
300.23074
300.14403
300.0575
299.9716
299.88668
299.80312
299.72109
299.64062
299.56266
299.48764
299.40935
299.33375
299.26035
299.18949
299.12104
299.05506
298.99151
298.93036
298.87158
298.81512
298.76093
298.70895
298.65913
298.61141
298.56573
298.52202
298.48024
298.44031
298.4022
298.36586
298.33123
298.29828
298.26698
298.23728
298.20917
298.18264
298.15769
298.13432
298.11254
298.09241
298.0742
298.05822
298.0448
298.03574
298.03075
298.02153
298.02062
298.06873
300.25552
299.5974
300.09811
300.14672
300.3789
300.53056
300.70135
300.84586
300.9865
301.10892
301.21783
301.30976
301.3851
301.44311
301.48399
301.50798
301.51569
301.50792
301.48568
301.45011
301.40247
301.34407
301.27627
301.20041
301.11778
301.02963
300.93713
300.84134
300.74325
300.64372
300.5435
300.44326
300.34356
300.2449
300.14767
300.05216
299.9587
299.86756
299.77866
299.69215
299.60924
299.52862
299.44592
299.36645
299.28968
299.21581
299.14472
299.0764
299.0108
298.94785
298.88749
298.82965
298.77425
298.72122
298.67049
298.62198
298.57562
298.53133
298.48904
298.4487
298.41024
298.37361
298.33876
298.30565
298.27422
298.24445
298.21631
298.18979
298.16488
298.14159
298.11992
298.09993
298.08176
298.06545
298.05135
298.04155
298.0354
298.02579
298.02665
298.06552
300.74098
300.22668
300.70714
300.80246
301.0359
301.2056
301.38386
301.53028
301.6654
301.77801
301.87107
301.94242
301.99268
302.02195
302.03114
302.02131
301.99387
301.95036
301.89245
301.82189
301.74043
301.64976
301.55152
301.44726
301.33837
301.22613
301.1117
300.99606
300.8801
300.76456
300.65005
300.5371
300.42615
300.31752
300.2115
300.10825
300.00803
299.91091
299.81665
299.72563
299.6391
299.55375
299.46794
299.38562
299.30645
299.23047
299.15758
299.08771
299.02078
298.9567
298.89538
298.83673
298.78066
298.72708
298.6759
298.62702
298.58037
298.53587
298.49343
298.45299
298.41448
298.37784
298.34302
298.30996
298.27863
298.24899
298.22101
298.19466
298.16994
298.14685
298.1254
298.10565
298.0877
298.07139
298.05705
298.04639
298.03801
298.02801
298.03343
298.06097
301.30741
300.9553
301.41084
301.54506
301.77086
301.96415
302.13972
302.27986
302.39827
302.48824
302.55211
302.58936
302.60154
302.58996
302.55664
302.50368
302.43339
302.3481
302.2501
302.14162
302.02474
301.90134
301.77317
301.64174
301.50839
301.37429
301.24041
301.10756
300.97643
300.84757
300.72141
300.5983
300.47849
300.36218
300.24946
300.14047
300.03533
299.93387
299.83578
299.74194
299.65319
299.56385
299.47602
299.39185
299.31122
299.23399
299.1601
299.08942
299.02184
298.95725
298.89556
298.83664
298.78039
298.72671
298.6755
298.62665
298.58009
298.53571
298.49344
298.45319
298.4149
298.37851
298.34395
298.31118
298.28014
298.25081
298.22315
298.19713
298.17275
298.14998
298.12885
298.10942
298.09174
298.07564
298.06153
298.05053
298.04034
298.02951
298.03655
298.05502
301.97094
301.78195
302.18402
302.38283
302.64521
302.81493
302.96801
303.08335
303.16671
303.21558
303.23297
303.22018
303.18026
303.116
303.03065
302.92734
302.80919
302.6791
302.53976
302.39355
302.24257
302.08868
301.93342
301.77812
301.62384
301.47149
301.32177
301.17523
301.03231
300.89332
300.75849
300.62799
300.50191
300.38026
300.26304
300.15031
300.04203
299.93777
299.83749
299.74254
299.65257
299.55968
299.47096
299.38593
299.30472
299.22707
299.1529
299.08208
299.01447
298.94995
298.8884
298.82969
298.77371
298.72035
298.66949
298.62104
298.5749
298.53096
298.48914
298.44937
298.41156
298.37564
298.34157
298.30928
298.27872
298.24987
298.22268
298.19713
298.1732
298.15089
298.13018
298.11115
298.09377
298.07793
298.06419
298.0532
298.04224
298.0313
298.03656
298.04749
302.73958
302.7247
303.15509
303.35231
303.57018
303.72018
303.8369
303.90341
303.93104
303.91843
303.87153
303.79373
303.68995
303.56446
303.42156
303.2651
303.09857
302.92502
302.74703
302.56682
302.38617
302.20655
302.02915
301.85488
301.68446
301.51841
301.35714
301.20088
301.04984
300.90409
300.76367
300.62854
300.49868
300.37395
300.25431
300.13968
300.02982
299.92422
299.82351
299.72866
299.636
299.54271
299.45384
299.36889
299.28783
299.21048
299.13669
299.06632
298.99923
298.93527
298.87433
298.81626
298.76095
298.70827
298.65812
298.61038
298.56495
298.52174
298.48064
298.44158
298.40448
298.36927
298.33588
298.30426
298.27436
298.24614
298.21956
298.19461
298.17126
298.14949
298.12931
298.11076
298.09377
298.07828
298.06487
298.05375
298.04234
298.03235
298.03614
298.04002
303.65166
303.84724
304.202
304.39296
304.56825
304.65915
304.70488
304.69391
304.6396
304.54495
304.4181
304.26469
304.09094
303.90195
303.70235
303.49593
303.28593
303.0749
302.86491
302.65755
302.45406
302.25535
302.06206
301.87467
301.69347
301.51863
301.35023
301.18827
301.03269
300.88339
300.74022
300.60306
300.47169
300.34595
300.22571
300.11081
300.00073
299.89526
299.7956
299.70164
299.60667
299.5141
299.42583
299.34168
299.26146
299.18502
299.11217
299.04277
298.97667
298.91372
298.85378
298.79673
298.74243
298.69076
298.6416
298.59486
298.55041
298.50816
298.46803
298.42991
298.39373
298.35942
298.32691
298.29615
298.26707
298.23963
298.21381
298.18957
298.1669
298.14577
298.12621
298.10822
298.09171
298.0767
298.06372
298.05261
298.04114
298.03164
298.03421
298.0326
304.70964
305.06839
305.33937
305.4739
305.55571
305.55129
305.49191
305.37694
305.22159
305.03293
304.82051
304.59109
304.35098
304.105
303.85705
303.6101
303.36643
303.12768
302.89505
302.66934
302.4511
302.24063
302.03808
301.84348
301.65675
301.47778
301.30637
301.14233
300.98542
300.83539
300.692
300.555
300.4241
300.29911
300.17986
300.06595
299.95683
299.85298
299.75552
299.66182
299.56587
299.4748
299.38792
299.30521
299.22643
299.15142
299.07999
299.01201
298.9473
298.88572
298.82714
298.77141
298.71841
298.66803
298.62013
298.57462
298.53138
298.49032
298.45135
298.41437
298.37931
298.34609
298.31464
298.2849
298.25681
298.23033
298.20541
298.18203
298.16015
298.13977
298.1209
298.10353
298.08758
298.07311
298.06054
298.04946
298.03815
298.02939
298.03067
298.0276
305.87546
306.33096
306.45642
306.48531
306.42878
306.29171
306.10156
305.86797
305.6067
305.32686
305.03729
304.74392
304.45151
304.16331
303.88169
303.60819
303.3438
303.0891
302.84436
302.60964
302.38485
302.16981
301.96426
301.76789
301.58039
301.4014
301.23058
301.06758
300.91207
300.76372
300.62221
300.4872
300.35841
300.23562
300.1186
300.0067
299.89972
299.7989
299.70393
299.60844
299.51479
299.42565
299.34081
299.26005
299.1832
299.11006
299.04048
298.97428
298.91131
298.85143
298.79449
298.74037
298.68894
298.64007
298.59367
298.54961
298.50779
298.46812
298.4305
298.39485
298.36108
298.32913
298.29891
298.27037
298.24345
298.21809
298.19425
298.17189
298.15098
298.13149
298.11344
298.09681
298.08152
298.0677
298.05564
298.04483
298.03421
298.02634
298.02583
298.0203
307.40902
307.51616
307.42555
307.2844
307.04961
306.76062
306.43781
306.09595
305.74697
305.39821
305.05513
304.72101
304.39802
304.08732
303.78948
303.50465
303.2327
302.97334
302.72618
302.49074
302.26649
302.05295
301.84958
301.65591
301.47145
301.29574
301.12835
300.96886
300.81688
300.67204
300.53399
300.40238
300.27695
300.15749
300.0435
299.93439
299.83088
299.73389
299.64038
299.54468
299.45381
299.36726
299.28495
299.20662
299.13211
299.06124
298.99384
298.92975
298.86882
298.81092
298.7559
298.70363
298.654
298.60689
298.56218
298.51977
298.47957
298.44147
298.40538
298.37123
298.33893
298.30841
298.27959
298.25242
298.22683
298.20277
298.18018
298.15904
298.13929
298.12092
298.1039
298.0882
298.07377
298.06071
298.04918
298.03871
298.02879
298.02162
298.01981
298.01538
308.25338
308.25585
307.94544
307.61138
307.22442
306.81946
306.41102
306.008
305.6165
305.23933
304.87818
304.53355
304.20545
303.89347
303.59708
303.31558
303.04823
302.79429
302.55308
302.32385
302.10599
301.89881
301.70178
301.51428
301.33587
301.16599
301.00425
300.85017
300.7034
300.56354
300.43025
300.3032
300.1822
300.0669
299.95663
299.85137
299.75261
299.65941
299.56428
299.47206
299.38431
299.30083
299.2214
299.14585
299.074
299.00567
298.94072
298.87899
298.82034
298.76463
298.71173
298.66151
298.61387
298.56868
298.52584
298.48525
298.44682
298.41044
298.37604
298.34353
298.31283
298.28388
298.2566
298.23093
298.20681
298.1842
298.16303
298.14327
298.12487
298.1078
298.09205
298.07756
298.06431
298.05236
298.04176
298.03216
298.02337
298.01684
298.01358
298.00755
308.00557
308.0549
307.73049
307.33693
306.91511
306.49149
306.07558
305.67339
305.28779
304.91982
304.56973
304.23715
303.92148
303.62195
303.33774
303.06806
302.81213
302.56916
302.33842
302.11918
301.91079
301.71264
301.52416
301.3448
301.17407
301.01151
300.85668
300.70921
300.56872
300.43485
300.30724
300.18563
300.06977
299.95916
299.8534
299.75334
299.65929
299.56676
299.47395
299.38567
299.30165
299.22171
299.14568
299.07337
299.00463
298.93928
298.8772
298.81822
298.76223
298.70908
298.65866
298.61084
298.56553
298.52259
298.48195
298.44349
298.40713
298.37278
298.34035
298.30977
298.28095
298.25385
298.22837
298.20447
298.18208
298.16116
298.14166
298.12352
298.10671
298.09121
298.07696
298.06396
298.05216
298.04159
298.03226
298.02398
298.01673
298.01116
298.00758
298.0035
306.56189
306.683
306.56322
306.3201
306.02167
305.69633
305.36123
305.02658
304.69849
304.38
304.07309
303.77851
303.49663
303.22736
302.97043
302.72542
302.49189
302.26931
302.05718
301.85499
301.66223
301.47846
301.30321
301.13607
300.97661
300.82453
300.67938
300.54094
300.40878
300.28268
300.16231
300.04761
299.93807
299.83319
299.73335
299.63976
299.55031
299.45822
299.37052
299.28691
299.20733
299.13159
299.05953
298.991
298.92587
298.86398
298.8052
298.74941
298.69647
298.64627
298.5987
298.55363
298.51097
298.47062
298.43248
298.39645
298.36245
298.33041
298.30023
298.27184
298.24517
298.22016
298.19673
298.17484
298.15443
298.13544
298.11782
298.10154
298.08656
298.07284
298.06035
298.04907
298.03896
298.03004
298.02228
298.01563
298.0101
298.00584
298.00288
298.00084
308.47166
308.55479
307.63683
306.60088
305.49503
304.52581
303.71465
303.04635
302.48122
301.97473
301.55377
301.18598
300.84818
300.55139
300.26782
300.01956
299.78925
299.57969
299.39162
299.21951
299.06981
298.9364
298.81086
298.69652
298.59831
298.50853
298.43086
298.36575
298.30974
298.25831
298.21176
298.16935
298.13048
298.09418
298.06022
298.0281
297.99772
297.96857
297.94059
297.91404
297.88847
297.86363
297.84028
297.81828
297.79702
297.77702
297.75839
297.7412
297.72555
297.7115
297.69911
297.68841
297.6794
297.67197
297.66598
297.66118
297.65731
297.65406
297.65124
297.6487
297.64632
297.64441
297.64254
297.642
297.64087
297.64281
297.64147
297.64747
297.64502
297.65812
297.65172
297.67812
297.66416
297.71042
297.68371
297.75381
297.72007
297.80973
297.79111
297.87307
305.94549
305.39956
304.56025
303.46257
302.43314
301.58562
300.95859
300.52252
300.21264
299.97796
299.79298
299.63542
299.50023
299.37596
299.26024
299.15519
299.04644
298.95179
298.85457
298.77538
298.69087
298.61974
298.54488
298.47623
298.4202
298.36616
298.31805
298.27443
298.23408
298.19514
298.15928
298.12493
298.09192
298.06033
298.03002
298.00094
297.97291
297.9457
297.9194
297.89479
297.87109
297.848
297.82631
297.80603
297.7866
297.76835
297.75145
297.736
297.72206
297.70968
297.69888
297.68965
297.68194
297.67561
297.67049
297.66632
297.66285
297.65982
297.65707
297.6546
297.65223
297.65049
297.64875
297.64853
297.6475
297.64988
297.64844
297.65497
297.65216
297.66562
297.65831
297.68532
297.66927
297.71712
297.68848
297.76059
297.72348
297.81618
297.79238
297.87926
299.15149
298.98673
298.26349
297.42057
297.08478
297.07277
297.15515
297.26952
297.41717
297.5593
297.69197
297.80994
297.91524
298.00414
298.0814
298.14574
298.18922
298.23153
298.25293
298.2746
298.27227
298.25822
298.25058
298.23678
298.21512
298.18382
298.16385
298.141
298.11513
298.09475
298.07085
298.04682
298.0216
297.99714
297.97261
297.94832
297.92467
297.90159
297.87978
297.85925
297.83873
297.81901
297.80109
297.78381
297.76769
297.75284
297.73928
297.72706
297.71624
297.70681
297.69874
297.69194
297.68626
297.68152
297.67747
297.67392
297.67061
297.66755
297.66452
297.66194
297.65937
297.65789
297.65615
297.65661
297.65538
297.65868
297.65685
297.66446
297.66029
297.67522
297.66575
297.69504
297.67592
297.72687
297.69266
297.76922
297.72603
297.82377
297.79357
297.88537
302.25362
302.21012
301.33807
299.83853
299.14477
298.93684
298.83267
298.75804
298.72891
298.70128
298.66176
298.61429
298.56393
298.54521
298.52049
298.4349
298.45914
298.35769
298.39736
298.28862
298.34076
298.2441
298.25798
298.24502
298.1791
298.15962
298.12962
298.10633
298.08367
298.05706
298.03168
298.00701
297.9831
297.95991
297.93763
297.91602
297.89514
297.8748
297.85641
297.83858
297.82064
297.80331
297.78677
297.77145
297.7573
297.74428
297.73256
297.72206
297.71284
297.70487
297.69809
297.69238
297.68758
297.68352
297.67996
297.67678
297.67379
297.67107
297.66842
297.66632
297.66425
297.66337
297.66212
297.66311
297.66219
297.66584
297.66422
297.67185
297.66711
297.6823
297.67255
297.70163
297.682
297.73256
297.69828
297.77482
297.73029
297.82868
297.79619
297.88974
301.33203
300.76558
299.45823
298.19528
297.81395
297.73588
297.79313
297.80462
297.85767
297.86648
297.87587
297.89457
297.91502
297.93092
297.9481
297.9625
297.97491
297.98468
297.99157
298.00335
297.99754
298.01358
298.00748
298.00129
298.00455
297.99708
297.98778
297.97579
297.96225
297.94929
297.93581
297.92137
297.90635
297.89109
297.87566
297.86012
297.84475
297.82941
297.8157
297.80208
297.78806
297.77451
297.76179
297.74991
297.73899
297.72905
297.72022
297.71244
297.70571
297.70001
297.69521
297.6912
297.68778
297.68484
297.68213
297.67961
297.67717
297.67497
297.6728
297.67127
297.66974
297.66951
297.66871
297.67031
297.66963
297.67375
297.67214
297.67995
297.6746
297.69045
297.67956
297.70962
297.68837
297.74011
297.70282
297.78149
297.73356
297.83451
297.79812
297.89428
301.494
300.98688
299.66146
298.30764
297.78499
297.71284
297.85561
297.78516
297.86308
297.80785
297.80296
297.82237
297.8343
297.84873
297.86156
297.87283
297.88279
297.89011
297.89699
297.89956
297.90439
297.90139
297.90145
297.89974
297.89401
297.88895
297.88338
297.87728
297.87019
297.86234
297.85402
297.84487
297.83522
297.8253
297.81514
297.80477
297.79438
297.78385
297.77489
297.76549
297.75554
297.74596
297.73684
297.72843
297.72074
297.71388
297.70777
297.70253
297.6981
297.69441
297.69134
297.68877
297.68653
297.68453
297.68262
297.68082
297.67905
297.67758
297.67616
297.67545
297.67469
297.67524
297.67503
297.6772
297.67686
297.68129
297.67936
297.68757
297.68194
297.69804
297.68663
297.71684
297.6942
297.74667
297.70794
297.78747
297.73718
297.83992
297.80026
297.89865
301.1825
300.54922
299.09641
297.84499
297.4661
297.41973
297.44934
297.47437
297.49344
297.51524
297.54914
297.56714
297.59143
297.60987
297.62964
297.64687
297.66364
297.67908
297.69323
297.70633
297.71736
297.72853
297.73722
297.74451
297.75093
297.75566
297.75887
297.7607
297.76114
297.76102
297.76011
297.75802
297.75513
297.75165
297.74761
297.74306
297.73819
297.73293
297.72911
297.72427
297.71875
297.71338
297.70831
297.70366
297.69952
297.69591
297.69287
297.69038
297.6884
297.68686
297.68563
297.68463
297.68372
297.68285
297.68198
297.68117
297.68035
297.67985
297.6794
297.67965
297.67976
297.68111
297.68148
297.68421
297.68416
297.68886
297.68673
297.69529
297.68959
297.70571
297.69359
297.72416
297.70101
297.75343
297.71274
297.79353
297.74065
297.8453
297.80228
297.90295
301.08723
300.36003
298.81745