/*--------------------------------*- C++ -*----------------------------------*\
  =========                 |
  \\      /  F ield         | OpenFOAM: The Open Source CFD Toolbox
   \\    /   O peration     | Website:  https://openfoam.org
    \\  /    A nd           | Version:  6
     \\/     M anipulation  |
\*---------------------------------------------------------------------------*/
FoamFile
{
    version     2.0;
    format      ascii;
    class       volVectorField;
    location    "200";
    object      U;
}
// * * * * * * * * * * * * * * * * * * * * * * * * * * * * * * * * * * * * * //

dimensions      [0 1 -1 0 0 0 0];

internalField   nonuniform List<vector> 
16000
(
(155.91343 1.2355295e-15 -18.096635)
(165.85441 -1.0918391e-15 -11.726915)
(162.11772 4.236223e-18 -17.18625)
(163.89331 3.825316e-18 -12.730936)
(162.419 0 -16.051438)
(162.89266 -8.7541604e-16 -13.448127)
(162.13994 8.2949255e-16 -15.224225)
(162.15119 0 -13.826346)
(161.65895 -1.8117434e-19 -14.665243)
(161.4761 1.7146022e-19 -13.945792)
(161.08467 3.2506736e-19 -14.277198)
(160.81394 -6.3090249e-16 -13.898348)
(160.45846 5.985407e-16 -13.976115)
(160.14662 4.7166432e-18 -13.75018)
(159.80079 5.3917832e-16 -13.707137)
(159.46901 -5.1205107e-16 -13.540209)
(159.12379 -9.737473e-16 -13.439331)
(158.78254 9.24554e-16 -13.28843)
(158.43646 0 -13.157126)
(158.09191 8.362814e-16 -13.004125)
(157.74662 -7.9558701e-16 -12.853468)
(157.4031 -7.5791089e-16 -12.691307)
(157.06114 -7.4828687e-19 -12.525479)
(156.72185 -3.798236e-19 -12.351576)
(156.38548 6.4341042e-16 -12.171981)
(156.05254 0 -11.985315)
(155.72324 5.9427078e-16 -11.792206)
(155.3978 -5.5669502e-16 -11.592176)
(155.07636 -5.2647082e-19 -11.385316)
(154.75906 -5.0199564e-19 -11.171451)
(154.4461 -4.9054674e-16 -10.950566)
(154.13795 4.6722289e-16 -10.72253)
(153.83501 -1.3954832e-17 -10.488006)
(153.53799 -1.2485002e-17 -10.247372)
(153.24777 8.1321575e-16 -10.000874)
(152.96491 -1.5529916e-15 -9.7491312)
(152.69035 7.4084934e-16 -9.4923787)
(152.42496 1.1062153e-17 -9.2311569)
(152.1698 1.0565263e-17 -8.9664903)
(151.92583 0 -8.6995234)
(151.69382 -1.204306e-18 -8.4311905)
(151.47446 1.1507881e-18 -8.1624714)
(151.26837 -5.622814e-16 -7.8943737)
(151.07604 5.3938848e-16 -7.6278933)
(150.89783 5.1380793e-16 -7.3639428)
(150.73399 -4.9210919e-16 -7.1033988)
(150.58466 -9.190433e-19 -6.8470922)
(150.4499 0 -6.5957825)
(150.32967 4.3070907e-16 -6.3501737)
(150.22386 -4.1202494e-16 -6.1109039)
(150.1323 0 -5.8785339)
(150.05474 0 -5.653548)
(149.99086 2.2586843e-17 -5.4363425)
(149.94026 -1.35107e-18 -5.2272349)
(149.90249 2.0713127e-17 -5.026457)
(149.87711 0 -4.834142)
(149.8636 0 -4.6503507)
(149.86134 0 -4.4750674)
(149.86965 0 -4.3081917)
(149.88777 -3.5598668e-17 -4.1495785)
(149.915 -3.2137462e-17 -3.9989889)
(149.95034 0 -3.856222)
(149.99322 2.9593606e-17 -3.7208595)
(150.04206 0 -3.5928242)
(150.09717 -3.0697389e-17 -3.4712865)
(150.15507 -4.2267692e-16 -3.3568434)
(150.21922 4.0316777e-16 -3.2473159)
(150.27923 -3.0284118e-18 -3.1457556)
(150.34896 3.7290714e-16 -3.0454084)
(150.39644 -3.7866637e-16 -2.9576939)
(150.47139 0 -2.8606496)
(150.47918 -3.3319042e-16 -2.7944246)
(150.58206 6.4248521e-16 -2.6833597)
(150.49554 -3.1022443e-16 -2.6706193)
(150.6995 4.675426e-18 -2.4773385)
(150.36887 0 -2.6500684)
(150.82067 -1.3987196e-16 -2.1328176)
(149.98849 1.7112536e-17 -2.9240851)
(150.88144 1.3128656e-16 -1.3646792)
(149.51337 -3.2017586e-17 -3.8720909)
(155.61367 -1.2447326e-15 -19.856218)
(165.60243 1.1018867e-15 -13.198804)
(161.63486 -4.1810755e-18 -18.930079)
(163.52583 1.0015896e-15 -14.207287)
(161.95461 -9.5610333e-16 -17.72101)
(162.47752 6.9771183e-18 -14.941111)
(161.67282 0 -16.820312)
(161.69828 0 -15.321765)
(161.17729 7.462285e-16 -16.199666)
(160.99196 -7.2857526e-16 -15.425052)
(160.58258 6.6993015e-16 -15.75953)
(160.30261 -6.4492093e-16 -15.347056)
(159.93338 0 -15.410738)
(159.61027 5.7655605e-16 -15.158771)
(159.25253 -5.5151958e-16 -15.094099)
(158.90961 0 -14.902312)
(158.55379 0 -14.776271)
(158.2025 0 -14.599308)
(157.84725 -8.8632173e-16 -14.440652)
(157.4942 8.5593977e-16 -14.259706)
(157.14133 0 -14.079815)
(156.79099 7.7547243e-16 -13.887678)
(156.44303 -7.2624664e-16 -13.690692)
(156.09847 -7.0290483e-16 -13.484706)
(155.75755 3.0994142e-17 -13.271883)
(155.42073 6.1742551e-16 -13.050931)
(155.0882 6.2663341e-16 -12.822384)
(154.76022 -1.1668881e-15 -12.585808)
(154.43697 1.1036622e-15 -12.341309)
(154.11873 -5.0951006e-16 -12.088783)
(153.80585 5.0180909e-16 -11.828351)
(153.49877 -9.5691437e-16 -11.560188)
(153.19807 9.2704407e-16 -11.284595)
(152.90471 -8.5723906e-16 -11.001905)
(152.61946 4.1537786e-16 -10.713183)
(152.34346 0 -10.419409)
(152.07767 2.3669077e-17 -10.121492)
(151.82306 -1.1286191e-17 -9.8201169)
(151.58039 -7.0089726e-16 -9.5157347)
(151.3505 6.9996351e-16 -9.2096604)
(151.13411 0 -8.903219)
(150.9317 -6.0119652e-16 -8.5974795)
(150.74367 3.5730757e-17 -8.2934512)
(150.57036 1.0973711e-15 -7.9922399)
(150.41193 -5.2426322e-16 -7.6948521)
(150.26844 -5.0118693e-16 -7.4022043)
(150.13987 5.0892213e-16 -7.1151959)
(150.0261 -4.0072926e-16 -6.8346415)
(149.92694 8.2099956e-16 -6.5612782)
(149.84215 -4.1871357e-16 -6.2957756)
(149.77139 0 -6.038708)
(149.71429 0 -5.7905609)
(149.67043 -2.2902905e-17 -5.5517249)
(149.6393 -7.0148438e-16 -5.322489)
(149.62035 6.5039736e-16 -5.103065)
(149.61305 6.0256256e-16 -4.8935509)
(149.61687 -9.3547803e-21 -4.6939569)
(149.63113 -6.631295e-16 -4.5042245)
(149.65515 0 -4.3242056)
(149.68818 3.3805832e-17 -4.1536865)
(149.72947 -3.2417022e-17 -3.9923871)
(149.77815 -6.2128481e-17 -3.8400012)
(149.83347 -4.4666751e-16 -3.6961237)
(149.89431 5.6753226e-20 -3.560445)
(149.96019 4.1102335e-16 -3.4323694)
(150.02927 0 -3.3118288)
(150.10217 -4.0382483e-16 -3.197647)
(150.17395 3.8785724e-16 -3.0908235)
(150.24911 -4.6573942e-17 -2.9880765)
(150.31237 3.8041068e-16 -2.8944925)
(150.38464 -6.8854502e-16 -2.7988913)
(150.41967 3.7266647e-16 -2.7224545)
(150.49918 3.1872418e-16 -2.6213415)
(150.46922 -9.444282e-20 -2.5854392)
(150.60515 -3.1889014e-16 -2.4236116)
(150.38914 2.6757962e-16 -2.5396963)
(150.71261 -2.7084523e-16 -2.0997447)
(150.05653 -1.6673472e-17 -2.7817385)
(150.75367 1.6028016e-17 -1.3636895)
(149.60888 3.114048e-17 -3.6571962)
(155.16667 1.2581993e-15 -21.652145)
(165.18872 -5.5154264e-21 -14.740511)
(161.03738 -1.0897116e-15 -20.681511)
(163.01256 1.0076982e-15 -15.76301)
(161.35859 7.5491624e-18 -19.396115)
(161.91254 9.0317197e-16 -16.505745)
(161.06464 -1.7264161e-15 -18.428448)
(161.09385 1.2355171e-17 -16.874979)
(160.5483 7.7330187e-16 -17.752694)
(160.35452 1.1442704e-17 -16.949121)
(159.92826 -7.0587163e-16 -17.263801)
(159.63556 6.5876832e-16 -16.83002)
(159.25239 0 -16.866917)
(158.916 0 -16.593073)
(158.54579 -5.6398898e-16 -16.499449)
(158.19063 5.3549808e-16 -16.282713)
(157.82376 0 -16.126616)
(157.46195 1.5132756e-17 -15.921461)
(157.09736 -1.4373996e-17 -15.731446)
(156.73578 8.4834361e-16 -15.519453)
(156.37548 4.9235578e-19 -15.306497)
(156.01861 -7.6769356e-16 -15.080756)
(155.66512 7.4304177e-16 -14.84867)
(155.31592 -7.1826571e-16 -14.606637)
(154.97126 -7.0580478e-16 -14.356463)
(154.63155 6.7191177e-16 -14.097053)
(154.29705 1.9443895e-17 -13.828849)
(153.96804 3.700738e-17 -13.551532)
(153.64485 3.5270139e-17 -13.265257)
(153.32788 -5.5445575e-16 -12.970063)
(153.01765 4.8026435e-16 -12.666228)
(152.71484 5.1933022e-16 -12.354117)
(152.42023 -4.6588026e-16 -12.034303)
(152.13472 -4.4458359e-16 -11.707525)
(151.85926 8.4800791e-16 -11.374562)
(151.595 -8.0906675e-16 -11.036553)
(151.34292 -3.6208784e-16 -10.694903)
(151.10419 7.3663975e-16 -10.351118)
(150.87946 0 -10.006117)
(150.66922 -6.7140237e-16 -9.6604507)
(150.47398 6.0074932e-16 -9.3155267)
(150.29413 0 -8.9728111)
(150.12978 -3.6510474e-17 -8.6333157)
(149.98103 0 -8.2981344)
(149.84786 6.6681786e-17 -7.9684042)
(149.73011 0 -7.645069)
(149.62756 -3.0404785e-17 -7.3290446)
(149.53992 4.656119e-20 -7.0211824)
(149.4668 1.1111047e-16 -6.7222122)
(149.4078 0 -6.4327936)
(149.36241 0 -6.1534782)
(149.33014 0 -5.8847107)
(149.31042 0 -5.6268391)
(149.30265 0 -5.3800958)
(149.30619 8.4901961e-17 -5.1446305)
(149.32042 4.0591861e-17 -4.9204855)
(149.34472 6.2156947e-16 -4.7076014)
(149.37845 -5.9490968e-16 -4.5058468)
(149.42086 -7.1186688e-17 -4.3150099)
(149.47121 0 -4.1348007)
(149.52877 6.5230867e-17 -3.9648739)
(149.59271 5.622855e-16 -3.8048378)
(149.66224 -5.3866531e-16 -3.6542446)
(149.73644 0 -3.5126499)
(149.81457 -5.4969278e-17 -3.3795118)
(149.89545 -1.0535529e-16 -3.2544378)
(149.97862 4.0397244e-16 -3.1366686)
(150.06148 -3.875017e-16 -3.0261874)
(150.1445 4.6459814e-17 -2.9214166)
(150.22009 -3.5668566e-16 -2.8240079)
(150.2954 7.1629146e-20 -2.7289613)
(150.34852 2.8783627e-16 -2.6455258)
(150.41837 0 -2.5517245)
(150.42346 0 -2.4967008)
(150.52162 1.8251186e-17 -2.3631888)
(150.38216 1.7582867e-17 -2.4250175)
(150.61377 2.9578653e-17 -2.0614097)
(150.08712 -1.1420519e-16 -2.6168474)
(150.66432 1.1386906e-16 -1.3543)
(149.62571 -6.0218875e-17 -3.4798468)
(154.58089 3.0401776e-17 -23.496314)
(164.61237 8.9690783e-18 -16.316458)
(160.29188 1.1254312e-15 -22.472018)
(162.35449 4.936998e-19 -17.352939)
(160.61503 -9.838408e-16 -21.103299)
(161.19985 -9.273051e-16 -18.102934)
(160.30738 8.7931019e-16 -20.063401)
(160.33893 -1.299004e-17 -18.457251)
(159.76809 8.011947e-16 -19.328474)
(159.56445 -7.2366562e-16 -18.497343)
(159.12084 -7.0909536e-16 -18.786999)
(158.81444 1.3238674e-15 -18.331671)
(158.41697 -6.3814788e-16 -18.337796)
(158.06685 1.8952979e-17 -18.040464)
(157.68405 0 -17.914632)
(157.31664 0 -17.670502)
(156.93891 -5.200102e-16 -17.481317)
(156.56694 4.7864209e-16 -17.245059)
(156.19351 0 -17.020576)
(155.82406 9.2232623e-16 -16.774317)
(155.45711 -8.7705262e-16 -16.52497)
(155.09465 3.7878991e-20 -16.262147)
(154.7367 0 -15.991382)
(154.38409 -4.5893354e-17 -15.709596)
(154.03712 -6.988301e-16 -15.418295)
(153.69622 6.2354784e-16 -15.116595)
(153.36174 -6.7358749e-16 -14.804905)
(153.03408 5.6596429e-16 -14.483072)
(152.71372 -3.5937498e-17 -14.151373)
(152.40126 -3.430309e-17 -13.810064)
(152.09741 -4.9018083e-16 -13.459645)
(151.80301 4.67025e-16 -13.100752)
(151.51903 0 -12.734221)
(151.24646 0 -12.36104)
(150.98633 0 -11.982384)
(150.73959 -5.1546606e-17 -11.599531)
(150.50723 -4.90999e-17 -11.213672)
(150.29004 7.9700119e-16 -10.826505)
(150.08882 -8.9267085e-17 -10.440054)
(149.90401 -6.3996986e-16 -10.055148)
(149.73557 4.0706624e-17 -9.672383)
(149.58373 6.22084e-16 -9.2934002)
(149.4484 -5.1941854e-16 -8.9195653)
(149.32936 -5.6689824e-16 -8.5518281)
(149.2264 -6.7711532e-17 -8.1913777)
(149.13913 9.6896103e-16 -7.8392287)
(149.06711 -3.7006263e-16 -7.4962468)
(149.00986 -5.8897887e-17 -7.1632872)
(148.9668 3.9401391e-16 -6.8410457)
(148.93734 -5.377019e-16 -6.5301274)
(148.92086 -4.1095775e-16 -6.2310318)
(148.91667 3.9266842e-16 -5.94413)
(148.92412 0 -5.669697)
(148.9425 7.1723149e-16 -5.4078857)
(148.97109 -7.7125225e-16 -5.1587544)
(149.00919 0 -4.9222697)
(149.05614 6.266493e-16 -4.6982922)
(149.11128 -9.7383764e-16 -4.4865985)
(149.17387 5.0152789e-16 -4.2869022)
(149.24317 5.4825909e-16 -4.0988341)
(149.31844 -1.3123064e-16 -3.9219724)
(149.39894 -5.0195054e-16 -3.7558494)
(149.48387 -4.8029084e-16 -3.5999522)
(149.57243 5.747344e-16 -3.4537482)
(149.66381 -4.4010866e-16 -3.3166621)
(149.75711 1.0541767e-16 -3.1881522)
(149.85156 4.0361264e-16 -3.0675537)
(149.94549 -3.8653615e-16 -2.9544467)
(150.03795 5.5561683e-16 -2.8478564)
(150.12448 0 -2.748007)
(150.20629 0 -2.6525379)
(150.27259 0 -2.5649666)
(150.34103 0 -2.4747382)
(150.36949 1.501836e-16 -2.4072274)
(150.44598 -2.8822846e-16 -2.2930249)
(150.36011 3.4625015e-16 -2.3121177)
(150.52926 -3.6560226e-16 -2.0146387)
(150.10212 4.9603506e-16 -2.4520201)
(150.57688 -3.7259535e-16 -1.3346274)
(149.63108 -1.2211784e-19 -3.275203)
(153.84833 1.3158217e-15 -25.381608)
(163.85873 5.4826649e-19 -17.927312)
(159.39804 -1.1608573e-15 -24.2898)
(161.54235 0 -18.98366)
(159.71941 -1.5650017e-17 -22.831596)
(160.32911 -2.9518195e-17 -19.737743)
(159.39394 0 -21.716502)
(159.42288 -8.2095425e-16 -20.070515)
(158.82763 8.0332424e-16 -20.920372)
(158.61068 -7.8558125e-16 -20.068666)
(158.14971 7.2236033e-16 -20.323454)
(157.82744 -3.1182633e-20 -19.848558)
(157.41527 0 -19.817511)
(157.05021 5.9897369e-16 -19.49552)
(156.65444 -5.8696999e-16 -19.332784)
(156.27426 0 -19.058427)
(155.88555 5.3045125e-16 -18.832021)
(155.50341 -5.3553185e-16 -18.560995)
(155.12139 4.7958411e-16 -18.297911)
(154.74451 4.2793505e-16 -18.01325)
(154.37156 -8.403413e-16 -17.72317)
(154.00438 -2.5782842e-17 -17.418811)
(153.64307 4.9166126e-17 -17.104805)
(153.28847 -8.4729699e-20 -16.778628)
(152.94094 0 -16.441538)
(152.60099 -7.7554276e-20 -16.09291)
(152.26911 0 -15.733201)
(151.94588 3.849554e-17 -15.362487)
(151.63197 0 -14.981251)
(151.32817 3.4878628e-17 -14.590028)
(151.03538 0 -14.189609)
(150.75459 0 -13.780947)
(150.48685 6.0489226e-17 -13.365191)
(150.23318 0 -12.943637)
(149.99457 -4.394526e-16 -12.517702)
(149.77189 4.7116188e-16 -12.088889)
(149.56586 0 -11.658777)
(149.37698 -4.7586532e-17 -11.228802)
(149.20572 -6.3603111e-16 -10.800712)
(149.05251 6.065101e-16 -10.376648)
(148.91718 -6.6137513e-16 -9.9573333)
(148.79933 7.0978998e-16 -9.5435237)
(148.6988 -7.5258179e-16 -9.1370237)
(148.61503 5.7444664e-16 -8.7388578)
(148.54756 -1.3714923e-16 -8.3500321)
(148.4958 6.5379103e-17 -7.9716513)
(148.45906 -1.2481752e-16 -7.6045026)
(148.43665 1.1927068e-16 -7.2493745)
(148.42782 -4.5525639e-16 -6.9069061)
(148.43179 9.7798538e-16 -6.5775992)
(148.44778 -1.1452711e-20 -6.261865)
(148.47499 -4.9552879e-16 -5.959967)
(148.51263 1.8935273e-16 -5.6720742)
(148.55992 0 -5.3982325)
(148.61609 0 -5.1383901)
(148.68036 0 -4.8924097)
(148.75205 -6.3056077e-16 -4.6600553)
(148.83047 4.5203851e-16 -4.4410063)
(148.91492 1.4395626e-16 -4.2348836)
(149.00466 -1.3765134e-16 -4.0412362)
(149.099 1.3153627e-16 -3.8595593)
(149.19723 -7.5464114e-16 -3.6893103)
(149.2986 9.62055e-16 -3.5299058)
(149.40238 -1.0349429e-15 -3.38074)
(149.50781 9.8978506e-16 -3.2411826)
(149.61409 -2.1049326e-16 -3.1106029)
(149.72044 -6.0383999e-16 -2.9883284)
(149.8256 0 -2.8737564)
(149.92816 -1.8424522e-16 -2.7660982)
(150.02501 1.7637183e-16 -2.664965)
(150.1148 0 -2.5690879)
(150.19185 0 -2.4792162)
(150.26295 -1.5483367e-16 -2.3908808)
(150.30781 -2.966633e-16 -2.3148755)
(150.37294 -2.8422195e-16 -2.2145818)
(150.32593 6.8158827e-17 -2.1991733)
(150.44814 -6.5371473e-17 -1.9575686)
(150.09992 2.5102231e-16 -2.2942858)
(150.50405 -6.0061846e-17 -1.3066551)
(149.61078 2.2674954e-16 -3.0800617)
(152.9651 1.3131124e-15 -27.306478)
(162.91762 -1.1857561e-15 -19.571686)
(158.34932 1.7854979e-17 -26.13396)
(160.57041 0 -20.652833)
(158.66546 1.5889886e-17 -24.578765)
(159.29398 9.9049527e-16 -21.406465)
(158.31758 -8.823311e-16 -23.384107)
(158.33888 -5.3907228e-17 -21.709687)
(157.7197 0 -22.523524)
(157.48601 -7.757305e-16 -21.656615)
(157.00737 6.856538e-17 -21.866935)
(156.66721 2.1360199e-17 -21.372931)
(156.23976 6.213399e-16 -21.298313)
(155.85871 0 -20.949224)
(155.44959 5.9836093e-16 -20.744571)
(155.0563 -1.1012214e-15 -20.436109)
(154.65666 1.0804841e-15 -20.167785)
(154.2646 -4.8136158e-16 -19.857413)
(153.87452 0 -19.550888)
(153.491 2.9005677e-17 -19.222848)
(153.11313 -8.8405979e-16 -18.886948)
(152.74262 1.6817358e-15 -18.535834)
(152.37973 -1.650337e-15 -18.173332)
(152.02529 8.5656055e-16 -17.79748)
(151.67981 -7.251993e-16 -17.409389)
(151.34395 6.8990722e-16 -17.008751)
(151.01837 0 -16.596162)
(150.70385 -5.8678626e-16 -16.172009)
(150.40125 5.9590496e-16 -15.737059)
(150.11155 7.1050498e-17 -15.292201)
(149.83578 6.768377e-17 -14.83857)
(149.57502 -5.7991397e-16 -14.377474)
(149.3303 9.2069284e-16 -13.910396)
(149.10259 1.8881429e-19 -13.438932)
(148.8927 -8.9183983e-16 -12.964774)
(148.70129 5.3130217e-16 -12.489644)
(148.52881 0 -12.015257)
(148.37551 3.8626828e-16 -11.543362)
(148.24142 -4.6030754e-16 -11.075413)
(148.12645 0 -10.613301)
(148.03062 -6.6966069e-16 -10.158979)
(147.95289 7.9908853e-17 -9.7129106)
(147.89289 5.3274401e-16 -9.2762855)
(147.84988 0 -8.8505875)
(147.823 1.384696e-16 -8.4365563)
(147.81151 6.6097036e-16 -8.0352615)
(147.81443 -5.044381e-16 -7.6474413)
(147.8309 1.1994086e-19 -7.2737306)
(147.85996 -4.5928622e-16 -6.9146794)
(147.90069 8.7663302e-16 -6.5706444)
(147.95215 -3.5443264e-20 -6.2419079)
(148.01344 -9.9798223e-17 -5.9285957)
(148.08369 -1.904949e-16 -5.630741)
(148.16205 1.8196604e-16 -5.3482584)
(148.24769 1.7370945e-16 -5.0809689)
(148.33983 6.6312773e-16 -4.8286086)
(148.43775 -6.3329707e-16 -4.5908353)
(148.54079 0 -4.3672261)
(148.64825 0 -4.1572977)
(148.75946 1.3787897e-16 -3.9605158)
(148.87376 5.2684823e-16 -3.7762919)
(148.99048 -2.5175114e-16 -3.604009)
(149.10897 -4.8078149e-16 -3.4430155)
(149.22854 -2.2962564e-16 -3.2926399)
(149.3485 2.1948143e-16 -3.1521944)
(149.46815 4.1941032e-16 -3.0209831)
(149.58675 8.0155704e-16 -2.8982952)
(149.70327 -3.830968e-16 -2.7834331)
(149.81626 3.6608616e-16 -2.6756357)
(149.92319 -7.0003144e-16 -2.5742619)
(150.02171 -3.3457941e-16 -2.4783926)
(150.10822 3.2001406e-16 -2.3876171)
(150.18429 1.5299687e-16 -2.3002678)
(150.24141 1.4635773e-16 -2.2190729)
(150.30105 -2.8006957e-16 -2.1282228)
(150.28379 1.3403537e-16 -2.0858712)
(150.3722 1.2830615e-16 -1.8913572)
(150.08789 -4.9171794e-16 -2.1383319)
(150.42729 2.9398596e-16 -1.271392)
(149.57957 0 -2.8794867)
(151.92662 2.1130431e-17 -29.267571)
(161.78132 -1.1681028e-15 -21.248198)
(157.13719 3.5708087e-17 -28.002728)
(159.42858 1.0866745e-15 -22.36031)
(157.44355 -1.0345053e-15 -26.34199)
(158.08321 1.0066998e-15 -23.10801)
(157.06735 -5.789781e-17 -25.062698)
(157.07502 2.7393244e-17 -23.371704)
(156.43238 0 -24.133576)
(156.17807 7.8929513e-16 -23.256054)
(155.68131 -8.4208768e-16 -23.411643)
(155.32104 0 -22.897716)
(154.87767 7.1705181e-16 -22.772499)
(154.47958 -6.4052827e-16 -22.392558)
(154.05676 6.088965e-16 -22.140165)
(153.65015 -6.1426987e-16 -21.792486)
(153.23977 4.8107338e-16 -21.47657)
(152.8383 -1.0450458e-15 -21.121109)
(152.44104 4.9663516e-16 -20.765256)
(152.05211 -4.7261068e-16 -20.38777)
(151.67097 5.0544339e-16 -19.999942)
(151.29923 -5.3502406e-17 -19.595884)
(150.93733 -5.0903147e-17 -19.17875)
(150.5862 -4.832103e-17 -18.747167)
(150.24652 0 -18.302225)
(149.91914 4.3768832e-17 -17.844002)
(149.60491 6.6753306e-16 -17.373345)
(149.30482 -7.1446597e-16 -16.891033)
(149.01989 5.2933969e-16 -16.398203)
(148.75121 -1.4372539e-16 -15.896153)
(148.49988 -6.1687587e-16 -15.386411)
(148.26692 -1.4318564e-19 -14.870662)
(148.05325 -4.9767524e-16 -14.350723)
(147.85965 4.7389988e-16 -13.828489)
(147.68666 1.1300868e-16 -13.305886)
(147.53463 -1.0745543e-16 -12.78483)
(147.40365 0 -12.26719)
(147.29357 -3.9066564e-16 -11.754768)
(147.20411 4.652316e-16 -11.249268)
(147.13471 -7.096615e-16 -10.752047)
(147.0847 8.4560647e-16 -10.265358)
(147.05351 -1.6108462e-16 -9.790302)
(147.03988 7.6830547e-16 -9.3271628)
(147.04305 -1.3188124e-15 -8.8776461)
(147.06176 -1.3978779e-16 -8.4424574)
(147.09504 3.9976594e-16 -8.0223952)
(147.14172 0 -7.6181528)
(147.20072 1.2135945e-16 -7.2301504)
(147.27093 0 -6.8587943)
(147.35129 -2.2057289e-16 -6.5042655)
(147.44076 0 -6.1666771)
(147.53836 -4.0125451e-16 -5.8459912)
(147.64315 1.9146775e-16 -5.5420796)
(147.75425 -3.6521134e-16 -5.254706)
(147.87081 -1.7417069e-16 -4.9835497)
(147.99206 0 -4.72821)
(148.11728 0 -4.488229)
(148.24583 0 -4.2630748)
(148.37709 -5.77856e-16 -4.0521617)
(148.51041 2.7596802e-16 -3.8548696)
(148.6452 1.1828936e-19 -3.67053)
(148.78087 5.0257992e-16 -3.4984543)
(148.91684 0 -3.3379281)
(149.05249 6.8675574e-16 -3.1882214)
(149.18721 -6.5570056e-16 -3.048594)
(149.32037 -2.0852237e-16 -2.9182986)
(149.45133 -1.9907644e-16 -2.7965821)
(149.57921 7.6071733e-16 -2.6826874)
(149.70267 -3.6320727e-16 -2.5758295)
(149.81946 -5.2007859e-16 -2.4752567)
(149.92693 1.6865934e-19 -2.3800956)
(150.02216 1.6433564e-19 -2.2895677)
(150.10434 1.5103094e-15 -2.2029568)
(150.17102 -5.7715961e-16 -2.1191299)
(150.22903 5.5129736e-16 -2.0344677)
(150.23489 0 -1.9719091)
(150.2976 5.0341019e-16 -1.8159834)
(150.06731 -4.8172935e-16 -1.9823853)
(150.35548 0 -1.2295654)
(149.54058 2.1347048e-16 -2.6830606)
(150.71895 1.3485615e-15 -31.264372)
(160.45908 -2.4506705e-15 -22.961916)
(155.74424 -3.7476884e-17 -29.8973)
(158.09892 -7.3802163e-19 -24.107783)
(156.03706 1.0503802e-15 -28.119282)
(156.67974 -9.929363e-16 -24.841068)
(155.62708 1.9123523e-15 -26.748345)
(155.61513 -8.9151284e-16 -25.051749)
(154.94993 0 -25.744696)
(154.67143 0 -24.859364)
(154.15639 9.5151888e-17 -24.949459)
(153.77422 -7.2266591e-16 -24.412951)
(153.31457 7.2850163e-16 -24.229485)
(152.89882 0 -23.813329)
(152.46236 0 -23.506488)
(152.04275 5.8793758e-16 -23.11309)
(151.62238 -4.885456e-16 -22.742843)
(151.21269 0 -22.335308)
(150.80985 5.0475383e-16 -21.923137)
(150.41766 -4.79548e-16 -21.489022)
(150.03591 -5.6950485e-17 -21.042153)
(149.66622 5.4160634e-17 -20.578036)
(149.30924 5.1514252e-17 -20.099348)
(148.96605 0 -19.605346)
(148.63754 0 -19.097242)
(148.32474 0 -18.575592)
(148.02872 0 -18.041609)
(147.75059 0 -17.496544)
(147.49147 6.8905501e-16 -16.941982)
(147.25246 -5.1003371e-16 -16.379673)
(147.03457 0 -15.811565)
(146.83866 5.9436216e-16 -15.239722)
(146.6654 1.6307865e-19 -14.666281)
(146.51522 1.3512435e-19 -14.093402)
(146.38829 -9.11938e-16 -13.523212)
(146.28452 4.3432011e-16 -12.957769)
(146.20356 5.1727354e-16 -12.399043)
(146.14484 -3.9404202e-16 -11.848863)
(146.10763 -3.7540467e-16 -11.308894)
(146.09096 -3.576529e-16 -10.78077)
(146.09363 -1.7024246e-16 -10.265855)
(146.11514 6.4936903e-16 -9.7657252)
(146.15351 -1.548175e-16 -9.2809165)
(146.20783 -4.4237395e-16 -8.8123756)
(146.27661 1.404885e-16 -8.3609877)
(146.35862 6.6978857e-16 -7.9271683)
(146.45253 -2.5548324e-16 -7.5114938)
(146.55707 2.4349258e-16 -7.1141531)
(146.67103 -2.3197844e-16 -6.7353486)
(146.79323 2.2113388e-16 -6.375063)
(146.92257 0 -6.0332065)
(147.05802 -1.549222e-19 -5.709557)
(147.19862 -1.9169944e-16 -5.4038067)
(147.34348 1.8279863e-16 -5.1155562)
(147.49179 -3.4884088e-16 -4.8443339)
(147.64279 0 -4.5896)
(147.7958 -3.1721476e-16 -4.3507753)
(147.95024 3.0232092e-16 -4.1272199)
(148.10556 -1.1539428e-15 -3.9182529)
(148.26117 5.5048888e-16 -3.7231685)
(148.41657 5.2482164e-16 -3.5412261)
(148.57125 -2.503475e-16 -3.3716721)
(148.7247 4.7746346e-16 -3.2137367)
(148.8764 -9.1094815e-16 -3.0666405)
(149.02581 -4.3438369e-16 -2.9295992)
(149.17239 8.288665e-16 -2.8018251)
(149.31558 9.1566884e-20 -2.6825287)
(149.45465 3.7705109e-16 -2.5709114)
(149.58839 3.5963054e-16 -2.466158)
(149.71479 0 -2.3674516)
(149.83114 9.8135825e-16 -2.2738787)
(149.9346 -1.8727545e-15 -2.1846199)
(150.02347 8.27068e-20 -2.0989713)
(150.09783 8.5212766e-16 -2.0146061)
(150.15672 -1.3550808e-15 -1.9337641)
(150.18073 1.8108077e-19 -1.8570958)
(150.22414 2.4683857e-16 -1.732279)
(150.04123 -4.7115232e-16 -1.8287437)
(150.2822 1.1241256e-15 -1.1822113)
(149.49737 -2.0727221e-16 -2.4870495)
(149.31897 0 -33.301798)
(159.03329 -1.245731e-15 -24.715642)
(154.15597 1.1966928e-15 -31.807216)
(156.56567 3.5142572e-17 -25.886146)
(154.4313 1.10076e-15 -29.898533)
(155.06785 -3.0725212e-17 -26.595593)
(153.98142 -9.5599152e-16 -28.430155)
(153.94349 8.4973513e-16 -26.738453)
(153.25656 -8.5884868e-16 -27.345792)
(152.95031 -8.6616237e-16 -26.453927)
(152.41672 -4.5662604e-19 -26.467959)
(152.011 7.3333143e-16 -25.904553)
(151.5348 1.2047631e-19 -25.654819)
(151.10112 -6.6142418e-16 -25.195576)
(150.6514 6.2762559e-16 -24.826702)
(150.21964 7.4666019e-17 -24.379693)
(149.79069 6.3771456e-16 -23.947238)
(149.37477 -5.3812368e-16 -23.47934)
(148.969 -5.1176866e-16 -23.002679)
(148.57688 4.2516899e-16 -22.503606)
(148.19858 -4.6235083e-16 -21.989561)
(147.83581 4.392391e-16 -21.457395)
(147.48945 -4.1790199e-16 -20.909536)
(147.16075 2.9764907e-16 -20.34594)
(146.85083 0 -19.768112)
(146.56086 7.1878029e-16 -19.177177)
(146.29204 -6.8331131e-16 -18.574833)
(146.04551 -6.5032351e-16 -17.962876)
(145.82236 -2.6651241e-19 -17.343394)
(145.62355 5.8837286e-16 -16.718616)
(145.44983 5.6004623e-16 -16.090908)
(145.30174 -5.3277041e-16 -15.462685)
(145.17953 1.2694059e-16 -14.836366)
(145.08314 -4.8269299e-16 -14.214318)
(145.01226 8.0409027e-16 -13.598804)
(144.96627 -4.3730773e-16 -12.991962)
(144.94432 -7.2875057e-16 -12.395777)
(144.94535 3.9641017e-16 -11.812026)
(144.96813 0 -11.242365)
(145.01122 -1.7989106e-16 -10.688309)
(145.07339 -6.8463384e-16 -10.150672)
(145.15302 6.5215164e-16 -9.6311874)
(145.24844 7.7629915e-16 -9.1304756)
(145.35831 -7.3981772e-16 -8.6487614)
(145.48098 -2.8162781e-16 -8.1869705)
(145.61498 6.7166459e-16 -7.7451858)
(145.75884 2.5572899e-16 -7.3237479)
(145.91119 2.4393589e-16 -6.9226089)
(146.07072 2.3238039e-16 -6.5417154)
(146.2362 -1.1863612e-19 -6.1808294)
(146.40651 -6.3310899e-16 -5.8396375)
(146.58063 6.0309259e-16 -5.5177175)
(146.7576 3.8310193e-16 -5.2145746)
(146.93659 -7.3065875e-16 -4.9296406)
(147.11683 3.4802831e-16 -4.662293)
(147.29762 -6.6349617e-16 -4.4118569)
(147.47837 1.5810805e-15 -4.1776333)
(147.65856 -3.0158453e-16 -3.9588822)
(147.83771 -2.8737527e-16 -3.7548381)
(148.01536 -2.7381466e-16 -3.564715)
(148.19107 0 -3.3877114)
(148.36444 -7.4649212e-16 -3.223018)
(148.53503 -4.7412036e-16 -3.0698203)
(148.70243 1.3563107e-15 -2.9273)
(148.86618 4.3080855e-16 -2.7946394)
(149.02582 -4.1059921e-16 -2.6710218)
(149.18088 -1.565325e-15 -2.5556306)
(149.33075 -3.7279389e-16 -2.4476392)
(149.47441 3.555502e-16 -2.3462078)
(149.61002 0 -2.2504689)
(149.73498 9.68121e-16 -2.1594781)
(149.84627 -6.1518764e-16 -2.0724507)
(149.94197 8.7924816e-16 -1.988348)
(150.02266 -8.3774788e-16 -1.9051366)
(150.08416 1.502587e-19 -1.8265693)
(150.12224 5.0734501e-16 -1.7412324)
(150.15153 2.4167588e-16 -1.6407957)
(150.01125 0 -1.6770548)
(150.20992 -2.1940596e-16 -1.1307546)
(149.45551 0 -2.2943524)
(147.71363 -1.4061346e-15 -35.378289)
(157.39275 -3.9529784e-17 -26.497494)
(152.36376 -3.8009241e-17 -33.723627)
(154.81722 -3.5625316e-17 -27.691824)
(152.61411 -3.3805454e-17 -31.673444)
(153.23357 -1.0250165e-15 -28.364866)
(152.11573 1.0312936e-15 -30.100721)
(152.04454 5.7432745e-17 -28.422235)
(151.33605 9.2700896e-16 -28.92719)
(150.99813 -7.2326609e-16 -28.027356)
(150.44532 -9.805791e-17 -27.954338)
(150.0145 7.9111728e-16 -27.357228)
(149.52151 -7.4999074e-16 -27.032174)
(149.07001 0 -26.520853)
(148.60796 0 -26.08091)
(148.16568 -6.7989808e-16 -25.570554)
(147.73057 4.3010796e-16 -25.066449)
(147.31171 0 -24.528309)
(146.90715 -5.8273609e-16 -23.977581)
(146.52019 9.8346846e-16 -23.403958)
(146.15143 3.3180638e-19 -22.813565)
(145.80265 -7.7690168e-16 -22.204565)
(145.47501 4.2186764e-16 -21.579406)
(145.1699 -7.0228477e-16 -20.938823)
(144.88856 8.5772798e-16 -20.284794)
(144.63226 -9.0754636e-17 -19.61911)
(144.40215 0 -18.944049)
(144.19927 0 -18.262007)
(144.02447 4.6707772e-16 -17.575595)
(143.87836 1.8031921e-19 -16.887512)
(143.76126 1.4119642e-16 -16.200499)
(143.67318 -1.0717277e-15 -15.517266)
(143.61379 5.1001993e-16 -14.840435)
(143.58245 -4.8493974e-16 -14.172487)
(143.57821 5.7682741e-16 -13.515729)
(143.59986 -4.3898708e-16 -12.872271)
(143.64598 6.2640783e-16 -12.244)
(143.715 0 -11.632572)
(143.80517 0 -11.03948)
(143.91473 3.6019513e-16 -10.465894)
(144.04199 -1.7158948e-16 -9.9126263)
(144.18468 -8.1618434e-16 -9.3809)
(144.34146 -1.5537741e-16 -8.8709826)
(144.51046 1.0361093e-15 -8.3829061)
(144.68994 2.819593e-16 -7.9173357)
(144.87824 -1.0737977e-15 -7.4740796)
(145.07385 0 -7.0531413)
(145.2753 -7.3030127e-16 -6.6542227)
(145.48129 4.6394953e-16 -6.2769842)
(145.6906 2.2102085e-16 -5.9209511)
(145.90213 4.2065923e-16 -5.5855787)
(146.1149 -8.0188565e-16 -5.270241)
(146.32805 7.6368861e-16 -4.9742583)
(146.54079 -1.0917451e-15 -4.6968993)
(146.75247 3.4668625e-16 -4.4373983)
(146.96248 3.3024273e-16 -4.1949569)
(147.17031 0 -3.9687664)
(147.37555 0 -3.7580003)
(147.57784 5.7085032e-16 -3.5618202)
(147.7768 5.4373045e-16 -3.3793739)
(147.9721 -5.1828673e-16 -3.2098111)
(148.16344 4.9323036e-16 -3.0522803)
(148.35049 -4.6997374e-16 -2.9059348)
(148.53292 4.4750217e-16 -2.7699296)
(148.71038 -1.2792306e-15 -2.643426)
(148.88248 -8.1202194e-16 -2.5255898)
(149.04882 1.1601616e-15 -2.4155879)
(149.20892 3.6818538e-16 -2.3125798)
(149.36191 0 -2.2157092)
(149.50621 6.6753574e-16 -2.1240699)
(149.63931 -6.3570362e-16 -2.0367218)
(149.75807 0 -1.9528735)
(149.8605 -5.7613186e-16 -1.8711734)
(149.94652 -5.4845321e-16 -1.7904924)
(150.01178 0 -1.7134296)
(150.06034 0 -1.62427)
(150.08001 0 -1.5422111)
(149.97916 -4.5055521e-16 -1.5280036)
(150.13758 0 -1.0767344)
(149.41685 -7.741196e-16 -2.1038475)
(145.88936 -4.4616731e-17 -37.493812)
(155.53268 0 -28.309754)
(150.34841 -1.1954818e-15 -35.649212)
(152.83378 1.1953816e-15 -29.524303)
(150.56577 0 -33.441045)
(151.15613 -1.0409774e-15 -30.143601)
(150.00907 9.2343075e-16 -31.753387)
(149.89706 0 -30.092931)
(149.16687 8.2978336e-16 -30.478079)
(148.79358 -8.9063413e-16 -29.565173)
(148.22094 4.9616291e-17 -29.393095)
(147.76397 7.074097e-16 -28.752352)
(147.25451 -8.8954412e-17 -28.341291)
(146.78627 -5.9337326e-16 -27.766324)
(146.31392 5.6360988e-16 -27.244339)
(145.86425 7.7070861e-17 -26.65874)
(145.42711 -5.0748361e-16 -26.071683)
(145.01063 0 -25.451677)
(144.61375 6.5242686e-17 -24.815825)
(144.23965 1.8630436e-16 -24.156864)
(143.88933 -1.1808631e-16 -23.480077)
(143.56464 -2.2387488e-16 -22.78495)
(143.26694 0 -22.074228)
(142.99767 1.0116355e-16 -21.349533)
(142.75807 -9.576108e-17 -20.613467)
(142.54929 9.0979895e-17 -19.868573)
(142.37226 0 -19.117771)
(142.22765 -1.6482675e-16 -18.36406)
(142.11584 -4.6943221e-16 -17.610552)
(142.03686 4.4556998e-16 -16.860349)
(141.99038 -1.4107364e-16 -16.116483)
(141.97569 0 -15.381844)
(141.99175 3.8321567e-16 -14.659134)
(142.03718 -6.0719776e-16 -13.950818)
(142.11035 1.1586984e-16 -13.25911)
(142.20939 -2.1986159e-16 -12.585953)
(142.3323 4.177416e-16 -11.93301)