/*--------------------------------*- C++ -*----------------------------------*\
| =========                 |                                                 |
| \\      /  F ield         | OpenFOAM: The Open Source CFD Toolbox           |
|  \\    /   O peration     | Version:  2106                                  |
|   \\  /    A nd           | Website:  www.openfoam.com                      |
|    \\/     M anipulation  |                                                 |
\*---------------------------------------------------------------------------*/
FoamFile
{
    version     2.0;
    format      ascii;
    arch        "LSB;label=32;scalar=64";
    class       volVectorField;
    location    "0";
    object      fullStressFunction;
}
// * * * * * * * * * * * * * * * * * * * * * * * * * * * * * * * * * * * * * //

dimensions      [0 1 -2 0 0 0 0];

internalField   nonuniform List<vector> 
11644
(
(4.0351613e-08 -7.1079633e-09 0)
(2.6766728e-08 -1.8497852e-08 0)
(1.7338495e-08 -2.5545668e-08 0)
(8.9767153e-09 -3.0364861e-08 0)
(1.8750253e-09 -3.4343726e-08 0)
(-4.1665217e-09 -3.827299e-08 0)
(-9.1116039e-09 -4.2399698e-08 0)
(-1.2743595e-08 -4.6937175e-08 0)
(-1.4569875e-08 -5.2055339e-08 0)
(-1.4164364e-08 -5.8040254e-08 0)
(-1.1203021e-08 -6.5544649e-08 0)
(-5.8974212e-09 -7.5288822e-08 0)
(3.6896218e-10 -8.9187629e-08 -9.5034537e-25)
(4.0625265e-09 -1.0782698e-07 -3.7177511e-22)
(-5.8939895e-10 -1.328993e-07 1.2255654e-21)
(-2.3486968e-08 -1.6213567e-07 7.0052149e-19)
(-7.5526775e-08 -1.8742701e-07 1.6209086e-21)
(-1.5997633e-07 -1.8608695e-07 -7.9068713e-23)
(-2.5140017e-07 -1.2741824e-07 2.7065829e-22)
(-2.8417101e-07 -1.3102694e-08 -6.9443606e-20)
(-2.2585838e-07 8.5244506e-08 -3.4738529e-19)
(-1.286151e-07 1.1744569e-07 -1.4049902e-21)
(-4.8358516e-08 1.0069856e-07 6.5079633e-22)
(-1.1321299e-09 6.3712686e-08 -1.8915669e-21)
(1.4009741e-08 2.764605e-08 -7.5454063e-19)
(8.456697e-09 5.2826887e-09 -1.7319094e-21)
(-5.4965445e-09 -3.3469382e-09 3.9914506e-22)
(-1.9202199e-08 -1.8345567e-09 1.5205526e-24)
(-2.9284457e-08 4.4085212e-09 0)
(-3.421022e-08 1.2700239e-08 0)
(-3.4409766e-08 2.0178958e-08 0)
(-3.1029819e-08 2.6033228e-08 0)
(-2.5240623e-08 2.989358e-08 0)
(-1.8010382e-08 3.196186e-08 0)
(-9.9077313e-09 3.253201e-08 0)
(-1.2619901e-09 3.1806043e-08 0)
(7.9690444e-09 2.9891554e-08 0)
(1.8097869e-08 2.6221607e-08 0)
(2.8996354e-08 1.9469944e-08 0)
(4.4332748e-08 7.5782737e-09 0)
(1.1728689e-07 -1.1806189e-08 0)
(9.5996212e-08 -3.4834527e-08 0)
(8.9491743e-08 -5.4225669e-08 0)
(8.272542e-08 -6.9915951e-08 0)
(7.6717654e-08 -8.3295562e-08 0)
(7.1409486e-08 -9.5696473e-08 0)
(6.652935e-08 -1.0778196e-07 0)
(6.1610226e-08 -1.2033642e-07 0)
(5.5901449e-08 -1.3403629e-07 0)
(4.8108503e-08 -1.5026275e-07 0)
(3.6383251e-08 -1.707997e-07 0)
(1.6932028e-08 -1.9946045e-07 0)
(-1.5008696e-08 -2.3934618e-07 -4.5616578e-24)
(-7.0391835e-08 -2.9635333e-07 -4.7441241e-22)
(-1.6085363e-07 -3.6680481e-07 3.1445023e-21)
(-3.0038166e-07 -4.3507452e-07 6.4481758e-19)
(-4.8114154e-07 -4.6888491e-07 6.6794825e-20)
(-7.013757e-07 -4.4183122e-07 7.6927763e-20)
(-8.9801465e-07 -3.1296709e-07 -2.1044436e-21)
(-9.9637985e-07 -9.5737091e-08 -8.8369601e-19)
(-9.4547382e-07 1.2684396e-07 8.8036296e-19)
(-7.7259149e-07 2.7177689e-07 1.5935382e-21)
(-5.5096237e-07 3.1229125e-07 4.0142571e-22)
(-3.4553473e-07 2.7441748e-07 -4.8317072e-20)
(-1.9625717e-07 2.1096403e-07 -1.073735e-18)
(-9.2853807e-08 1.4688035e-07 -5.7233591e-21)
(-3.2122112e-08 1.0339929e-07 7.2986525e-22)
(3.5268446e-09 8.3186257e-08 3.4212433e-24)
(2.4789019e-08 8.0157223e-08 0)
(3.9319463e-08 8.386538e-08 0)
(4.9437716e-08 8.9391573e-08 0)
(5.7268884e-08 9.2925879e-08 0)
(6.3639235e-08 9.3559508e-08 0)
(6.9304467e-08 9.1034806e-08 0)
(7.4815119e-08 8.5737389e-08 0)
(8.0586201e-08 7.7774026e-08 0)
(8.6909898e-08 6.716394e-08 0)
(9.3879785e-08 5.3100572e-08 0)
(1.0047265e-07 3.450452e-08 0)
(1.2282566e-07 1.1870989e-08 0)
(1.9951666e-07 -1.2428559e-08 0)
(1.7067085e-07 -3.9334112e-08 0)
(1.6751587e-07 -6.6006206e-08 0)
(1.6327404e-07 -9.1216979e-08 0)
(1.5960853e-07 -1.1580272e-07 0)
(1.5585943e-07 -1.4085592e-07 0)
(1.5135129e-07 -1.6731125e-07 0)
(1.4506026e-07 -1.964116e-07 0)
(1.3499458e-07 -2.2984613e-07 0)
(1.1826923e-07 -2.6981714e-07 0)
(8.9021688e-08 -3.208959e-07 0)
(3.9734674e-08 -3.8579588e-07 0)
(-4.6658554e-08 -4.7441634e-07 0)
(-1.8661021e-07 -5.7262448e-07 -1.4901413e-22)
(-4.0121156e-07 -6.7964894e-07 1.4141137e-22)
(-7.0150096e-07 -7.77317e-07 1.1255128e-19)
(-1.1079822e-06 -8.2742871e-07 1.0687535e-18)
(-1.5301831e-06 -7.5639125e-07 1.5498803e-18)
(-1.8674803e-06 -5.5570859e-07 9.7315297e-23)
(-2.0447991e-06 -2.6928609e-07 -1.5713986e-19)
(-1.9948512e-06 4.8079227e-08 2.4682563e-18)
(-1.7321189e-06 3.1388876e-07 5.0847242e-21)
(-1.3432826e-06 4.8225704e-07 -4.9144238e-21)
(-9.1432346e-07 5.2530695e-07 -1.4621872e-18)
(-5.3780046e-07 4.6590705e-07 -8.9229049e-20)
(-2.8214072e-07 3.830509e-07 4.2195328e-23)
(-1.1049766e-07 3.091941e-07 1.5661689e-22)
(-4.0460112e-09 2.5415399e-07 0)
(5.9522134e-08 2.1259196e-07 0)
(9.6389835e-08 1.8990668e-07 0)
(1.1955516e-07 1.7359344e-07 0)
(1.3380053e-07 1.6047298e-07 0)
(1.4304922e-07 1.4692676e-07 0)
(1.4911418e-07 1.3219204e-07 0)
(1.5349906e-07 1.159695e-07 0)
(1.5703188e-07 9.8236047e-08 0)
(1.6033488e-07 7.9005223e-08 0)
(1.6413882e-07 5.7962509e-08 0)
(1.6683829e-07 3.4785225e-08 0)
(1.9476842e-07 1.1266435e-08 0)
(2.7728791e-07 -1.3840395e-08 0)
(2.4227155e-07 -4.3421974e-08 0)
(2.4415786e-07 -7.5334731e-08 0)
(2.4557067e-07 -1.0844913e-07 0)
(2.4920198e-07 -1.4396178e-07 0)
(2.5324461e-07 -1.8351908e-07 0)
(2.5624251e-07 -2.2883439e-07 0)
(2.5603615e-07 -2.8244433e-07 0)
(2.4851116e-07 -3.4731659e-07 0)
(2.2670933e-07 -4.2944383e-07 0)
(1.7925535e-07 -5.3209884e-07 0)
(8.3345648e-08 -6.695494e-07 0)
(-7.7405225e-08 -8.267423e-07 0)
(-3.5193554e-07 -1.041884e-06 0)
(-7.7964554e-07 -1.2818272e-06 -3.1627489e-22)
(-1.4314359e-06 -1.4499561e-06 -5.0968902e-21)
(-2.1287453e-06 -1.4738915e-06 1.7460611e-19)
(-3.0361763e-06 -1.4680832e-06 6.4714668e-21)
(-3.8633085e-06 -1.1762844e-06 6.2038477e-22)
(-4.3668145e-06 -6.1255501e-07 4.5494866e-21)
(-4.3081597e-06 6.4179853e-08 2.1320549e-19)
(-3.7027933e-06 6.3822288e-07 -1.4040159e-19)
(-2.8138961e-06 9.516515e-07 1.2338362e-19)
(-1.9025978e-06 1.0026861e-06 -4.2946467e-20)
(-1.2106721e-06 1.0056779e-06 2.311239e-22)
(-6.0623748e-07 8.6592972e-07 4.500835e-22)
(-2.3730652e-07 6.7989518e-07 0)
(-1.4333205e-08 5.2536951e-07 0)
(1.0955467e-07 4.2344009e-07 0)
(1.7981969e-07 3.3901645e-07 0)
(2.133299e-07 2.8198564e-07 0)
(2.2817611e-07 2.3679607e-07 0)
(2.329691e-07 2.0045445e-07 0)
(2.3247417e-07 1.6834532e-07 0)
(2.2958218e-07 1.3912246e-07 0)
(2.2587237e-07 1.1170137e-07 0)
(2.2251053e-07 8.5580451e-08 0)
(2.211495e-07 6.0136964e-08 0)
(2.1927716e-07 3.4850919e-08 0)
(2.5044509e-07 1.1536406e-08 0)
(3.4614568e-07 -1.6656752e-08 0)
(3.0823338e-07 -4.8928844e-08 0)
(3.1692632e-07 -8.6199862e-08 0)
(3.2697096e-07 -1.2742687e-07 0)
(3.4281411e-07 -1.747377e-07 0)
(3.6157562e-07 -2.3118686e-07 0)
(3.8097835e-07 -3.0063803e-07 0)
(3.9762252e-07 -3.881109e-07 0)
(4.0399995e-07 -5.0207884e-07 0)
(3.9051804e-07 -6.5048463e-07 0)
(3.3129418e-07 -8.5749423e-07 0)
(2.1344722e-07 -1.1177414e-06 0)
(-5.7135157e-08 -1.5412338e-06 0)
(-5.7389677e-07 -1.9520241e-06 0)
(-1.4158352e-06 -2.4407445e-06 -9.1233156e-24)
(-2.4553335e-06 -2.9670463e-06 -5.3523433e-22)
(-4.260448e-06 -3.102718e-06 -1.4305351e-20)
(-6.1548542e-06 -2.769106e-06 -5.2237361e-18)
(-7.8547765e-06 -2.1297751e-06 -7.0066915e-21)
(-8.9195118e-06 -1.091254e-06 1.0315402e-20)
(-8.8603805e-06 2.074757e-07 -2.6858971e-20)
(-7.6786459e-06 1.3045554e-06 -4.8554426e-18)
(-5.8873854e-06 2.0387673e-06 3.8621986e-18)
(-3.9818805e-06 2.4702478e-06 3.1586118e-18)
(-2.1888444e-06 2.3160328e-06 -2.4542927e-19)
(-1.1820119e-06 1.8956205e-06 1.0218113e-21)
(-4.0852134e-07 1.4695166e-06 -5.7172778e-22)
(2.9095607e-08 1.1175383e-06 0)
(2.3024989e-07 7.7465976e-07 0)
(3.0905651e-07 5.8480096e-07 0)
(3.4388893e-07 4.4020785e-07 0)
(3.4617456e-07 3.4348301e-07 0)
(3.3634399e-07 2.7019917e-07 0)
(3.2057367e-07 2.1385015e-07 0)
(3.0383382e-07 1.678916e-07 0)
(2.881838e-07 1.2920902e-07 0)
(2.7516995e-07 9.5581067e-08 0)
(2.6707947e-07 6.5325314e-08 0)
(2.5991877e-07 3.7236862e-08 0)
(2.9090599e-07 1.3238924e-08 0)
(3.9034776e-07 -2.1586442e-08 0)
(3.5506598e-07 -5.740678e-08 0)
(3.7260614e-07 -1.0141775e-07 0)
(3.9458899e-07 -1.5248583e-07 0)
(4.2780794e-07 -2.1395209e-07 0)
(4.6910795e-07 -2.9112117e-07 0)
(5.1629397e-07 -3.9092819e-07 0)
(5.6523547e-07 -5.2481442e-07 0)
(6.0742272e-07 -7.0623224e-07 0)
(6.2511972e-07 -9.6984174e-07 0)
(5.8319648e-07 -1.3264374e-06 0)
(3.7407833e-07 -1.9486332e-06 0)
(-5.4146827e-08 -2.558395e-06 0)
(-8.0658615e-07 -3.7566216e-06 0)
(-2.0263099e-06 -4.6813744e-06 0)
(-4.2650216e-06 -6.4469968e-06 0)
(-1.6855732e-06 9.1811202e-06 -7.7852254e-21)
(2.1494643e-06 9.1152801e-06 -3.3418041e-19)
(6.1657099e-06 7.1590678e-06 2.1321721e-19)
(8.6406733e-06 2.4153409e-06 -5.3523161e-22)
(8.3348624e-06 -3.5464675e-06 -1.5667689e-20)
(5.3976846e-06 -7.8638371e-06 -7.0349029e-19)
(1.3818738e-06 -9.1895026e-06 4.2911139e-19)
(-2.2363855e-06 -8.7617931e-06 6.0362745e-18)
(-3.9136192e-06 5.525205e-06 -7.5536168e-18)
(-1.7352629e-06 3.9771526e-06 -2.6956356e-20)
(-5.9555337e-07 3.1367032e-06 6.6174449e-21)
(5.0411231e-08 2.0135774e-06 1.2164421e-22)
(3.9004559e-07 1.4837648e-06 0)
(5.1444176e-07 9.6311159e-07 0)
(5.2196742e-07 6.9212711e-07 0)
(4.9148528e-07 4.9961826e-07 0)
(4.4993991e-07 3.7349402e-07 0)
(4.0783997e-07 2.8128071e-07 0)
(3.6971951e-07 2.1250824e-07 0)
(3.3745139e-07 1.5832695e-07 0)
(3.1197599e-07 1.1421741e-07 0)
(2.9550186e-07 7.6654103e-08 0)
(2.8219055e-07 4.3452296e-08 0)
(3.0857178e-07 1.6807428e-08 0)
(3.9500368e-07 -2.9380153e-08 0)
(3.7030146e-07 -7.108221e-08 0)
(3.9882382e-07 -1.2477733e-07 0)
(4.3635046e-07 -1.8914974e-07 0)
(4.9235299e-07 -2.6916018e-07 0)
(5.6427177e-07 -3.7359948e-07 0)
(6.5080731e-07 -5.1490772e-07 0)
(7.4762487e-07 -7.1371788e-07 0)
(8.4172168e-07 -1.0057685e-06 0)
(9.1337274e-07 -1.4257046e-06 0)
(8.5813557e-07 -2.1605068e-06 0)
(8.6928785e-07 -2.8986292e-06 0)
(2.9820279e-07 -3.902675e-06 0)
(-9.0670872e-06 4.4539209e-06 -1.5570461e-21)
(-1.0349707e-05 7.8744554e-06 4.0872463e-21)
(1.294709e-05 4.2614797e-06 2.2090587e-19)
(2.5201408e-05 4.102075e-08 -1.0899317e-20)
(6.166285e-08 2.4462979e-06 2.4912692e-20)
(4.9704189e-07 -1.1184939e-07 -7.5127067e-20)
(-7.0148738e-07 -2.2077719e-06 -1.7516607e-20)
(-2.4541911e-06 -3.1922822e-06 -3.1006797e-19)
(-3.5382679e-06 -2.8383468e-06 6.8326552e-18)
(-3.4005125e-06 -2.2264804e-06 -6.1503125e-20)
(-3.058575e-06 -2.0462728e-06 1.0899312e-20)
(1.0683844e-05 -3.8477492e-06 -9.2955634e-19)
(-9.9088569e-06 -6.3841951e-06 -2.1068781e-20)
(-8.346767e-06 -3.3869608e-06 2.3355691e-21)
(3.6554292e-07 3.1986151e-06 0)
(7.5933044e-07 2.3261767e-06 0)
(7.1778027e-07 1.7080613e-06 0)
(7.2978323e-07 1.082191e-06 0)
(6.5145672e-07 7.5500377e-07 0)
(5.6778176e-07 5.3304886e-07 0)
(4.8975754e-07 3.8589051e-07 0)
(4.2348521e-07 2.8221285e-07 0)
(3.7016052e-07 2.0505315e-07 0)
(3.2946712e-07 1.4534466e-07 0)
(3.0292496e-07 9.6459574e-08 0)
(2.8247568e-07 5.4714312e-08 0)
(2.9905096e-07 2.2515665e-08 0)
(3.4917868e-07 -4.0688461e-08 0)
(3.445984e-07 -9.2905208e-08 0)
(3.8634279e-07 -1.6110681e-07 0)
(4.4362474e-07 -2.4394657e-07 0)
(5.2848089e-07 -3.4821297e-07 0)
(6.4000231e-07 -4.8788897e-07 0)
(7.8006508e-07 -6.8041699e-07 0)
(9.4444444e-07 -9.6711629e-07 0)
(1.1311758e-06 -1.3785741e-06 0)
(1.2779577e-06 -2.0996457e-06 0)
(1.3889478e-06 -2.970183e-06 0)
(6.7364532e-07 -4.9247309e-06 0)
(1.3815116e-05 3.5644989e-06 0)
(7.9805895e-06 1.5958748e-05 0)
(-4.6160742e-06 4.7749608e-06 -2.3355695e-21)
(-2.7027082e-06 8.0517099e-06 -6.8510038e-20)
(-1.3611096e-05 -1.3331043e-05 3.0113245e-18)
(-2.035376e-05 -1.5642046e-05 7.8346868e-18)
(-3.5987542e-05 -1.5987448e-05 -8.9612549e-18)
(-5.1108817e-05 -9.3446919e-06 -1.1260226e-17)
(-5.5147691e-05 4.0799771e-06 -7.0181469e-19)
(-4.4177227e-05 1.5015118e-05 -8.910923e-18)
(-2.7570094e-05 1.7625412e-05 -3.1335301e-19)
(-1.7504375e-05 1.7788366e-05 2.3355655e-19)
(-6.9395867e-06 -2.1697657e-06 2.7388426e-18)
(-5.1335229e-06 5.2471567e-09 -1.8684556e-20)
(-2.3635929e-06 3.4006898e-07 0)
(1.1251036e-05 -3.9119979e-06 0)
(5.6464171e-07 4.2568551e-06 0)
(1.1271448e-06 2.42198e-06 0)
(9.8310797e-07 1.6970839e-06 0)
(8.4483113e-07 1.0847969e-06 0)
(6.9109934e-07 7.5703587e-07 0)
(5.6568711e-07 5.2966459e-07 0)
(4.6348056e-07 3.8023483e-07 0)
(3.8475752e-07 2.7150681e-07 0)
(3.2622749e-07 1.9056093e-07 0)
(2.8791516e-07 1.257772e-07 0)
(2.5950516e-07 7.1616806e-08 0)
(2.6089038e-07 3.0275444e-08 0)
(2.5094915e-07 -5.5682902e-08 0)
(2.7631171e-07 -1.2569648e-07 0)
(3.3429692e-07 -2.1484769e-07 0)
(4.1689884e-07 -3.2236348e-07 0)
(5.3814879e-07 -4.5663333e-07 0)
(7.0100725e-07 -6.3923038e-07 0)
(9.1268542e-07 -8.9021901e-07 0)
(1.175985e-06 -1.2844423e-06 0)
(1.5029355e-06 -1.8421328e-06 0)
(1.8310226e-06 -2.8866597e-06 0)
(2.0509066e-06 -4.2816415e-06 0)
(1.4043272e-06 -6.7617737e-06 0)
(1.5750307e-05 1.1008621e-05 -2.1895957e-22)
(1.1267237e-05 1.3641314e-05 0)
(-2.5570397e-06 -1.2176771e-05 -1.8923277e-20)
(2.155292e-05 3.9873614e-05 4.9825482e-20)
(-9.9176659e-06 3.0862134e-05 9.3422762e-20)
(5.1392044e-06 4.0725488e-05 1.8217351e-18)
(2.6868767e-05 3.762876e-05 -5.2190646e-18)
(4.2816111e-05 1.1523938e-05 7.6600732e-19)
(3.693343e-05 -2.1240118e-05 -7.0877364e-19)
(1.8489943e-05 -3.5378348e-05 1.5214521e-17)
(2.1502042e-06 -3.4780433e-05 -4.8547766e-18)
(-7.023195e-06 -2.7662106e-05 2.9770633e-18)
(-7.1195861e-06 -1.4170309e-05 5.2005294e-19)
(-6.5308414e-06 1.5972334e-05 -2.3511392e-19)
(2.0770067e-06 1.1251339e-05 -3.1140917e-21)
(1.1986368e-05 -1.0261452e-05 -2.1895957e-22)
(1.1709691e-06 5.9917361e-06 0)
(1.6300475e-06 3.6555334e-06 0)
(1.3811445e-06 2.4116445e-06 0)
(1.0889475e-06 1.4955997e-06 0)
(8.3279483e-07 1.0316685e-06 0)
(6.3968705e-07 7.0393807e-07 0)
(4.923695e-07 5.011274e-07 0)
(3.8302853e-07 3.539522e-07 0)
(3.040707e-07 2.4765903e-07 0)
(2.5223087e-07 1.6327572e-07 0)
(2.1512361e-07 9.3485181e-08 0)
(1.9687412e-07 3.9389832e-08 0)
(1.1437654e-07 -7.3798176e-08 -3.8013815e-25)
(1.7740932e-07 -1.7083584e-07 -1.9006907e-25)
(2.5652434e-07 -2.8776158e-07 -7.602763e-25)
(3.7257634e-07 -4.2529356e-07 -7.602763e-25)
(5.4038826e-07 -5.9349589e-07 0)
(7.698616e-07 -8.2260382e-07 0)
(1.0751329e-06 -1.1382808e-06 0)
(1.4787868e-06 -1.6441324e-06 0)
(2.0035673e-06 -2.3924691e-06 0)
(2.6193422e-06 -3.755e-06 0)
(3.058267e-06 -5.6632242e-06 0)
(3.018892e-06 -9.6882278e-06 -1.0947979e-22)
(1.4127026e-05 2.1327392e-05 -9.5369059e-21)
(7.1038683e-06 2.2180052e-05 4.6711376e-21)
(-3.3777767e-06 -2.3044751e-05 -2.4620788e-19)
(4.5248536e-05 4.7450042e-05 -1.5570459e-20)
(9.3542944e-05 5.4084403e-05 -4.1728806e-19)
(-1.9696194e-05 -2.9719311e-05 -4.7352683e-19)
(-6.134892e-05 -5.5347659e-05 6.5904576e-19)
(-0.0001471713 -5.98744e-05 -1.1417792e-18)
(-0.00020680065 1.4047551e-05 9.3653472e-18)
(-0.00013958233 7.6841002e-05 5.6323514e-19)
(-5.470275e-05 6.017335e-05 1.1167597e-18)
(-1.6116604e-05 2.922712e-05 -3.048848e-19)
(9.3034557e-05 -4.3205138e-05 -6.5342357e-19)
(4.8098597e-05 -3.8484585e-05 -1.9735556e-19)
(5.9187208e-06 1.6674792e-05 5.4496605e-21)
(9.2064219e-06 -1.8460548e-05 -7.7852293e-21)
(2.7388077e-06 8.9697941e-06 -8.5150945e-23)
(2.4428346e-06 4.960137e-06 0)
(1.9517769e-06 3.1929306e-06 0)
(1.407902e-06 1.9663589e-06 0)
(1.0063973e-06 1.321601e-06 0)
(7.1978173e-07 8.9059084e-07 0)
(5.1777349e-07 6.2940337e-07 -7.602763e-25)
(3.7247751e-07 4.4252543e-07 0)
(2.7071685e-07 3.0995189e-07 -3.8013815e-25)
(2.0352579e-07 2.0484085e-07 -3.8013815e-25)
(1.5694588e-07 1.180705e-07 -2.7322429e-25)
(1.1696664e-07 4.8607684e-08 -1.9006907e-25)
(-3.0369613e-08 -9.3449836e-08 2.7940154e-23)
(7.3926546e-08 -2.2594043e-07 2.9650776e-23)
(1.818761e-07 -3.7426038e-07 3.3832295e-23)
(3.4226403e-07 -5.4127537e-07 4.2718025e-23)
(5.6909868e-07 -7.3926434e-07 4.8657683e-23)
(8.8172947e-07 -1.0048222e-06 6.2722795e-23)
(1.3041702e-06 -1.3721098e-06 6.0822104e-23)
(1.8877466e-06 -1.955855e-06 7.4507077e-23)
(2.671694e-06 -2.844535e-06 8.5150945e-23)
(3.6548954e-06 -4.3874434e-06 8.5150945e-23)
(4.5699259e-06 -6.5808497e-06 -1.070469e-21)
(6.4701622e-06 -1.2418553e-05 7.5905986e-21)
(4.4350952e-06 2.9753959e-05 -7.7852293e-21)
(-3.6642001e-06 2.7980639e-05 1.0120798e-20)
(3.6597549e-06 -3.723483e-05 3.8381149e-19)
(1.7993628e-05 9.1346146e-05 9.9650844e-20)
(8.4116695e-05 0.00018056612 4.9825148e-19)
(-3.0562957e-05 -0.00012192939 -1.046579e-18)
(-0.0001867887 -0.00025700081 2.7337236e-18)
(-0.00057282776 0.00067813544 -7.1444137e-19)
(0.00028743641 -0.00020734997 4.9223233e-18)
(-0.00055265116 -0.00051629329 5.4846732e-18)
(-0.00056141618 -0.00093129115 3.3571194e-19)
(-1.3481547e-05 0.00011669566 -2.3653175e-18)
(0.00010164681 -0.00018219594 1.1064716e-19)
(2.747867e-05 -9.041676e-05 3.2448821e-18)
(1.1486803e-05 2.1909705e-05 2.646978e-20)
(-8.5729473e-07 -2.289557e-05 2.29275e-19)
(6.4144147e-06 1.1822667e-05 8.2718061e-21)
(3.6819547e-06 5.8282402e-06 -8.2718061e-22)
(2.6559461e-06 3.7303393e-06 6.6904314e-23)
(1.7863889e-06 2.3149028e-06 6.0822104e-23)
(1.2020265e-06 1.5381659e-06 5.9301551e-23)
(8.0665226e-07 1.0379472e-06 5.0178236e-23)
(5.453182e-07 7.3251321e-07 4.2575473e-23)
(3.6254673e-07 5.1745782e-07 3.7253539e-23)
(2.3734355e-07 3.6473748e-07 3.2691881e-23)
(1.537354e-07 2.429549e-07 2.9935879e-23)
(9.7166548e-08 1.4132324e-07 3.0030914e-23)
(3.6753051e-08 5.6293025e-08 2.7369947e-23)
(-1.4430578e-07 -1.1201551e-07 1.3150879e-21)
(6.2937297e-12 -2.829289e-07 1.3282027e-21)
(1.4719267e-07 -4.5760458e-07 1.554575e-21)
(3.6314508e-07 -6.4194127e-07 1.9539101e-21)
(6.5949795e-07 -8.5168428e-07 2.4724185e-21)
(1.0660804e-06 -1.1254811e-06 2.8829677e-21)
(1.6201994e-06 -1.5034592e-06 3.0973656e-21)
(2.3989291e-06 -2.0873146e-06 3.5885041e-21)
(3.4581744e-06 -2.9809643e-06 4.2028074e-21)
(4.7884955e-06 -4.3909245e-06 5.9605662e-21)
(6.5107995e-06 -6.7394789e-06 3.381709e-21)
(1.1062902e-05 -1.2613848e-05 5.8194589e-20)
(-1.1048189e-05 3.1994067e-05 2.1747065e-18)
(-1.8045501e-05 2.7659036e-05 1.6566968e-18)
(1.6570852e-05 -4.1635332e-05 -1.1210731e-19)
(-4.1130712e-05 9.535587e-05 -6.3838731e-19)
(-7.6843176e-05 0.0002339841 7.6293358e-20)
(-0.00023391003 0.00075385613 -2.5134531e-18)
(-0.010677573 -0.019943487 1.7244387e-19)
(-0.026970956 -0.014560747 1.7306293e-18)
(-0.00096937375 -0.00059239729 6.3437875e-19)
(-0.00010989594 -0.00027034341 -6.7265552e-18)
(-5.0593357e-05 -9.9999823e-05 -2.596372e-19)
(1.8308965e-05 2.1679244e-05 -1.5897426e-18)
(-1.4616856e-05 -1.8786564e-05 4.948681e-18)
(1.1361472e-05 1.1954598e-05 1.0334892e-19)
(5.1836714e-06 5.9394794e-06 1.532717e-21)
(3.2329811e-06 3.6596158e-06 4.4765068e-21)
(2.1005062e-06 2.3660165e-06 3.4668599e-21)
(1.359469e-06 1.5823517e-06 2.9802831e-21)
(8.783689e-07 1.086634e-06 2.2747467e-21)
(5.7025778e-07 7.7376195e-07 1.9341429e-21)
(3.586162e-07 5.5523366e-07 1.6817312e-21)
(2.1400059e-07 3.9699471e-07 1.5661692e-21)
(1.1515508e-07 2.686289e-07 1.3570932e-21)
(4.8641681e-08 1.584323e-07 1.4103125e-21)
(-2.7316637e-08 6.1000802e-08 1.2088393e-21)
(-1.9292596e-07 -1.2601347e-07 -3.4272875e-20)
(-1.320358e-08 -3.2670639e-07 -2.729772e-20)
(1.8330603e-07 -5.0806854e-07 -2.3005961e-20)
(4.5983899e-07 -6.8307743e-07 1.4728072e-19)
(8.2692189e-07 -8.738125e-07 -3.0978218e-20)
(1.3247612e-06 -1.1159573e-06 -4.5592249e-20)
(2.0079668e-06 -1.4505216e-06 1.6330735e-21)
(2.963151e-06 -1.9409621e-06 1.6945038e-20)
(4.273396e-06 -2.7042662e-06 3.5009203e-20)
(5.8563819e-06 -3.7296157e-06 3.6858195e-20)
(8.5649478e-06 -5.9436997e-06 6.3449619e-20)
(1.4241786e-05 -9.9346947e-06 8.6586347e-20)
(-2.5652417e-05 2.8301633e-05 3.9665743e-19)
(-2.9683009e-05 2.2884648e-05 -1.2456367e-20)
(1.7582022e-05 -2.7089179e-05 5.277607e-18)
(-6.9847346e-05 5.7845412e-05 -1.712748e-19)
(-0.00014590724 9.1573414e-05 4.1198338e-18)
(-0.0011047461 0.00046060341 -1.6815315e-18)
(0.010852864 0.0011750941 1.3922946e-19)
(0.0040505963 0.00058584814 1.0332864e-18)
(-0.00025062136 -0.00015741941 1.500163e-18)
(-0.00024181946 -8.13566e-05 2.1817848e-19)
(-0.00010299635 -4.4226122e-05 -2.5438218e-19)
(2.2594834e-05 1.3627724e-05 1.9276212e-18)
(-2.3665189e-05 -6.6802788e-06 -1.133724e-19)
(1.4205858e-05 8.91469e-06 -3.6687893e-20)
(6.3534114e-06 5.088644e-06 -1.5278512e-20)
(3.3690079e-06 3.0450454e-06 -1.8587235e-20)
(2.190064e-06 2.1071457e-06 -1.2650998e-20)
(1.3903632e-06 1.4288756e-06 -2.0229432e-20)
(8.9776702e-07 1.0141014e-06 -7.9737778e-21)
(5.7786643e-07 7.346277e-07 -7.3777212e-21)
(3.5922657e-07 5.4146636e-07 -8.8800272e-21)
(2.0540767e-07 3.9652469e-07 -1.2609943e-20)
(9.5657287e-08 2.7533045e-07 -1.1547076e-20)
(2.02284e-08 1.6590868e-07 -2.2169657e-20)
(-6.4348649e-08 6.2191921e-08 -1.4016454e-20)
(-1.596147e-07 -1.3063353e-07 -3.2693028e-20)
(4.9160759e-08 -3.3232571e-07 -2.5271584e-20)
(2.9532645e-07 -4.8260554e-07 -8.0963344e-20)
(6.2112659e-07 -6.1254022e-07 -1.1895283e-19)
(1.0434578e-06 -7.5060068e-07 -2.5963588e-19)
(1.6137288e-06 -9.2343292e-07 -3.1476959e-19)
(2.4081259e-06 -1.1619493e-06 -5.8699412e-19)
(3.5098673e-06 -1.4905823e-06 -7.7668002e-19)
(5.0385001e-06 -1.9967223e-06 -1.5011503e-18)
(6.8987202e-06 -2.6307627e-06 -2.8348574e-18)
(1.0350617e-05 -4.0110911e-06 -3.1420212e-18)
(1.5961673e-05 -6.4394748e-06 -5.3986673e-18)
(-3.4843529e-05 2.2763074e-05 5.2455902e-18)
(-3.7172398e-05 1.7397864e-05 1.0587912e-19)
(1.0428922e-05 -1.2040971e-05 -4.9046905e-19)
(-7.0458215e-05 3.613243e-05 -6.2281731e-21)
(-8.6024814e-05 1.4011534e-05 -3.6745849e-19)
(-0.0040113017 0.00063076406 3.9546701e-18)
(0.0010309421 6.5038098e-05 -1.7166332e-19)
(0.0018267737 -0.0001900547 5.8894489e-18)
(-0.0029715183 -0.00050671562 9.5709051e-18)
(-0.00019287983 2.119875e-05 8.851953e-18)
(-9.7271818e-05 8.3108034e-06 1.315781e-17)
(2.1464031e-05 2.2157951e-06 -7.4574711e-18)
(-2.1327626e-05 7.2053234e-06 -8.351994e-18)
(1.3778746e-05 4.956246e-06 -5.5002645e-18)
(6.362604e-06 3.4794315e-06 -3.7025577e-18)
(3.0037675e-06 2.2816914e-06 -1.8508166e-18)
(1.9610972e-06 1.6700117e-06 -1.4127028e-18)
(1.2447589e-06 1.1529675e-06 -9.5279042e-19)
(8.3643688e-07 8.4724386e-07 -6.2741649e-19)
(5.5387278e-07 6.2652907e-07 -4.9126013e-19)
(3.5817747e-07 4.7881199e-07 -3.7675644e-19)
(2.0979729e-07 3.6310772e-07 -3.0579985e-19)
(9.607536e-08 2.6216097e-07 -3.0060413e-19)
(1.3536887e-08 1.6327179e-07 -2.3891303e-19)
(-7.3223779e-08 6.0494549e-08 -2.4116621e-19)
(-5.2240587e-08 -1.1375171e-07 -4.0715077e-20)
(1.6754938e-07 -2.5782642e-07 -3.4297584e-20)
(4.3989066e-07 -3.3541017e-07 -2.6491828e-20)
(7.8354344e-07 -3.9728493e-07 -1.8892258e-19)
(1.2316566e-06 -4.634235e-07 -2.1531025e-21)
(1.8483671e-06 -5.4277897e-07 1.7854329e-20)
(2.7254426e-06 -6.4460605e-07 -2.5609147e-20)
(3.9693795e-06 -7.7407097e-07 -3.9041708e-20)
(5.6659711e-06 -9.2244305e-07 -7.2633756e-20)
(8.0693275e-06 -1.1815009e-06 -9.1172334e-20)
(1.1665898e-05 -1.3346454e-06 -1.4982309e-19)
(1.8497504e-05 -2.8049215e-06 -2.3175654e-19)
(-4.0800464e-05 1.8029571e-05 -1.2261736e-19)
(-4.3791182e-05 1.0605525e-05 0)
(9.1312142e-06 -1.939017e-06 4.756775e-19)
(-8.2929433e-05 3.5944103e-05 -3.1140915e-21)
(-9.5543963e-05 1.610513e-05 -7.0923334e-19)
(-0.0013441373 4.6921979e-05 -8.614112e-18)
(0.0011000223 0.00010729987 -7.3375441e-18)
(-5.3567433e-05 -0.00015013907 3.0263266e-19)
(6.7475704e-05 7.1884039e-06 1.9128331e-18)
(7.4446116e-05 -1.7961793e-05 -2.1027225e-18)
(0.0011654177 -0.00048639439 -1.7145381e-17)
(-0.0015842056 -0.00014882823 1.7797132e-17)
(-0.0001780574 7.3792406e-05 6.7384993e-18)
(-7.2698744e-05 4.3480897e-05 -2.9155683e-19)
(1.8566069e-05 -7.5118679e-06 1.6699317e-19)
(-1.0228856e-05 1.4025916e-05 -4.6730839e-19)
(1.0856567e-05 1.5050701e-06 -3.1131186e-19)
(4.9772836e-06 1.9612918e-06 -2.0134549e-19)
(2.2038348e-06 1.65333e-06 -1.4348543e-19)
(1.41318e-06 1.2269768e-06 -1.0826334e-19)
(9.3820944e-07 8.5516396e-07 -5.9912813e-20)
(6.9152286e-07 6.3567635e-07 -6.2330492e-20)
(4.9609205e-07 4.7977676e-07 -5.1029745e-20)
(3.505051e-07 3.8332757e-07 -3.7813102e-20)
(2.2220451e-07 3.0562331e-07 -3.0801834e-20)
(1.1180416e-07 2.3358762e-07 -3.0330463e-20)
(2.3889106e-08 1.5298994e-07 -2.3854429e-20)
(-6.1459337e-08 5.7341015e-08 -2.8632766e-20)
(4.2152522e-08 -2.820412e-08 1.1174161e-21)
(2.5501199e-07 -5.9255797e-08 3.0281805e-21)
(5.1572099e-07 -6.7676348e-08 5.3417013e-21)
(8.4785944e-07 -7.1985537e-08 8.5014096e-21)
(1.2955582e-06 -6.5664335e-08 1.2727025e-20)
(1.9292109e-06 -3.7338034e-08 1.6771695e-20)
(2.8359127e-06 3.5138317e-08 2.1032284e-20)
(4.196825e-06 1.5931888e-07 2.5642599e-20)
(5.9718212e-06 4.7304273e-07 3.5818137e-20)
(8.9438037e-06 8.0994374e-07 5.3523451e-20)
(1.2740704e-05 2.0518828e-06 6.4130826e-20)
(2.4281777e-05 2.231385e-06 8.6416045e-20)
(-5.0841354e-05 2.1547498e-06 -1.5259049e-19)
(-4.8457589e-05 -9.9474853e-07 0)
(1.7018184e-05 7.7226466e-06 -3.8926146e-21)
(-0.00011355194 0.0001122645 3.1140917e-21)
(-0.00093259173 -7.3443023e-05 -1.6364545e-18)
(0.00020430842 0.00013677547 -1.8373003e-19)
(0.00082339541 0.00033580636 2.4429409e-17)
(0.00072459405 0.00014212456 4.3125607e-17)
(0.00066727338 3.0462288e-06 -1.6684787e-17)
(0.0006066978 0.00013308169 -1.8183255e-17)
(0.00034933779 0.00017504995 -3.5444786e-18)
(-0.0015352099 -8.2957283e-05 -5.7011018e-18)
(-0.00014816843 -2.9983652e-05 -7.4489038e-18)
(2.3952399e-05 -5.5778989e-05 4.2818761e-21)
(1.3590808e-05 -1.456533e-05 7.7852293e-21)
(9.5065806e-07 1.1422511e-05 7.9020077e-20)
(6.6942958e-06 -8.5744321e-07 4.7587214e-20)
(2.7668933e-06 1.2869697e-06 2.9340583e-20)
(1.1522828e-06 1.2942436e-06 2.2954262e-20)
(6.9675914e-07 8.9826292e-07 1.8210138e-20)
(5.6478069e-07 5.9265285e-07 1.4059029e-20)
(5.0798306e-07 4.2432082e-07 1.271182e-20)
(4.2606631e-07 3.2671176e-07 1.0850663e-20)
(3.409044e-07 2.7662371e-07 8.5105329e-21)
(2.403663e-07 2.3722951e-07 7.0454805e-21)
(1.3770315e-07 1.9638909e-07 5.7971068e-21)
(4.5132154e-08 1.3866424e-07 5.159235e-21)
(-3.937422e-08 5.4239439e-08 4.1480675e-21)
(2.5661874e-08 7.5306659e-08 -2.5526277e-22)
(2.0802396e-07 1.5430804e-07 -4.4172053e-22)
(4.4872402e-07 1.9232854e-07 -7.2454331e-22)
(7.6284703e-07 2.3802999e-07 -1.1449761e-21)
(1.1916673e-06 3.1758333e-07 -1.6133063e-21)
(1.810127e-06 4.601339e-07 -2.0466638e-21)
(2.7022573e-06 7.2544658e-07 -2.1424586e-21)
(4.0683465e-06 1.174081e-06 -2.4937063e-21)
(5.9793373e-06 1.9874487e-06 -2.6275149e-21)
(8.9720884e-06 3.3044699e-06 -3.4060378e-21)
(1.431437e-05 5.7308011e-06 -3.1140917e-21)
(2.2771312e-05 1.0421378e-05 -2.919461e-21)
(4.5877692e-05 1.8230501e-05 4.2818761e-21)
(-9.1263785e-05 6.1432333e-05 0)
(-9.8870768e-05 -3.2683682e-05 0)
(-0.00016017122 3.35749e-05 2.6314075e-19)
(-0.00049888116 -0.00011036802 -4.2787588e-18)
(-0.00026100274 0.0001300524 2.6672121e-18)
(-8.3847467e-06 0.00035789596 3.325266e-17)
(0.00058616848 0.0005840701 2.1743592e-17)
(0.00082917522 0.00044558212 -7.8433906e-18)
(0.0012016475 0.00060162193 -1.7855997e-17)
(-0.00024280483 0.00066235372 2.9366018e-17)
(-0.0014038262 -0.00011235984 1.6033649e-18)
(-0.00011205193 0.00018925815 -2.2565582e-17)
(-3.7578988e-05 -6.9472202e-05 3.4255009e-20)
(-8.48279e-06 -7.9932069e-07 -5.0829762e-18)
(-1.6529241e-06 -1.3525739e-05 2.0436227e-21)
(1.5458544e-06 -1.4297575e-06 9.7315366e-22)
(7.1563287e-07 1.2073901e-06 -5.0178236e-22)
(1.1610027e-07 1.0075084e-06 -6.6904314e-22)
(9.0503393e-08 5.4286275e-07 -8.0893398e-22)
(2.6791943e-07 3.1144051e-07 -1.0522224e-21)
(3.667759e-07 2.1401844e-07 -8.2718061e-22)
(3.8113193e-07 1.8061032e-07 -7.5343381e-22)
(3.4301472e-07 1.7251479e-07 -7.0173502e-22)
(2.6646197e-07 1.6628611e-07 -6.4623485e-22)
(1.7133685e-07 1.5330231e-07 -4.7973434e-22)
(7.4170493e-08 1.2064291e-07 -4.3886949e-22)
(-1.3213427e-08 5.1572494e-08 -3.0857714e-22)
(-2.9055047e-08 9.0474795e-08 -5.3219341e-23)
(1.1863228e-07 2.1408141e-07 -6.5383762e-23)
(3.1719982e-07 3.0834611e-07 -9.0472879e-23)
(5.9282372e-07 4.1158803e-07 -1.2772642e-22)
(9.7294607e-07 5.6694109e-07 -1.8246631e-22)
(1.5248947e-06 8.2733701e-07 -2.3112399e-22)
(2.3378384e-06 1.2905027e-06 -2.9346665e-22)
(3.5580586e-06 2.0835995e-06 -3.1627494e-22)
(5.4025669e-06 3.4960065e-06 -4.4894315e-22)
(8.1050821e-06 5.8753823e-06 -6.8120756e-22)
(1.3404735e-05 1.0361771e-05 -8.2718061e-22)
(2.1713718e-05 1.7926525e-05 -1.3624151e-21)
(3.8203018e-05 3.3254064e-05 1.5570459e-21)
(-6.7222952e-05 -5.1484094e-05 0)
(-6.2139044e-05 -4.7588816e-05 0)
(-0.00012389925 1.6894461e-05 -1.2456367e-20)
(-0.00033129942 -0.00010323879 9.3422744e-20)
(-0.00088737743 -0.00017098691 8.7311281e-19)
(-0.00013873698 0.00023509094 2.9116699e-19)
(-7.3829139e-05 0.00027618145 -8.2873535e-19)
(0.00065231284 0.00059428215 2.7238106e-17)
(0.0014120522 0.00053912768 -9.3870189e-18)
(0.00075699192 0.00066708494 -6.2281714e-20)
(-0.001578698 -0.0003320411 5.0619527e-18)
(-0.00011421514 0.00022490536 8.4664369e-19)
(-0.00012261488 -6.0374736e-05 -1.5570459e-21)
(7.6782344e-06 2.5972863e-06 -3.3729506e-19)
(-1.1100801e-05 -3.1515953e-06 -3.8926146e-22)
(-7.2867879e-07 -1.0862458e-07 -1.7030189e-22)
(8.5005549e-07 1.21263e-08 -7.2986525e-23)
(-1.6622569e-08 -2.0650416e-07 -1.3989084e-22)
(4.4262345e-09 -1.6883565e-07 -1.5205526e-22)
(2.2905497e-07 -7.4094414e-08 -1.5205526e-22)
(3.6098153e-07 -7.5344031e-09 -1.3380863e-22)
(4.015344e-07 4.1606808e-08 -1.2164421e-22)
(3.7415581e-07 7.2938889e-08 -9.8075642e-23)
(3.0501456e-07 9.0834369e-08 -8.210984e-23)
(2.1183521e-07 9.7338897e-08 -5.8351206e-23)
(1.10728e-07 8.9034129e-08 -4.3424844e-23)
(1.9016954e-08 4.4996579e-08 -2.4738678e-23)
(-3.9970982e-09 7.5255866e-08 2.660967e-24)
(9.0773809e-08 1.847932e-07 2.470898e-24)
(2.3024171e-07 2.9804944e-07 3.0411052e-24)
(4.4062445e-07 4.3773654e-07 3.8013815e-24)
(7.3902568e-07 6.4953565e-07 6.8424867e-24)
(1.171945e-06 1.002743e-06 3.0411052e-24)