/*--------------------------------*- C++ -*----------------------------------*\
| =========                 |                                                 |
| \\      /  F ield         | OpenFOAM: The Open Source CFD Toolbox           |
|  \\    /   O peration     | Version:  2106                                  |
|   \\  /    A nd           | Website:  www.openfoam.com                      |
|    \\/     M anipulation  |                                                 |
\*---------------------------------------------------------------------------*/
FoamFile
{
    version     2.0;
    format      ascii;
    arch        "LSB;label=32;scalar=64";
    class       volScalarField;
    location    "500";
    object      nut;
}
// * * * * * * * * * * * * * * * * * * * * * * * * * * * * * * * * * * * * * //

dimensions      [0 2 -1 0 0 0 0];

internalField   nonuniform List<scalar> 
11644
(
1.4087528e-06
1.953103e-06
2.7424413e-06
3.6328214e-06
4.5586139e-06
5.5005381e-06
6.4380578e-06
7.3507038e-06
8.210211e-06
8.9806944e-06
9.6152427e-06
1.005913e-05
1.0246288e-05
1.011467e-05
9.6010935e-06
8.6730289e-06
7.3405088e-06
5.7606136e-06
4.3387122e-06
4.0161396e-06
5.2505368e-06
7.1630108e-06
9.0610922e-06
1.0638817e-05
1.1772716e-05
1.2414503e-05
1.2601974e-05
1.2397546e-05
1.18832e-05
1.1134247e-05
1.0224282e-05
9.2118993e-06
8.1448194e-06
7.0576868e-06
5.976086e-06
4.9170575e-06
3.8973652e-06
2.9331949e-06
2.0891632e-06
1.5135122e-06
4.021151e-06
4.2456079e-06
4.6970838e-06
5.3197585e-06
6.0507166e-06
6.857362e-06
7.7049378e-06
8.5653252e-06
9.4066765e-06
1.019405e-05
1.0891014e-05
1.1453572e-05
1.1853595e-05
1.2047304e-05
1.2047902e-05
1.1889234e-05
1.1657235e-05
1.1400586e-05
1.1228585e-05
1.1253003e-05
1.1497415e-05
1.192423e-05
1.2451274e-05
1.2941352e-05
1.3292599e-05
1.3470568e-05
1.3413032e-05
1.3110994e-05
1.2575628e-05
1.1866167e-05
1.1023581e-05
1.0100254e-05
9.1380099e-06
8.1745977e-06
7.2427898e-06
6.3704783e-06
5.5910983e-06
4.9358665e-06
4.4645702e-06
4.2304448e-06
6.7027254e-06
6.8512117e-06
7.1789571e-06
7.6648116e-06
8.2750338e-06
8.9907917e-06
9.7860799e-06
1.063971e-05
1.1525956e-05
1.242484e-05
1.3311966e-05
1.418829e-05
1.5036519e-05
1.5928263e-05
1.6854458e-05
1.782718e-05
1.8735756e-05
1.9767955e-05
2.0588727e-05
2.1016303e-05
2.0907979e-05
2.0294338e-05
1.9366985e-05
1.8344733e-05
1.7510638e-05
1.6677298e-05
1.5906832e-05
1.5152524e-05
1.439665e-05
1.3572702e-05
1.2705173e-05
1.1803404e-05
1.0901515e-05
1.0026975e-05
9.2107121e-06
8.4771722e-06
7.8534988e-06
7.3591171e-06
7.0251893e-06
6.8720622e-06
9.4097605e-06
9.5479291e-06
9.8566011e-06
1.0326009e-05
1.0935507e-05
1.1674934e-05
1.2529197e-05
1.3486709e-05
1.4536698e-05
1.5672357e-05
1.6910567e-05
1.8252762e-05
1.9812588e-05
2.1470829e-05
2.3388e-05
2.5596192e-05
2.8143233e-05
3.0317112e-05
3.1845631e-05
3.2584344e-05
3.2261819e-05
3.0928312e-05
2.8931919e-05
2.6494882e-05
2.3902226e-05
2.1834178e-05
2.0167236e-05
1.8787793e-05
1.7502206e-05
1.6383655e-05
1.5313544e-05
1.4295775e-05
1.3324919e-05
1.2419017e-05
1.1597916e-05
1.0880074e-05
1.0284642e-05
9.8247803e-06
9.5201129e-06
9.3817191e-06
1.206566e-05
1.22266e-05
1.2575745e-05
1.3109855e-05
1.381773e-05
1.4695723e-05
1.5739218e-05
1.6949806e-05
1.8328905e-05
1.9905156e-05
2.1682862e-05
2.3799192e-05
2.6127976e-05
2.9217488e-05
3.2903764e-05
3.6944579e-05
4.0553393e-05
4.5095952e-05
4.8617675e-05
5.0396202e-05
4.9899702e-05
4.7185075e-05
4.291843e-05
3.7976151e-05
3.4121202e-05
3.0101673e-05
2.6716205e-05
2.4036308e-05
2.2083807e-05
2.0304875e-05
1.8805188e-05
1.7441889e-05
1.6221741e-05
1.5127521e-05
1.4168619e-05
1.335206e-05
1.2688129e-05
1.2184546e-05
1.1852761e-05
1.1699008e-05
1.4560881e-05
1.4770559e-05
1.5209072e-05
1.5878423e-05
1.6777065e-05
1.7907476e-05
1.9278469e-05
2.0903618e-05
2.2815612e-05
2.5050732e-05
2.7746872e-05
3.0920894e-05
3.5382315e-05
3.9954333e-05
4.5568119e-05
5.2053194e-05
5.9894665e-05
6.649915e-05
7.1921593e-05
7.4989084e-05
7.4387501e-05
7.0162891e-05
6.3773997e-05
5.6632167e-05
4.8265544e-05
4.1870688e-05
3.6481354e-05
3.225473e-05
2.8236582e-05
2.5466666e-05
2.3114127e-05
2.1162413e-05
1.9475573e-05
1.8028719e-05
1.6796958e-05
1.5774832e-05
1.4958307e-05
1.4348214e-05
1.3946979e-05
1.3756643e-05
1.6743863e-05
1.7026086e-05
1.760001e-05
1.8472705e-05
1.9654639e-05
2.1157276e-05
2.3009921e-05
2.5251534e-05
2.7952718e-05
3.1255502e-05
3.5232855e-05
4.0725873e-05
4.5992702e-05
5.5048245e-05
6.3998281e-05
7.6322394e-05
2.8582899e-05
3.4284596e-05
3.8689835e-05
4.1699122e-05
4.2486638e-05
4.0750353e-05
3.7049344e-05
3.182949e-05
7.1847341e-05
5.9387563e-05
5.0749569e-05
4.2054955e-05
3.7151041e-05
3.1994728e-05
2.8397994e-05
2.5424737e-05
2.3011491e-05
2.1016118e-05
1.9369834e-05
1.8037658e-05
1.6991393e-05
1.6220066e-05
1.571372e-05
1.5469468e-05
1.8427591e-05
1.880492e-05
1.9558038e-05
2.069837e-05
2.2250156e-05
2.4234445e-05
2.6709024e-05
2.9731428e-05
3.3457587e-05
3.7978689e-05
4.391097e-05
5.0728319e-05
6.1541795e-05
2.2359781e-05
2.8789313e-05
3.6464521e-05
4.4235907e-05
5.5729117e-05
6.4836679e-05
7.1438327e-05
7.2689117e-05
6.7821834e-05
5.8932668e-05
4.9329489e-05
4.0544959e-05
3.2780488e-05
2.5054993e-05
5.6718088e-05
4.6049466e-05
3.9649771e-05
3.4070006e-05
2.9941181e-05
2.6576084e-05
2.3893346e-05
2.1719818e-05
1.9997162e-05
1.8661237e-05
1.7686748e-05
1.7047933e-05
1.6736422e-05
1.9410313e-05
1.9904214e-05
2.087762e-05
2.2343748e-05
2.4340331e-05
2.6894337e-05
3.0101917e-05
3.4023749e-05
3.8945317e-05
4.4882514e-05
5.2843267e-05
6.2284278e-05
7.5563001e-05
3.1314288e-05
4.178413e-05
5.6148922e-05
2.3999497e-05
3.1721289e-05
3.9985947e-05
4.7208843e-05
5.0390643e-05
4.7728249e-05
4.0627694e-05
3.2234755e-05
2.3550592e-05
4.495749e-05
3.3657393e-05
6.9568596e-05
5.6401551e-05
4.7289768e-05
3.9713453e-05
3.4268251e-05
2.9830704e-05
2.6395936e-05
2.3636263e-05
2.1484718e-05
1.982797e-05
1.8628277e-05
1.7841757e-05
1.7455241e-05
1.9507465e-05
2.0140322e-05
2.1375168e-05
2.3221571e-05
2.5726084e-05
2.8917371e-05
3.2931217e-05
3.7841476e-05
4.4033566e-05
5.159641e-05
6.1566454e-05
7.3582916e-05
9.0835474e-05
4.0495574e-05
5.4567685e-05
2.6132273e-05
1.3677435e-05
2.1510499e-05
3.0865997e-05
4.0490229e-05
4.4444214e-05
3.9652499e-05
2.9840159e-05
2.0642131e-05
3.5783845e-05
6.2450736e-05
4.3989767e-05
8.3725759e-05
6.6072608e-05
5.433173e-05
4.4825391e-05
3.792898e-05
3.2437591e-05
2.8249902e-05
2.4914965e-05
2.234289e-05
2.036895e-05
1.8944782e-05
1.800917e-05
1.7546144e-05
1.8588028e-05
1.9387596e-05
2.0930399e-05
2.3210843e-05
2.6270361e-05
3.0133977e-05
3.4962372e-05
4.0855839e-05
4.8238632e-05
5.7291614e-05
6.8903693e-05
8.2839001e-05
0.00010416195
4.9380706e-05
6.6572729e-05
3.4888456e-05
2.0272515e-05
3.6426903e-05
2.5507179e-05
4.4296652e-05
5.5355301e-05
4.410229e-05
2.6653693e-05
3.5311366e-05
5.1056976e-05
7.9595205e-05
5.3526414e-05
9.5709113e-05
7.304631e-05
5.9335289e-05
4.8359907e-05
4.0290426e-05
3.3972218e-05
2.9170203e-05
2.537277e-05
2.2451185e-05
2.020679e-05
1.8584027e-05
1.7512383e-05
1.6977317e-05
1.6610923e-05
1.7620659e-05
1.9535366e-05
2.2310214e-05
2.5957081e-05
3.0491709e-05
3.6080082e-05
4.2851464e-05
5.120808e-05
6.1380324e-05
7.3903908e-05
8.9417192e-05
0.00011245114
5.5170681e-05
7.2120514e-05
4.006299e-05
2.4994636e-05
1.8523149e-05
0.0001185378
9.3076114e-05
4.7047036e-05
6.1280198e-05
8.95858e-05
5.8860704e-05
0.00010175795
7.6241351e-05
6.086901e-05
4.9424023e-05
4.0783266e-05
3.4083512e-05
2.8957751e-05
2.4910671e-05
2.1773585e-05
1.9344949e-05
1.7570098e-05
1.6385684e-05
1.5786284e-05
1.365334e-05
1.495556e-05
1.7344605e-05
2.0688624e-05
2.4942001e-05
3.0116948e-05
3.6373325e-05
4.3883283e-05
5.2961128e-05
6.3932733e-05
7.6789967e-05
9.360682e-05
0.00011550926
5.6672925e-05
6.9587051e-05
3.721238e-05
2.0666296e-05
1.6943736e-05
1.515605e-05
2.5763567e-05
5.9817524e-06
5.4977486e-05
8.7121027e-05
5.8773538e-05
0.00010006877
7.5026746e-05
5.8511234e-05
4.7699157e-05
3.9176106e-05
3.2681941e-05
2.7606547e-05
2.3584607e-05
2.0402158e-05
1.7894953e-05
1.6020246e-05
1.4745367e-05
1.4086226e-05
9.9238854e-06
1.1694125e-05
1.4718286e-05
1.8701977e-05
2.3543485e-05
2.9286573e-05
3.6096788e-05
4.4210316e-05
5.385551e-05
6.5449911e-05
7.8762361e-05
9.6225847e-05
0.00011712779
5.6805686e-05
6.4122756e-05
3.0939637e-05
8.8825194e-06
0.00010892053
2.2276996e-05
3.893611e-05
6.1217813e-05
4.2907955e-05
8.0309677e-05
5.575412e-05
9.1754684e-05
6.8820791e-05
5.2733312e-05
4.3314986e-05
3.5648549e-05
2.9959965e-05
2.5329893e-05
2.1617111e-05
1.8557878e-05
1.6069339e-05
1.413211e-05
1.2772382e-05
1.2045527e-05
5.7919065e-06
8.4385739e-06
1.2267419e-05
1.6861433e-05
2.2173273e-05
2.8336441e-05
3.5561846e-05
4.4144489e-05
5.4356367e-05
6.6496029e-05
8.101425e-05
9.8554562e-05
0.00012171625
5.8665563e-05
6.3301459e-05
2.8248562e-05
6.6656204e-06
0.00010550288
5.4111169e-05
2.5759726e-05
1.3083233e-05
7.9977262e-06
7.12132e-05
5.3852031e-05
3.9597743e-05
7.5764666e-05
5.1565211e-05
7.7903465e-05
5.763637e-05
4.3930536e-05
3.6537133e-05
3.0608314e-05
2.6284538e-05
2.2500985e-05
1.9344259e-05
1.6545195e-05
1.4138039e-05
1.2142237e-05
1.0670017e-05
9.8427805e-06
2.3011534e-06
6.397171e-06
1.079549e-05
1.5677335e-05
2.117548e-05
2.7509551e-05
3.4948342e-05
4.378806e-05
5.4553961e-05
6.7099625e-05
8.3293108e-05
0.00010125823
0.00013135268
6.0987297e-05
7.0480068e-05
7.4371634e-05
4.4440589e-05
0.00021876018
0.00014718997
0.00012054074
5.8102944e-05
5.9655325e-05
0.00014940579
0.00010102709
4.6032666e-05
7.2317177e-05
4.635833e-05
6.0468874e-05
4.1838216e-05
3.2509487e-05
2.7924689e-05
2.4757892e-05
2.2273594e-05
1.9663182e-05
1.7194005e-05
1.4712753e-05
1.2383897e-05
1.0283875e-05
8.6211139e-06
7.6173605e-06
3.7999491e-06
6.8532768e-06
1.0787083e-05
1.5370913e-05
2.065781e-05
2.6861255e-05
3.4284749e-05
4.3218771e-05
5.4319348e-05
6.7663618e-05
8.4732452e-05
0.0001064738
0.00013424276
0.00017938637
8.6501574e-05
8.7969526e-05
3.1559624e-05
0.00016750304
0.00014400609
0.00013956025
5.8002918e-05
9.2755234e-05
0.00017446319
0.0001291439
0.00013354341
7.0611389e-05
7.9315053e-05
4.0105331e-05
2.2398484e-05
1.8482103e-05
1.863959e-05
1.9331049e-05
1.8905222e-05
1.751494e-05
1.5636263e-05
1.3394372e-05
1.1055562e-05
8.7580414e-06
6.7704526e-06
5.4356287e-06
6.9476763e-06
8.7692733e-06
1.1748316e-05
1.5640785e-05
2.0408917e-05
2.6215436e-05
3.3368828e-05
4.2224183e-05
5.3370659e-05
6.7422813e-05
8.5190483e-05
0.00010923682
0.0001397862
0.00018308263
9.8399297e-05
0.00011202856
2.8011957e-05
0.00010489106
0.00011407117
0.0001228888
9.1622571e-05
8.5676474e-05
0.00020125332
0.00016253157
0.00016775164
7.440469e-05
7.349858e-05
3.1884309e-05
6.2067318e-06
7.4496297e-06
1.390266e-05
1.7207131e-05
1.778814e-05
1.6895679e-05
1.5135842e-05
1.2866135e-05
1.0351494e-05
7.7520893e-06
5.2908283e-06
3.3188558e-06
9.2551353e-06
1.0477192e-05
1.2691552e-05
1.5851839e-05
1.9977778e-05
2.5234476e-05
3.1929064e-05
4.0492872e-05
5.1481638e-05
6.576901e-05
8.414758e-05
0.00010893051
0.0001413418
0.00018563845
0.00010185678
0.00012704295
5.6771285e-05
2.2879029e-05
7.6688896e-05
8.9017395e-05
9.6877052e-05
0.00010174349
0.00016001688
0.0001942511
0.00022331639
8.7103396e-05
8.9687034e-05
4.7920643e-05
2.6655917e-05
2.1128728e-05
2.0662819e-05
2.0852327e-05
1.998328e-05
1.8242229e-05
1.5919859e-05
1.3259318e-05
1.0406902e-05
7.4803868e-06
4.5794895e-06
1.6495879e-06
1.0311383e-05
1.1199766e-05
1.2880097e-05
1.5417303e-05
1.8915211e-05
2.3576325e-05
2.9735738e-05
3.7869984e-05
4.8582267e-05
6.2789225e-05
8.1440661e-05
0.00010630184
0.00013901217
0.00018328455
9.7656281e-05
0.00012876725
6.510541e-05
6.2313309e-05
4.4270886e-05
6.0230745e-05
8.1393267e-05
9.9314512e-05
0.00011874354
0.00017894237
0.00028144893
0.00010612714
0.00011956128
7.3034167e-05
5.2413946e-05
3.9247507e-05
3.2923402e-05
2.8270937e-05
2.4700763e-05
2.1217216e-05
1.7859381e-05
1.4545832e-05
1.1294482e-05
8.154879e-06
5.2220603e-06
2.6941392e-06
1.001293e-05
1.0680715e-05
1.197325e-05
1.4008331e-05
1.6956001e-05
2.1068236e-05
2.6729554e-05
3.4453957e-05
4.4931257e-05
5.9060139e-05
7.7952182e-05
0.00010278848
0.00013595295
0.00018145512
9.1098717e-05
0.00012116631
6.0169255e-05
7.3373925e-05
7.4539192e-05
6.3485266e-05
5.7207186e-05
6.2853682e-05
9.1880126e-05
0.00015343906
0.00028506827
0.00011018636
0.00015303196
9.9663741e-05
7.625963e-05
5.6378093e-05
4.5457098e-05
3.6622557e-05
3.041916e-05
2.5072044e-05
2.0571296e-05
1.6567904e-05
1.2980133e-05
9.8017344e-06
7.1774066e-06
5.4100292e-06
8.4782921e-06
8.9732378e-06
9.9608899e-06
1.1596247e-05
1.4105354e-05
1.7800599e-05
2.3122919e-05
3.0632704e-05
4.1108608e-05
5.5449074e-05
7.4904278e-05
0.00010034645
0.00013523046
0.00018341136
0.0002405691
0.00011444775
0.00014602772
0.00016873823
0.00017479288
0.00015120316
9.424055e-05
7.8675486e-05
0.00025086209
0.00034497621
0.00023537827
0.00019774703
0.00017040107
0.00012796442
9.4742292e-05
7.1518272e-05
5.6042627e-05
4.4432181e-05
3.5918043e-05
2.9077537e-05
2.360722e-05
1.9057614e-05
1.5263215e-05
1.216638e-05
9.8743605e-06
8.520553e-06
6.0288348e-06
6.3676291e-06
7.1050716e-06
8.4536836e-06
1.0707379e-05
1.4237125e-05
1.9529471e-05
2.7166179e-05
3.8027759e-05
5.3022909e-05
7.3653303e-05
0.00010089498
0.00013916735
0.00018961684
0.00025021816
0.00032456117
0.00042100118
0.0004846734
0.00046558442
0.0003479348
0.00034502703
0.00055250899
0.00062943993
0.00043714179
0.00015447913
0.00018476875
0.00019208979
0.00014578746
0.00010704193
8.236677e-05
6.3782512e-05
5.0549942e-05
4.0417708e-05
3.2623393e-05
2.6500449e-05
2.1631205e-05
1.7770953e-05
1.4810783e-05
1.2772293e-05
1.1638343e-05
3.1506961e-06
3.3502249e-06
3.952642e-06
5.2842959e-06
7.6715217e-06
1.1463174e-05
1.7104825e-05
2.5276574e-05
3.6798314e-05
5.3042675e-05
7.5223533e-05
0.00010589359
0.00014886381
0.00020982599
0.00029471036
0.00039382934
0.00044430921
0.00041080846
0.00036152437
0.00039044724
0.00046346549
0.00046335728
0.00033540079
9.9559415e-05
0.00015041925
0.00023438536
0.00020153479
0.00014986742
0.00011333981
8.75608e-05
6.8345364e-05
5.4275922e-05
4.3455251e-05
3.5199103e-05
2.8795822e-05
2.3830975e-05
2.002841e-05
1.7228907e-05
1.5377248e-05
1.4369789e-05
4.7162798e-07
9.4224232e-07
2.0704622e-06
3.9558173e-06
6.8375707e-06
1.1115765e-05
1.7236439e-05
2.6107323e-05
3.8432454e-05
5.6196845e-05
8.0497039e-05
0.00011643608
0.00016930256
0.00025012196
0.00035021761
0.00040258161
0.0003708055
0.00036399648
0.00039778579
0.00039584158
0.00032879418
0.00019735684
3.4483978e-05
0.00015919704
0.00025623596
0.00024717315
0.00019214952
0.00014629618
0.00011333391
8.8364504e-05
6.9847002e-05
5.5677096e-05
4.4849158e-05
3.6514171e-05
3.0123606e-05
2.523047e-05
2.1569092e-05
1.8938833e-05
1.7232506e-05
1.6306799e-05
1.6207461e-06
2.2975252e-06
3.5974625e-06
5.6976378e-06
8.8571313e-06
1.3513872e-05
2.0131584e-05
2.9705615e-05
4.304335e-05
6.2302766e-05
8.9828355e-05
0.00013273688
0.00019624166
0.00028654544
0.00036281247
0.00036164615
0.00034768146
0.00034951629
0.00031463244
0.00023053942
0.00012000799
9.4502777e-05
0.00019466821
0.0002662431
0.00027138164
0.00022674785
0.00017683507
0.00013890324
0.00010968519
8.6688757e-05
6.9103565e-05
5.5310293e-05
4.4722376e-05
3.652131e-05
3.027327e-05
2.5530806e-05
2.2035468e-05
1.956336e-05
1.7972121e-05
1.7104761e-05
2.4391932e-06
3.6024155e-06
5.4639392e-06
8.1399764e-06
1.1886713e-05
1.7175282e-05
2.4534318e-05
3.4974197e-05
4.9557879e-05
7.0530816e-05
0.00010100574
0.00014610909
0.00021096243
0.00029905371
0.00035556022
0.00034647593
0.00030489634
0.00023799294
0.0001523301
7.3078274e-05
0.00011171173
0.00019880649
0.0002580756
0.00027169973
0.00024560647
0.00020321844
0.00016417511
0.00013195939
0.00010567239
8.427457e-05
6.7305275e-05
5.3857851e-05
4.3427925e-05
3.5356533e-05
2.9220456e-05
2.4606484e-05
2.1237976e-05
1.8884089e-05
1.7374359e-05
1.654789e-05
1.9790758e-06
4.1142115e-06
6.8165001e-06
1.0289354e-05
1.4821415e-05
2.091436e-05
2.9152375e-05
4.0547239e-05
5.6378691e-05
7.9114128e-05
0.00011078329
0.00014820266
0.00020113855
0.0002933307
0.00035903093
0.00033755409
0.00024807966
0.0001394017
4.3565738e-05
8.5452375e-05
0.00016961114
0.00022967816
0.00025551027
0.00024864578
0.00022175093
0.00018893502
0.00015701656
0.00012810459
0.00010332159
8.2462465e-05
6.5478959e-05
5.1978088e-05
4.1430223e-05
3.3303399e-05
2.7129341e-05
2.252736e-05
1.9184285e-05
1.6870428e-05
1.5392309e-05
1.4584064e-05
1.6908257e-06
4.7323211e-06
8.1092169e-06
1.2242386e-05
1.7449325e-05
2.4229659e-05
3.3198529e-05
4.5340678e-05
6.1986765e-05
8.5568561e-05
0.00011780844
0.00014766708
0.00017046561
0.00025081234
0.00034149187
0.00033748943
0.00025159996
0.00014600061
7.1658912e-05
0.00011178133
0.00018197667
0.00023128278
0.00025166314
0.00024581712
0.0002224101
0.00019079181
0.00015813165
0.00012885709
0.00010379808
8.2312278e-05
6.4517021e-05
5.0372858e-05
3.9318403e-05
3.0842662e-05
2.4400575e-05
1.9613975e-05
1.6126679e-05
1.3714817e-05
1.2176349e-05
1.1339267e-05
4.2070781e-06
6.5796061e-06
9.9582476e-06
1.4308914e-05
1.9836506e-05
2.6956588e-05
3.6273559e-05
4.8680406e-05
6.5429323e-05
8.8557185e-05
0.00012036425
0.00015291814
0.00015791897
0.00017082775
0.00025779757
0.0003057608
0.00028147862
0.0002262858
0.00017129364
0.00014955168
0.00017214782
0.00021053994
0.00024117034
0.00025402105
0.00024455025
0.00021431449
0.00017448984
0.00013795581
0.00010862033
8.478727e-05
6.5305891e-05
4.9867533e-05
3.7877809e-05
2.8732407e-05
2.1775143e-05
1.6566999e-05
1.2699236e-05
9.94592e-06
8.1353619e-06
7.1271187e-06
7.6458749e-06
9.421867e-06
1.2395876e-05
1.6535207e-05
2.1973806e-05
2.9019409e-05
3.8225886e-05
5.0339633e-05
6.6468225e-05
8.8194141e-05
0.00011779062
0.00015423548
0.00017546275
0.0001504209
0.00013916359
0.00019279168
0.000234051
0.0002497692
0.00024717999
0.00023777489
0.00023056568
0.00022833629
0.00023220154
0.00024177884
0.0002497075
0.000239782
0.00020498494
0.00016000762
0.00012103064
9.1275055e-05
6.8645504e-05
5.1271963e-05
3.7997121e-05
2.7949958e-05
2.0348113e-05
1.4603478e-05
1.0223128e-05
6.8827432e-06
4.367568e-06
2.5548075e-06
1.0905361e-05
1.2326678e-05
1.4864251e-05
1.8589944e-05
2.3655189e-05
3.0309959e-05
3.9033407e-05
5.0425737e-05
6.5424373e-05
8.5167196e-05
0.00011147972
0.00014610696
0.00018279265
0.00019183239
0.00015071541
9.4542509e-05
9.9668767e-05
0.00015349904
0.00020421352
0.00024147553
0.00026500931
0.00027354253
0.00026753108
0.00025244948
0.0002414739
0.00023981033
0.00022695496
0.00018863731
0.00014205668
0.00010363505
7.5444544e-05
5.5126616e-05
4.027708e-05
2.9252439e-05
2.1057964e-05
1.4949175e-05
1.0383937e-05
6.9727247e-06
4.4814792e-06
2.7847315e-06
1.331402e-05
1.4514119e-05
1.6693918e-05
1.9986253e-05
2.4574374e-05
3.0699909e-05
3.8762249e-05
4.9260643e-05
6.2918641e-05
8.0562003e-05
0.00010341527
0.0001329372
0.00017008759
0.00020380879
0.00020870757
0.00017297045
0.0001065791
3.4281426e-05
6.5633629e-05
0.00013584858
0.00019574909
0.00023947993
0.00026380378
0.00026758544
0.0002550829
0.000239132
0.00022962537
0.00020743225
0.0001641073
0.00012008239
8.5864577e-05
6.1473931e-05
4.4600948e-05
3.2536003e-05
2.3756762e-05
1.7381916e-05
1.2826887e-05
9.6826065e-06
7.6745626e-06
6.5993883e-06
1.4411422e-05
1.5469322e-05
1.7387005e-05
2.032412e-05
2.4482974e-05
3.0116719e-05
3.7560783e-05
4.7257904e-05
5.9724034e-05
7.559416e-05
9.5512122e-05
0.00012021017
0.0001506281
0.00018572217
0.00021383733
0.00021884872
0.00019348612
0.00014229073
7.5086715e-05
1.2442127e-05
7.5165809e-05
0.00013965953
0.00019171172
0.0002278477
0.00024598157
0.00024558156
0.00023369728
0.00021516991
0.00017840263
0.0001337734
9.6731382e-05
6.9227276e-05
5.0172125e-05
3.6871015e-05
2.7321144e-05
2.046427e-05
1.5623096e-05
1.2339698e-05
1.0264036e-05
9.1713313e-06
1.3953006e-05
1.4931253e-05
1.6692278e-05
1.9411261e-05
2.3298893e-05
2.8618211e-05
3.56713e-05
4.4867457e-05
5.6593632e-05
7.1344971e-05
8.9345837e-05
0.00011075956
0.00013517705
0.00016292316
0.00019132879
0.00021154979
0.00021349855
0.00019260991
0.00015081091
9.4022661e-05
3.2095242e-05
4.4943801e-05
0.00010618345
0.00016137617
0.00020594208
0.0002343445
0.00023924886
0.00022175461
0.00018389281
0.0001385583
0.00010319229
7.6282755e-05
5.5820481e-05
4.1127317e-05
3.0603892e-05
2.3007009e-05
1.7547693e-05
1.3747343e-05
1.1256299e-05
9.9052212e-06
1.1905294e-05
1.2879827e-05
1.4621312e-05
1.731892e-05
2.1179295e-05
2.6463481e-05
3.3472353e-05
4.2600878e-05
5.4205875e-05
6.8655554e-05
8.5962842e-05
0.00010597945
0.00012803917
0.00015146117
0.00017495914
0.0001943195
0.00020282153
0.00019497332
0.00016923741
0.00012801079
7.7305778e-05
3.6869248e-05
6.6773255e-05
0.00012231108
0.00017538296
0.00021784249
0.0002367461
0.00022146067
0.00017739294
0.0001322571
0.00010460323
8.1394924e-05
6.031593e-05
4.4419161e-05
3.2948608e-05
2.4525518e-05
1.8270441e-05
1.3693396e-05
1.0492999e-05
8.6306097e-06
8.4393606e-06
9.5634225e-06
1.1519264e-05
1.4485223e-05
1.8632876e-05
2.4213037e-05
3.1561128e-05
4.109521e-05
5.3216852e-05
6.8257994e-05
8.6398356e-05
0.00010776686
0.00013177244
0.00015587735
0.00017606073
0.00018854898
0.00019068641
0.0001810634
0.00016000646
0.00013043936
0.00010009277
8.568609e-05
0.00010210078
0.0001378395
0.00017690194
0.00020927813
0.00022143743
0.00019913404
0.00015285164
0.00012136287
0.00010551586
8.4295357e-05
6.2784146e-05
4.6326328e-05
3.4252168e-05
2.5169554e-05
1.8175445e-05
1.2739207e-05
8.5445938e-06
5.6566011e-06
3.988791e-06
5.7864884e-06
8.4139983e-06
1.19939e-05
1.6692893e-05
2.281357e-05
3.0786726e-05
4.1118432e-05
5.4374433e-05
7.121594e-05
9.2427345e-05
0.00011804911
0.00014540536
0.00016833223
0.00018154419
0.00018501051
0.00018195609
0.00017512835
0.00016615463
0.0001569652
0.00015081996
0.00015111711
0.00015854743
0.00017028913
0.00018194415
0.00018862905
0.00018105319
0.0001527661
0.00012633713
0.00012006103
0.00010740878
8.4467681e-05
6.3095207e-05
4.6906164e-05
3.477522e-05
2.5449627e-05
1.8084216e-05
1.2115167e-05
7.1058492e-06
2.4857194e-06
2.1307104e-06
4.6829488e-06
7.7398932e-06
1.1670961e-05
1.6743975e-05
2.334374e-05
3.2009543e-05
4.3434013e-05
5.862125e-05
7.8852522e-05
0.00010480657
0.00013409267
0.00015945974
0.00017458964
0.00018208592
0.00018881868
0.00019692393
0.00020382704
0.00020661034
0.00020416675
0.00019715039
0.00018703197
0.00017505603
0.00016207508
0.00014913699
0.00013758467
0.00012675598
0.00012192262
0.00012852067
0.00012626067
0.00010633257
8.183232e-05
6.1681181e-05
4.6443626e-05
3.4825127e-05
2.5795972e-05
1.8641551e-05
1.2889103e-05
8.2573653e-06
4.7563098e-06
6.8026433e-06
8.1849367e-06
1.0587144e-05
1.419948e-05
1.9263085e-05
2.6159434e-05
3.5534151e-05
4.844143e-05
6.641696e-05
9.0628623e-05
0.00011991814
0.00014773027
0.00016636933
0.00017914484
0.00019410425
0.00021046883
0.00022245828
0.0002259989
0.00021974953
0.00020424848
0.00018129785
0.00015360835
0.00012494591
0.00010159109
9.3088019e-05
0.00010335597
0.00012291237
0.00014008595
0.00014298404
0.00012638888
0.00010058963
7.7192553e-05
5.9052406e-05
4.5195118e-05
3.4511521e-05
2.6216207e-05
1.9744415e-05
1.4755347e-05
1.1104463e-05
8.8610494e-06
1.102176e-05
1.2216544e-05
1.4443419e-05
1.796638e-05
2.3148586e-05
3.0457884e-05
4.0744675e-05
5.5462769e-05
7.6127798e-05
0.00010287552
0.00013221675
0.00015615579
0.00017409365
0.00019238761
0.00020829029
0.00021590813
0.00021271633
0.00019849128
0.00017410152
0.0001413297
0.00010340564
6.7361392e-05
5.3193568e-05
7.6096332e-05
0.00011084272
0.0001407832
0.00015852156
0.00015967672
0.00014375346
0.00011777662
9.2205025e-05
7.1638529e-05
5.5688601e-05
4.3322528e-05
3.3739819e-05
2.6353799e-05
2.0718546e-05
1.6554734e-05
1.3694052e-05
1.2060795e-05
1.3697252e-05
1.4999195e-05
1.743432e-05
2.1261318e-05
2.6909771e-05
3.4939172e-05
4.6339357e-05
6.2464738e-05
8.4277297e-05
0.00011166059
0.0001404378
0.00016434392
0.00018443315
0.00019789424
0.00019898112
0.0001876165
0.00016557068
0.000134398
9.5696232e-05
5.1946356e-05
1.6897015e-05
5.1405651e-05
9.5703426e-05
0.00013381102
0.00016128191
0.00017486291
0.00017294273
0.00015685945
0.0001319781
0.00010598782
8.3868794e-05
6.6138267e-05
5.2046489e-05
4.097007e-05
3.237361e-05
2.5804672e-05
2.0893946e-05
1.7373261e-05
1.5029352e-05
1.3715868e-05
1.4245524e-05
1.5813987e-05
1.8700107e-05
2.3120663e-05
2.9511606e-05
3.8496284e-05
5.0980205e-05
6.7399169e-05
8.7986941e-05
0.00011476701
0.00014498222
0.00017070401
0.00018681024
0.0001873259
0.00017239833
0.00014643536
0.00011242184
7.2338822e-05
2.870928e-05
2.218672e-05
6.6741216e-05
0.00010873254
0.00014372345
0.00016842189
0.00018037362
0.00017868404
0.00016479365
0.00014285261
0.00011853329
9.6212876e-05
7.7262143e-05
6.1459508e-05
4.8583618e-05
3.8349146e-05
3.0399207e-05
2.4363001e-05
1.9912269e-05
1.677816e-05
1.4723858e-05
1.3571999e-05
1.2481391e-05
1.4509278e-05
1.8081253e-05
2.3306722e-05
3.0567978e-05
4.0519912e-05
5.3908644e-05
6.9948866e-05
8.7210687e-05
0.00011060635
0.00014174094
0.00016826021
0.00017934517
0.00017196872
0.0001511018
0.00012234251
8.9391139e-05
5.8075277e-05
4.6067652e-05
6.7458023e-05
0.0001004845
0.00013184041
0.0001564766
0.00017158556
0.00017570955
0.00016897557
0.00015343879
0.00013284255
0.00011119429
9.1063801e-05
7.3342494e-05
5.8242439e-05
4.5786635e-05
3.5809738e-05
2.8036616e-05
2.2135479e-05
1.7791337e-05
1.4741247e-05
1.2751612e-05
1.1625611e-05
8.732774e-06
1.162733e-05
1.6173452e-05
2.2305198e-05
3.035763e-05
4.1008346e-05
5.4996668e-05
7.1119894e-05
8.5493546e-05
0.00010109556
0.00012681642
0.00015267339
0.00016391046
0.00015896404
0.00014468308
0.00012668311
0.00010885266
9.6254645e-05
9.4384329e-05
0.00010417099
0.00012070317
0.00013815989
0.00015257228
0.000161667
0.00016426457
0.00015991804
0.00014888663
0.00013233114
0.00011240873
9.1886383e-05
7.3112057e-05
5.7214932e-05
4.4258832e-05
3.3924682e-05
2.5845321e-05
1.9654363e-05
1.5012479e-05
1.1663417e-05
9.4159399e-06
8.089656e-06
4.0877152e-06
8.7557859e-06
1.4343644e-05
2.1144078e-05
2.9613291e-05
4.0450411e-05
5.4488714e-05
7.1178564e-05
8.603721e-05
9.5402928e-05
0.00010753422
0.00012595166
0.00013847723
0.00014067358
0.00013820122
0.00013568349
0.00013468706
0.00013614068
0.00014048403
0.00014696103
0.00015385132
0.00015928845
0.00016206595
0.00016196958
0.00015947867
0.00015497075
0.00014781536
0.00013630875
0.00011932628
9.8490034e-05
7.7531368e-05
5.9368017e-05
4.4837377e-05
3.3534056e-05
2.4785619e-05
1.8028387e-05
1.2807086e-05
8.7909067e-06
5.756958e-06
3.498473e-06
3.8472794e-06
8.5683501e-06
1.4102003e-05
2.0783923e-05
2.9024281e-05
3.9429943e-05
5.2827523e-05
6.9521753e-05
8.6854813e-05
9.8350893e-05
0.00010225662
0.00010585974
0.00011056699
0.00011282177
0.00011526883
0.00012177395
0.00013240047
0.00014545488
0.00015924387
0.00017204686
0.00018209623
0.00018786306
0.00018834678
0.00018345498
0.00017420388
0.00016262426
0.00015095084
0.00013965022
0.00012611215
0.00010767973
8.5969961e-05
6.5296884e-05
4.8382651e-05
3.5524558e-05
2.5902877e-05
1.8634366e-05
1.3069714e-05
8.7949117e-06
5.5314177e-06
2.9797709e-06
8.3240693e-06
1.1169087e-05
1.5538101e-05
2.1338247e-05
2.8759716e-05
3.8228452e-05
5.0427693e-05
6.6064816e-05
8.4603513e-05
0.00010172255
0.00011111791
0.00011180689
0.00010728905
9.9392407e-05
9.0987278e-05
8.8259002e-05
9.55776e-05
0.00011155552
0.00013202081
0.00015319847
0.00017218311
0.00018678792
0.0001954385
0.00019719428
0.00019186312
0.00018021169
0.00016434071
0.00014756083
0.00013205463
0.00011568785
9.5544798e-05
7.3858317e-05
5.4806917e-05
4.0121097e-05
2.9449409e-05
2.1768896e-05
1.6201798e-05
1.2262182e-05
9.6580234e-06
8.1608476e-06
1.2040811e-05
1.3987018e-05
1.731325e-05
2.2077176e-05
2.8459166e-05
3.6781654e-05
4.7562206e-05
6.1483958e-05
7.9045457e-05
9.8894818e-05
0.00011633116
0.00012643936
0.00012773844
0.00012060672
0.00010593132
8.6323425e-05
6.7494546e-05
5.9722662e-05
7.0752614e-05
9.3989252e-05
0.0001203546
0.00014488516
0.00016489347
0.00017875231
0.00018545019
0.00018441584
0.00017562645
0.00016025512
0.00014158645
0.00012311071
0.00010377887
8.244081e-05
6.2362135e-05
4.6250233e-05
3.4461017e-05
2.6200699e-05
2.0449573e-05
1.65595e-05
1.4093506e-05
1.2758607e-05
1.4058512e-05
1.5563353e-05
1.8215365e-05
2.2161493e-05
2.7629901e-05
3.4913022e-05
4.441314e-05
5.6638743e-05
7.2180826e-05
9.1182659e-05
0.00011177848
0.00012989133
0.00014169004
0.00014498642
0.0001388751
0.00012354659
0.00010032204
7.1580736e-05
4.1764483e-05
2.7912374e-05
4.9831943e-05
8.0721665e-05
0.00010996874
0.00013483513
0.00015389611
0.0001660794
0.00017026713
0.0001652287
0.00015093532
0.00013121645
0.00011037739
8.8824933e-05
6.8534926e-05
5.1954279e-05
3.9390225e-05
3.036973e-05
2.4083699e-05
1.9851422e-05
1.7156949e-05
1.5707513e-05
1.4107141e-05
1.5394559e-05
1.7671425e-05
2.1119018e-05
2.5991631e-05
3.2571045e-05
4.1193627e-05
5.2217151e-05
6.6017858e-05
8.2945715e-05
0.00010268781
0.0001231916
0.00014101051
0.00015278568
0.00015620984
0.00015025825
0.00013512383
0.00011196742
8.2565297e-05
4.9039364e-05
1.4462422e-05
2.4653023e-05
5.849813e-05
8.9622098e-05
0.00011639042
0.00013765929
0.0001521669
0.00015791267
0.00015235165
0.00013599889
0.00011421575
9.1537677e-05
7.1474082e-05
5.5632851e-05
4.2958786e-05
3.3164863e-05
2.6086159e-05
2.1225586e-05
1.8069689e-05
1.6352736e-05
1.2206815e-05
1.3446558e-05
1.5620032e-05
1.8927118e-05
2.3617713e-05
2.9957685e-05
3.825261e-05
4.8796987e-05
6.1849938e-05
7.7585569e-05
9.5865398e-05
0.00011552123
0.00013402833
0.00014833594
0.00015602487
0.00015583707
0.00014764558
0.00013224013
0.00011116034
8.6793194e-05
6.3262294e-05
4.9155351e-05
5.4690508e-05
7.417697e-05
9.6858871e-05
0.00011773314
0.00013438989
0.00014455726
0.00014483503
0.00013291699
0.00011206687
8.9314494e-05
7.0969721e-05
5.705643e-05
4.4678333e-05
3.4158456e-05
2.6173256e-05
2.0477793e-05
1.6635343e-05
1.4468778e-05
8.5986391e-06
1.0043892e-05
1.2471648e-05
1.6065156e-05
2.1030791e-05
2.7624055e-05
3.6183148e-05
4.7074264e-05
6.0602255e-05
7.6683855e-05
9.4484731e-05
0.00011234889
0.00012823931
0.00014043506
0.00014795241
0.00015045954
0.00014804609
0.00014112993
0.00013054909
0.0001177559
0.00010500662
9.5322942e-05
9.1571841e-05