/*--------------------------------*- C++ -*----------------------------------*\
| =========                 |                                                 |
| \\      /  F ield         | OpenFOAM: The Open Source CFD Toolbox           |
|  \\    /   O peration     | Version:  2106                                  |
|   \\  /    A nd           | Website:  www.openfoam.com                      |
|    \\/     M anipulation  |                                                 |
\*---------------------------------------------------------------------------*/
FoamFile
{
    version     2.0;
    format      ascii;
    arch        "LSB;label=32;scalar=64";
    class       volScalarField;
    location    "500";
    object      p;
}
// * * * * * * * * * * * * * * * * * * * * * * * * * * * * * * * * * * * * * //

dimensions      [0 2 -2 0 0 0 0];

internalField   nonuniform List<scalar> 
11644
(
0.061646248
0.062169409
0.063200271
0.064748816
0.0668144
0.069397921
0.072494012
0.076090344
0.080162432
0.084669289
0.089547134
0.094703838
0.10001122
0.1053033
0.1103688
0.11496485
0.11881576
0.1216537
0.12322675
0.12335794
0.12195925
0.11906551
0.11482454
0.10947084
0.10329835
0.09660601
0.089684571
0.082780297
0.076096879
0.069785328
0.063953633
0.058671233
0.053978372
0.049893275
0.046419324
0.043550199
0.041275376
0.039581174
0.038458535
0.037890972
0.061051099
0.061565103
0.062591661
0.064137999
0.066204226
0.068794459
0.071906515
0.075533011
0.079655191
0.084238659
0.089227166
0.094534799
0.10003996
0.10557601
0.11092934
0.11583983
0.12000545
0.12311812
0.12489148
0.12511168
0.12367392
0.12061495
0.11610761
0.11042686
0.10390344
0.096877456
0.089664011
0.082523865
0.075660135
0.069221259
0.063305834
0.057974828
0.053259146
0.049169209
0.045701787
0.042845115
0.040585151
0.038904925
0.037794468
0.037240491
0.0591048
0.059613577
0.060633593
0.062174049
0.064242977
0.066853297
0.070014993
0.073736241
0.078016998
0.082845197
0.088187244
0.093982786
0.10012169
0.10645363
0.11272686
0.11865768
0.12383489
0.12788688
0.13034225
0.13088236
0.12932073
0.12570502
0.12030751
0.11352546
0.10587562
0.097769164
0.089622988
0.081714201
0.07427308
0.067421785
0.061238355
0.05575112
0.050962779
0.046857618
0.043411057
0.040594209
0.038379929
0.036742065
0.035662442
0.035125958
0.056257339
0.056754641
0.057755387
0.059273239
0.061326003
0.063938528
0.06713828
0.070955355
0.075418503
0.080548426
0.086354131
0.092810407
0.099861199
0.10735696
0.11508084
0.122662
0.12955788
0.13513213
0.13873956
0.13981934
0.13805631
0.13351677
0.12663475
0.11807375
0.10853469
0.098700555
0.08910296
0.08008776
0.071836383
0.064452172
0.057944969
0.052297178
0.047460807
0.043382256
0.040004776
0.037275808
0.035149846
0.033588565
0.032564066
0.032056879
0.052494238
0.052967804
0.053925674
0.055386754
0.05738002
0.059944923
0.063131021
0.066997534
0.071613021
0.077050243
0.083379384
0.090664741
0.098897926
0.10808602
0.11786501
0.12795642
0.13745633
0.1458602
0.15162409
0.1538098
0.15173829
0.14550865
0.13597274
0.12422983
0.1118435
0.099405065
0.0877808
0.077191759
0.067936317
0.059929971
0.053115257
0.047370124
0.042575676
0.038620665
0.035405384
0.032847028
0.030877892
0.029445475
0.028511464
0.028051496
0.047783798
0.048215459
0.049093904
0.050442712
0.052301856
0.054725159
0.057785629
0.061573077
0.066204628
0.0718082
0.078558558
0.086583023
0.096140939
0.10716047
0.11985916
0.13378653
0.14778443
0.16013929
0.16925604
0.17318791
0.17065316
0.16181011
0.14820034
0.13197722
0.11477152
0.09846412
0.08404507
0.071835429
0.061547422
0.05312257
0.04620378
0.040590015
0.036045954
0.032401242
0.02950572
0.027246797
0.025534833
0.024304766
0.023509206
0.023120049
0.042199904
0.042565178
0.043314399
0.044473709
0.046091524
0.048232463
0.050990445
0.054483859
0.058881519
0.064384366
0.07128034
0.079931444
0.090672612
0.10458432
0.1207138
0.13969325
0.15006555
0.17048241
0.18678331
0.19632061
0.19604791
0.18556861
0.16716125
0.14469073
0.11665481
0.095211563
0.077642921
0.062952395
0.051989905
0.043424985
0.036816466
0.031708206
0.027746321
0.024687841
0.02233336
0.020546342
0.019220722
0.01828478
0.0176863
0.017396515
0.035842336
0.036111896
0.036671373
0.037545199
0.038783974
0.040453243
0.042655937
0.04551904
0.049247198
0.054057275
0.060402185
0.068455466
0.07984771
0.090979009
0.10951324
0.13214648
0.16022241
0.19168993
0.22087732
0.24017049
0.24120638
0.2222146
0.18972118
0.15304775
0.12033088
0.092506607
0.07071209
0.047869797
0.037003027
0.029770069
0.024329312
0.020440082
0.017577982
0.015497961
0.013973569
0.012870694
0.012082965
0.011545085
0.011208418
0.011049081
0.028865141
0.029008271
0.029313708
0.029798195
0.03050519
0.031485967
0.032833027
0.034648659
0.037138465
0.040467713
0.045161127
0.05133526
0.060430022
0.074469697
0.093861654
0.12096689
0.15332072
0.19947355
0.25181314
0.29490653
0.30576812
0.27508969
0.21865707
0.15987229
0.11126945
0.06906346
0.046626926
0.023297317
0.015941134
0.01157427
0.0085810164
0.0068089716
0.0056801737
0.0050308566
0.0046527621
0.0044556978
0.0043575413
0.0043182848
0.0043044182
0.0043042784
0.021493259
0.02148332
0.02147816
0.021480702
0.021516947
0.021607655
0.02181109
0.022170927
0.022833714
0.023865898
0.025655628
0.028277096
0.032739874
0.045866043
0.059509941
0.083748189
0.12156404
0.18321106
0.27668921
0.38213093
0.42388595
0.35314564
0.23244133
0.13402772
0.06563161
0.022284936
0.0071442471
-0.0099548315
-0.011091726
-0.010674478
-0.0098368665
-0.0086193518
-0.0074114282
-0.0062320113
-0.0051974982
-0.0043126033
-0.0036063747
-0.0030743084
-0.0027228386
-0.0025443045
0.014013978
0.013834182
0.013481794
0.012941216
0.012211717
0.011270185
0.010116554
0.0087058361
0.0070583398
0.0050702396
0.0028238251
3.8188888e-05
-0.002917536
0.0052541952
0.0045978878
0.01552128
0.033035189
0.069156809
0.17870289
0.42498635
0.61156901
0.37577581
0.1175611
0.00072930145
-0.040130213
-0.055104235
-0.04928968
-0.050813285
-0.04260655
-0.035416478
-0.029609107
-0.024731581
-0.020780827
-0.017541532
-0.014958991
-0.012917722
-0.011366886
-0.010243316
-0.0095170941
-0.00915653
0.0067605018
0.0064090097
0.0057037763
0.0046094381
0.0030940482
0.0010864345
-0.0014827383
-0.0047560126
-0.0088649679
-0.014107751
-0.020760408
-0.029481465
-0.04095822
-0.040895294
-0.060795177
-0.075890715
-0.11231538
-0.19886252
-0.39503283
-0.51530161
-0.29945405
-0.19788918
-0.14827755
-0.11252593
-0.092023541
-0.073415555
-0.059153946
-0.048253842
-0.039733385
-0.033108001
-0.027904073
-0.023866041
-0.020753507
-0.018427546
-0.016765719
-0.015700134
-0.01517553
8.2831865e-05
-0.00042468942
-0.001451683
-0.0030501179
-0.0052808572
-0.0082550805
-0.012102859
-0.017041034
-0.023326889
-0.031373409
-0.041751897
-0.055146985
-0.073258504
-0.080884826
-0.11359133
-0.14723114
-0.21419129
-0.34500975
-0.4670193
-0.66726653
-0.48868326
-0.31255545
-0.21858175
-0.16236219
-0.12292726
-0.096672886
-0.077430949
-0.062751048
-0.051558087
-0.042934893
-0.036266945
-0.031135911
-0.027218971
-0.02430857
-0.022240691
-0.020918489
-0.020270057
-0.0056922981
-0.0063243993
-0.0076092252
-0.0096092261
-0.012407475
-0.016140263
-0.020978636
-0.027178401
-0.035069427
-0.045091517
-0.057936329
-0.074185406
-0.09559076
-0.1080737
-0.14404911
-0.17918345
-0.2333573
-0.29434221
-0.31570783
-0.50357297
-0.46550374
-0.34484605
-0.24634491
-0.18575308
-0.13659416
-0.10788922
-0.087062183
-0.070902125
-0.058659709
-0.049156588
-0.041826407
-0.036168006
-0.031851585
-0.028639684
-0.026358023
-0.02489793
-0.024182657
-0.010298421
-0.011012308
-0.012467661
-0.014730295
-0.017897321
-0.022118025
-0.027586142
-0.034566488
-0.043418449
-0.054596014
-0.068761857
-0.086598483
-0.10921506
-0.12468732
-0.16092268
-0.19281315
-0.23229184
-0.25660296
-0.26949224
-0.31564551
-0.38561725
-0.48146974
-0.51662181
-0.45762572
-0.33426429
-0.23757426
-0.18211069
-0.13240816
-0.10634623
-0.087268709
-0.072093243
-0.060521831
-0.051368133
-0.04425701
-0.03869955
-0.03443346
-0.031234936
-0.028953183
-0.02748715
-0.026768147
-0.013558191
-0.014305221
-0.015831815
-0.018200842
-0.021514551
-0.02593329
-0.031648526
-0.038939281
-0.048131541
-0.059846094
-0.074383416
-0.093476339
-0.11578412
-0.13486842
-0.17240769
-0.21588854
-0.2522793
-0.26956768
-0.27723776
-0.31748541
-0.39662725
-0.48526111
-0.48401116
-0.3807878
-0.27555129
-0.19480562
-0.15418062
-0.1128451
-0.093663857
-0.079095467
-0.067025315
-0.057578762
-0.049851232
-0.043726971
-0.038829153
-0.03501461
-0.032113507
-0.030025234
-0.028673502
-0.028008269
-0.015395979
-0.01612555
-0.017619597
-0.019934456
-0.023168767
-0.02747037
-0.03301663
-0.040104902
-0.04899446
-0.060406512
-0.074503586
-0.093160798
-0.11601833
-0.14664518
-0.17625742
-0.23214716
-0.2862487
-0.3411269
-0.35667217
-0.36817227
-0.37623438
-0.37343691
-0.31127276
-0.22398288
-0.15060227
-0.12557935
-0.095120508
-0.083311077
-0.073863954
-0.065234142
-0.057603186
-0.051121086
-0.045502432
-0.04084765
-0.036980124
-0.033887054
-0.031481044
-0.029722964
-0.028572122
-0.028002233
-0.015844868
-0.016509558
-0.017872958
-0.01998052
-0.0229169
-0.026809201
-0.031803311
-0.038191009
-0.046183935
-0.056472594
-0.069356094
-0.08636464
-0.10847947
-0.13836785
-0.16931265
-0.23076716
-0.30417504
-0.40547764
-0.4585531
-0.45960126
-0.38718239
-0.26075731
-0.13112321
-0.06133141
-0.042196884
-0.053426215
-0.049369423
-0.051346638
-0.051600311
-0.049260132
-0.046249398
-0.04288109
-0.039534456
-0.036478029
-0.033765034
-0.031492606
-0.029664416
-0.028297343
-0.027388455
-0.026934051
-0.015035478
-0.015594979
-0.016743266
-0.018510385
-0.020957782
-0.024180446
-0.028278328
-0.033478735
-0.039929541
-0.04814999
-0.058410157
-0.07183189
-0.089101497
-0.11304113
-0.1438687
-0.19539855
-0.26734321
-0.37786068
-0.46834014
-0.48253092
-0.39091031
-0.21642602
-0.041899935
0.040047964
0.032625983
0.00035794532
-0.016670477
-0.028080297
-0.033522879
-0.035679127
-0.035807641
-0.034832296
-0.033284636
-0.031564772
-0.029857007
-0.028325223
-0.027036502
-0.026042973
-0.025370012
-0.025029359
-0.013179146
-0.013605246
-0.014478745
-0.015811849
-0.017637317
-0.020007989
-0.022969477
-0.026653496
-0.031128271
-0.036686045
-0.043496599
-0.05215471
-0.063262644
-0.077878312
-0.10416534
-0.13647207
-0.18787919
-0.25916974
-0.33597032
-0.36556415
-0.30636737
-0.17287521
-0.023495039
0.065791764
0.054456097
0.020878487
-0.0036005994
-0.016667223
-0.022884378
-0.026666986
-0.027966418
-0.028219459
-0.027669162
-0.026802756
-0.025778225
-0.024792929
-0.023922735
-0.02323089
-0.022753815
-0.022509281
-0.01053965
-0.010819574
-0.011390786
-0.012248103
-0.013395242
-0.014840249
-0.016578013
-0.018638371
-0.021024079
-0.023793511
-0.027069512
-0.03090229
-0.035990075
-0.042028738
-0.061688685
-0.076605078
-0.10671534
-0.13956882
-0.17866694
-0.20409201
-0.18892134
-0.1258308
-0.03465566
0.031530649
0.02189629
0.006160463
-0.0099130956
-0.017468607
-0.02014863
-0.022616256
-0.023153497
-0.023441535
-0.023045516
-0.022506051
-0.021816097
-0.021150074
-0.020549164
-0.020066497
-0.019731106
-0.019558361
-0.0073985174
-0.0075349732
-0.0078086855
-0.0081998191
-0.0086869297
-0.0092369748
-0.0098067478
-0.010333065
-0.010786238
-0.011023634
-0.011200761
-0.010988798
-0.011257801
-0.011405212
-0.014179109
-0.030943973
-0.03874374
-0.057828937
-0.085399251
-0.11548682
-0.1327496
-0.12098977
-0.084718746
-0.058229858
-0.050215622
-0.03717118
-0.028382496
-0.025104813
-0.022495395
-0.021723293
-0.020573263
-0.020007899
-0.019230112
-0.01862922
-0.018010557
-0.017483584
-0.017029682
-0.016677113
-0.016435397
-0.016312652
-0.0040265259
-0.0040357364
-0.0040450594
-0.0040238193
-0.0039321622
-0.0037022966
-0.0032694665
-0.0024880297
-0.0013284686
0.0005282536
0.0028460971
0.0062481708
0.0096104665
0.01388672
0.015082641
0.010513742
0.0014946786
-0.025184239
-0.066859277
-0.1177871
-0.16640191
-0.20125858
-0.20776276
-0.18222008
-0.11748365
-0.071417489
-0.048741885
-0.033831017
-0.026037259
-0.021557574
-0.0186216
-0.016967815
-0.01570351
-0.014894215
-0.014243709
-0.013768681
-0.013398481
-0.013130789
-0.012953864
-0.012867562
-0.00066147844
-0.00056972312
-0.0003689204
-2.2318435e-05
0.00052016438
0.0013531672
0.0025473647
0.0043111012
0.0066626796
0.010033797
0.014162854
0.019704803
0.025717647
0.03222696
0.036239913
0.031273498
0.010619919
-0.029084763
-0.083366053
-0.14950203
-0.20998591
-0.24232494
-0.23374107
-0.19151892
-0.13006692
-0.081487103
-0.052339106
-0.035168893
-0.025240995
-0.019240148
-0.015529348
-0.013331959
-0.011870361
-0.010976758
-0.010354555
-0.0099462386
-0.0096599006
-0.0094699269
-0.0093507986
-0.0092969059
0.0025071933
0.0026673398
0.0030103353
0.0035727535
0.0044087799
0.0056248171
0.0072922344
0.0096385191
0.012696119
0.016885334
0.022046059
0.028643734
0.036040173
0.043475708
0.046692269
0.037701802
0.010481497
-0.033328363
-0.090198924
-0.15028852
-0.1945202
-0.20640888
-0.18350421
-0.13995209
-0.093857628
-0.060369575
-0.039838102
-0.026949831
-0.018801205
-0.013766328
-0.010574903
-0.0086558787
-0.0074368497
-0.0067182252
-0.0062660018
-0.0060001165
-0.0058368887
-0.0057431001
-0.005689971
-0.0056711856
0.0053504676
0.0055431099
0.0059531294
0.0066139352
0.0075748223
0.0089353753
0.010761176
0.013259281
0.01647275
0.0207535
0.026020537
0.032572014
0.039773996
0.046675763
0.049158308
0.036562756
0.0067803338
-0.032395481
-0.074757242
-0.11207147
-0.13340106
-0.13239945
-0.11201298
-0.082989071
-0.055729943
-0.036586565
-0.023934951
-0.01552236
-0.01006739
-0.0066699352
-0.0045357698
-0.0033048689
-0.002587304
-0.0022254924
-0.0020526656
-0.0019981897
-0.0019977545
-0.0020223949
-0.002046746
-0.0020673971
0.0078029527
0.0079951082
0.0084017979
0.0090480958
0.0099697346
0.011243211
0.012910806
0.015122112
0.017892004
0.021439506
0.02564565
0.030528702
0.035069171
0.038771745
0.038306613
0.023684644
-0.0026121778
-0.03293389
-0.060746002
-0.080090676
-0.086230057
-0.079062918
-0.063122847
-0.0448993
-0.028989962
-0.01755293
-0.0096218377
-0.0044220706
-0.0011548805
0.00074439468
0.001785989
0.0022415009
0.0023732785
0.0023025976
0.0021436148
0.00194905
0.0017635402
0.0016065663
0.0014972497
0.0014345816
0.0098657363
0.010031484
0.010378328
0.010918871
0.011667004
0.01266269
0.013904548
0.015451554
0.017233566
0.019259857
0.021208364
0.022660045
0.021776457
0.018165015
0.012141999
-0.0021888698
-0.024598346
-0.04745365
-0.064066764
-0.070806454
-0.066832182
-0.054789623
-0.039123267
-0.024071867
-0.011951667
-0.0034472422
0.0021179999
0.0054141722
0.0071583212
0.0078540622
0.0079336674
0.0076496821
0.0071999782
0.0066851522
0.0061833106
0.005730033
0.0053528529
0.005060562
0.0048649369
0.0047605772
0.011597277
0.011721263
0.011974036
0.01235537
0.012852401
0.01346341
0.014131564
0.014812079
0.015314989
0.015396905
0.014442317
0.011403474
0.003693789
-0.010164445
-0.02520311
-0.042605869
-0.063519652
-0.079964517
-0.086872777
-0.082974688
-0.069881853
-0.051487382
-0.032103699
-0.015151341
-0.0022848399
0.006226502
0.011195804
0.013646678
0.014464164
0.014287441
0.013592623
0.012666095
0.011692095
0.010764627
0.0099410712
0.009243412
0.0086854002
0.0082660698
0.0079895296
0.0078470477
0.013089169
0.013168437
0.013320373
0.01353459
0.013774309
0.014002573
0.014113579
0.013978062
0.013308762
0.011654597
0.0082465513
0.0013805076
-0.011703509
-0.033962853
-0.060275383
-0.086573695
-0.1107957
-0.12464343
-0.12484329
-0.11211714
-0.09003028
-0.06366173
-0.037626536
-0.015335172
0.0014410541
0.012284298
0.018087788
0.020435937
0.020722846
0.019909874
0.01859357
0.017125657
0.015701509
0.014415668
0.013312756
0.01240333
0.011689356
0.011161421
0.010815755
0.010641788
0.01443486
0.014477243
0.014545723
0.014625497
0.014664734
0.014608038
0.014325374
0.013650444
0.012260038
0.0096511469
0.0049791932
-0.0033171731
-0.017637325
-0.041693628
-0.074168993
-0.10856398
-0.13907422
-0.15645816
-0.1567857
-0.14104668
-0.11376608
-0.081345299
-0.049309291
-0.021485634
0.00019779424
0.014877103
0.022888875
0.025918879
0.02596772
0.024640598
0.022807552
0.02089197
0.019101834
0.017529713
0.016207849
0.015135581
0.014303339
0.013694633
0.013297636
0.013101624
0.015702875
0.015722208
0.015738185
0.015737086
0.015662879
0.015458861
0.014997214
0.014122016
0.012539584
0.0098334573
0.0053120905
-0.0021526341
-0.014288531
-0.033866182
-0.062260317
-0.095590918
-0.12761822
-0.14939972
-0.15518135
-0.14433276
-0.12022847
-0.088886116
-0.056171345
-0.026496276
-0.00229146
0.015191247
0.025692265
0.029909213
0.029995501
0.028284798
0.026046332
0.023800451
0.021757194
0.019998416
0.018540742
0.01737264
0.016473234
0.015820921
0.015396265
0.015190171
0.016925504
0.016936456
0.016932775
0.016905227
0.016801949
0.016575698
0.016118043
0.015307417
0.013913306
0.011645765
0.0080114675
0.0023347874
-0.0064487845
-0.019796444
-0.039280583
-0.063769125
-0.089633361
-0.11054562
-0.12082439
-0.11800076
-0.10302628
-0.079716403
-0.052778114
-0.026385267
-0.0033338765
0.014651155
0.026497388
0.031733056
0.032095066
0.030322383
0.027954214
0.025604032
0.023494571
0.021700288
0.020225759
0.019052675
0.018153133
0.017504208
0.017081588
0.016879542
0.018104111
0.018118842
0.018122778
0.018112091
0.018043382
0.017881971
0.017543716
0.016941154
0.015904461
0.014239638
0.011606358
0.0076062405
0.0016021308
-0.0070907053
-0.019421016
-0.035315581
-0.053312496
-0.070064904
-0.081569646
-0.084863108
-0.078962804
-0.065145637
-0.046128427
-0.025145506
-0.0051068393
0.011731859
0.023785935
0.029927369
0.031037402
0.02989581
0.028015029
0.025994867
0.024130171
0.022525243
0.021196857
0.020135422
0.019317917
0.01872767
0.01834148
0.018159085
0.019222464
0.019249382
0.019280025
0.019315159
0.019321053
0.019274054
0.019111682
0.018770156
0.018122623
0.017024556
0.015219296
0.012414906
0.0081560431
0.0020133216
-0.0065659732
-0.017756851
-0.031081332
-0.04493139
-0.056806979
-0.064106304
-0.064946557
-0.058833257
-0.046699336
-0.030552344
-0.01300588
0.0031602596
0.015516386
0.022747283
0.025588338
0.026295556
0.025855692
0.024787665
0.02358465
0.02244898
0.021456601
0.020635527
0.019987003
0.019511872
0.019196641
0.019048891
0.020259008
0.020302783
0.020371302
0.020468318
0.020569507
0.020659381
0.020692172
0.020617414
0.020332881
0.019708239
0.018514658
0.016464837
0.013130961
0.0080662965
0.00078006266
-0.0090000423
-0.021128509
-0.034701245
-0.047982641
-0.058748213
-0.064850571
-0.064836849
-0.058338561
-0.046175181
-0.030300787
-0.013618195
0.00045013953
0.0099100333
0.015868106
0.019817378
0.021729756
0.022206182
0.022046483
0.021626823
0.0211313
0.020656144
0.020246054
0.019929914
0.019712322
0.019610131
0.021193299
0.021255381
0.021366277
0.021530975
0.021734091
0.021965892
0.022193316
0.022372607
0.022413371
0.022179403
0.021432009
0.019827777
0.016850337
0.011887037
0.0043304325
-0.0061584529
-0.019469725
-0.034863389
-0.050880282
-0.065478
-0.076358502
-0.081456328
-0.079460334
-0.070216521
-0.055030464
-0.036719594
-0.019391384
-0.0059310507
0.0044764761
0.012278337
0.016804945
0.019030997
0.020043798
0.020426749
0.020484894
0.020393256
0.020246767
0.020105311
0.019995318
0.019941903
0.022005628
0.022084622
0.022236618
0.022466184
0.022766674
0.023132881
0.02354236
0.0239555
0.024288015
0.024388258
0.023976017
0.022580664
0.019489831
0.013859602
0.0049921592
-0.0073824884
-0.023046911
-0.041240312
-0.060544498
-0.078871218
-0.093648824
-0.10228428
-0.10282285
-0.094558871
-0.078553191
-0.057736775
-0.036614295
-0.01864686
-0.0041325199
0.0064270387
0.012802979
0.016348798
0.018282195
0.019322172
0.019846254
0.020085006
0.020169957
0.020183347
0.020170178
0.02015956
0.022672995
0.022764858
0.022951008
0.023234119
0.023616194
0.024095937
0.024660821
0.025276256
0.02586419
0.026260174
0.026101731
0.024695486
0.021078619
0.014351495
0.0039573901
-0.010191026
-0.027779948
-0.047999223
-0.069314861
-0.089433631
-0.10551989
-0.11472294
-0.11496385
-0.10557579
-0.087979306
-0.065397039
-0.042397192
-0.022392523
-0.0065860536
0.0043069298
0.010991123
0.014966315
0.017310871
0.018690945
0.019485289
0.019930518
0.020169245
0.020289161
0.02034495
0.020363994
0.023165851
0.023263993
0.023471079
0.023786806
0.024221063
0.024775754
0.025447579
0.026208573
0.026986074
0.027593251
0.027573354
0.026025273
0.021839126
0.014291717
0.0031271484
-0.011584966
-0.029391595
-0.049314693
-0.069664477
-0.088080823
-0.10183061
-0.10839271
-0.10620248
-0.095236335
-0.077340313
-0.055867397
-0.034777999
-0.016893823
-0.0033594312
0.0057283081
0.011469366
0.015056188
0.017287523
0.018670021
0.019516692
0.020025969
0.020325873
0.020493536
0.020583371
0.020616374
0.023450932
0.023545967
0.023753574
0.024069352
0.024508141
0.025072027
0.02576246
0.026552597
0.027366632
0.02799346
0.027923442
0.026156252
0.021600833
0.01380964
0.0027625282
-0.011273773
-0.0275959
-0.044974936
-0.061645446
-0.075482133
-0.084349058
-0.086610607
-0.081643251
-0.07016589
-0.054235673
-0.036718867
-0.02045019
-0.0072077742
0.0025127963
0.0090732887
0.013381352
0.016183613
0.017997502
0.019160875
0.019900295
0.020361115
0.020644094
0.020807818
0.020899846
0.020932646
0.023503447
0.023583578
0.023764713
0.024036707
0.024413193
0.024889175
0.025458731
0.026078099
0.026640409
0.026902745
0.026391352
0.024133553
0.019163418
0.01117158
0.00029455548
-0.012841704
-0.027120677
-0.04106949
-0.053032314
-0.061407126
-0.064931011
-0.06299608
-0.055891902
-0.044837454
-0.03173
-0.018626629
-0.0071836815
0.001792331
0.0082944333
0.012758968
0.015774796
0.017780138
0.019102248
0.019961316
0.02051429
0.020861651
0.021077343
0.021201572
0.021272668
0.021295109
0.023326287
0.023379368
0.023504825
0.023684946
0.023923316
0.024196914
0.024472839
0.024661274
0.024576807
0.023904639
0.022290815
0.018958739
0.012958919
0.0039400101
-0.0075673965
-0.02032396
-0.032787124
-0.043418499
-0.050889451
-0.054250853
-0.053090195
-0.04765318
-0.038841313
-0.028044282
-0.016833224
-0.0065720636
0.0018804491
0.0082861424
0.012856068
0.015985789
0.018081291
0.019450297
0.020331607
0.020887248
0.021232931
0.021440493
0.021563747
0.021628884
0.021665274
0.021671519
0.02296557
0.022982751
0.023029595
0.023080065
0.023119406
0.023096842
0.02293422
0.022467768
0.021393742
0.019258189
0.015810954
0.010576516
0.0025360207
-0.0085934733
-0.021599888
-0.034574083
-0.045678161
-0.053470391
-0.057047553
-0.056110782
-0.050969841
-0.042469295
-0.031835265
-0.020456257
-0.009625126
-0.00029261365
0.0070693087
0.01245583
0.016158687
0.018577469
0.020092675
0.02100212
0.02152723
0.021814244
0.021961272
0.022025853
0.02204876
0.022047182
0.022042625
0.022030402
0.022509352
0.022488911
0.0224499
0.022359758
0.022182111
0.021837219
0.021197343
0.020021089
0.017884156
0.014162
0.0085334704
0.00077856399
-0.0099805676
-0.023773231
-0.038766324
-0.052510054
-0.062940128
-0.068706208
-0.069263577
-0.064847017
-0.056324532
-0.044976908
-0.032243983
-0.019498763
-0.0078632348
0.0019120991
0.0094883328
0.01490291
0.01845883
0.020601264
0.02178293
0.022368723
0.022611728
0.022669202
0.022636815
0.022566847
0.022491953
0.022424135
0.022377841
0.022347536
0.022063581
0.022012476
0.021900355
0.021692923
0.021336489
0.020732517
0.019719884
0.018012867
0.015119384
0.010313455
0.0030380851
-0.0068993997
-0.019987401
-0.035955225
-0.052723589
-0.067549882
-0.078134928
-0.083081331
-0.081987937
-0.075389335
-0.064502307
-0.050912201
-0.036253
-0.021949944
-0.0090712883
0.0017142486
0.01010446
0.016103863
0.019964628
0.022139025
0.023167671
0.023525858
0.023541425
0.02340351
0.023214286
0.023024839
0.022861832
0.022734265
0.022649659
0.022603804
0.021716863
0.02164851
0.021491841
0.021216723
0.020761787
0.020027833
0.018849338
0.016951484
0.013872531
0.0089140407
0.0013177979
-0.0092736545
-0.023020359
-0.039487867
-0.056780575
-0.072209963
-0.083353661
-0.088656225
-0.087596835
-0.080712738
-0.069271265
-0.054935935
-0.039449553
-0.024322477
-0.010663342
0.00084900836
0.0099109204
0.016503278
0.020815625
0.02321277
0.024223145
0.024429154
0.024261912
0.023963165
0.023645795
0.023359702
0.023125751
0.022950813
0.022835429
0.022778431
0.021513024
0.021442521
0.021275379
0.020990072
0.020527967
0.019805415
0.018679916
0.016928823
0.014187287
0.009901581
0.003352581
-0.0059825671
-0.018249161
-0.033039388
-0.048906381
-0.06361622
-0.074907884
-0.081122237
-0.081505839
-0.076271209
-0.06641682
-0.053414496
-0.038896742
-0.024358377
-0.010965407
0.00051746138
0.0097085281
0.016531128
0.021114972
0.02372701
0.024804417
0.024944853
0.024665916
0.024263153
0.023863794
0.023517792
0.023240781
0.023038384
0.022904739
0.022842883
0.021446294
0.021386254
0.021237752
0.020989407
0.020591859
0.019984113
0.019058786
0.017657652
0.015528233
0.012294555
0.0074280289
0.00041411397
-0.0090069133
-0.020650218
-0.033608051
-0.046317812
-0.05697754
-0.064026342
-0.066500028
-0.064182079
-0.057556619
-0.047627616
-0.03567283
-0.023007288
-0.010792353
8.2394967e-05
0.0090520904
0.015876
0.020580614
0.023372583
0.024599931
0.02481618
0.024565843
0.024171029
0.023773249
0.023428673
0.023152726
0.022952991
0.022819906
0.022761817
0.02147701
0.021435377
0.021324337
0.021141444
0.020848359
0.020405287
0.019737112
0.018738392
0.017243681
0.01501293
0.01170111
0.0069043036
0.00030966496
-0.0081378497
-0.018028332
-0.028447084
-0.038144754
-0.04582584
-0.050444852
-0.051408618
-0.048651908
-0.042591451
-0.033996647
-0.023841717
-0.01316261
-0.002933199
0.0060362878
0.013193366
0.018316743
0.021521277
0.023143029
0.02370624
0.023735752
0.02354032
0.023277186
0.023025373
0.022812795
0.022656365
0.022548809
0.022505254
0.021554764
0.021534843
0.021469919
0.021363749
0.02118784
0.020917793
0.020501122
0.019865091
0.01889348
0.017417925
0.015196931
0.011917138
0.0072608253
0.0010209886
-0.0067317
-0.015550277
-0.024640202
-0.033002108
-0.039632849
-0.0437119
-0.044729617
-0.042547562
-0.037395817
-0.029819704
-0.0206116
-0.010730335
-0.0011963657
0.0070521358
0.013362122
0.017583975
0.020067785
0.021397693
0.022054885
0.022305674
0.022341003
0.022289707
0.02221132
0.022142797
0.022087836
0.022069814
0.021636149
0.021637727
0.02162003
0.02158994
0.02152688
0.021415544
0.021216533
0.020872279
0.02028506
0.019306382
0.017719152
0.015231881
0.011516697
0.0062943489
-0.00053446539
-0.0087834979
-0.017950906
-0.027273733
-0.035840986
-0.042727634
-0.047121397
-0.048424763
-0.046369282
-0.041065909
-0.033021179
-0.023113191
-0.012506961
-0.0024997316
0.0057560261
0.011688855
0.015578112
0.018102687
0.0196969
0.020597312
0.021063878
0.021298768
0.02140993
0.021463396
0.021481775
0.021496942
0.021691595
0.021712115
0.021737944
0.021776271
0.021813056
0.021837257
0.021816124
0.021695391
0.021375354
0.020691992
0.019398218
0.017169305
0.013656795
0.0085640785
0.0017412589
-0.0067391171
-0.016538018
-0.027049825
-0.037442741
-0.046737571
-0.053918503
-0.057997723
-0.05832684
-0.054666762
-0.047288891
-0.037005106
-0.025098912
-0.013161825
-0.002762512
0.0051472842
0.01070813
0.014594082
0.017191126
0.018772561
0.019694143
0.020231935
0.020544644
0.020727244
0.020823989
0.020872878
0.021702074
0.021737333
0.02179986
0.021894716
0.022013907
0.022147935
0.022267572
0.022315031
0.022174869
0.02164353
0.020421742
0.018139534
0.014447875
0.0090761005
0.0018765318
-0.0071247032
-0.017669948
-0.029228505
-0.040991361
-0.051933164
-0.061015149
-0.066747729
-0.068375083
-0.065476399
-0.058213645
-0.047401488
-0.034442939
-0.021128238
-0.0092350567
0.00014266917
0.0070208235
0.011928344
0.015226455
0.017288144
0.018545111
0.019313183
0.019783312
0.020068218
0.020228472
0.020303052
0.021650236
0.02169475
0.021784329
0.021919975
0.022099731
0.022314455
0.022537841
0.022705455
0.022676641
0.022195016
0.020935524
0.018501497
0.014599308
0.0089944649
0.0015393499
-0.0077559364
-0.018642331
-0.030575436
-0.042687442
-0.053771972
-0.06398909
-0.069673573
-0.071289047
-0.068278931
-0.060812809
-0.049766508
-0.036615654
-0.023174253
-0.011142362
-0.0014932483
0.0057286388
0.01087196
0.014303691
0.016484309
0.017854083
0.018716174
0.019259087
0.019593835
0.019787481
0.01987353
0.021511848
0.021558903
0.021662225
0.021817438
0.022028036
0.022283914
0.022560438
0.022784747
0.022792744
0.0222957
0.020942851
0.018411281
0.014436267
0.0088054262
0.0013981661
-0.0077288925
-0.018269256
-0.029634309
-0.040968294
-0.051230492
-0.059419193
-0.064149047
-0.06481367
-0.061177991
-0.053595231
-0.043022598
-0.030885393
-0.018787852
-0.0080893274
0.0004998994
0.0069317029
0.011464259
0.014481066
0.016432341
0.017689053
0.018499613
0.019021434
0.019347016
0.019539211
0.019621337
0.021254608
0.021295765
0.02139443
0.021539692
0.021737744
0.021973968
0.022220685
0.022395018
0.022320359
0.021698154
0.0201929
0.017517193
0.013428982
0.0077645535
0.00051501298
-0.0081175832
-0.017697708
-0.027571131
-0.036912762
-0.044810781
-0.050383299
-0.052845441
-0.051803223
-0.047294817
-0.039841571
-0.030396651
-0.020173837
-0.010383041
-0.0019344138
0.0047503564
0.009689324
0.013132271
0.015433603
0.016949076
0.017946291
0.018601813
0.019031429
0.01930133
0.019463417
0.019529395
0.020849143
0.020874334
0.020944794
0.02104175
0.021168115
0.021297509
0.021388238
0.021342761
0.0209838
0.020015021
0.018096522
0.014926156
0.010299443
0.004209256
-0.0031143356
-0.011233339
-0.019556373
-0.027399651
-0.03405264
-0.038852866
-0.041265551
-0.040960214
-0.037916108
-0.032452708
-0.025205725
-0.017031847
-0.0088464725
-0.001434901
0.0047044621
0.0094147254
0.012812017
0.015147955
0.016711066
0.017749292
0.018439516
0.018896242
0.019198234
0.019387022
0.019502047
0.019544973
0.020290586
0.020289863
0.02030713
0.020314618
0.020303512
0.020225653
0.020008528
0.019526733
0.018603899
0.016940657
0.014139859
0.0098610067
0.0040296431
-0.0030665795
-0.010861637
-0.018651646
-0.025714549
-0.031398406
-0.035184911
-0.036732075
-0.035903484
-0.032790836
-0.027721344
-0.021226926
-0.013980119
-0.0066945296
-3.6461411e-06
0.0056479846
0.010065516
0.013289735
0.015517949
0.016999022
0.017964522
0.018589572
0.018994834
0.019255407
0.019424467
0.019525845
0.01958817
0.019606267
0.019618361
0.019585272
0.019530895
0.019418736
0.019220584
0.018858557
0.018214412
0.017115814
0.015372414
0.012670663