/*--------------------------------*- C++ -*----------------------------------*\
| =========                 |                                                 |
| \\      /  F ield         | OpenFOAM: The Open Source CFD Toolbox           |
|  \\    /   O peration     | Version:  2106                                  |
|   \\  /    A nd           | Website:  www.openfoam.com                      |
|    \\/     M anipulation  |                                                 |
\*---------------------------------------------------------------------------*/
FoamFile
{
    version     2.0;
    format      ascii;
    arch        "LSB;label=32;scalar=64";
    class       volVectorField;
    location    "500";
    object      U;
}
// * * * * * * * * * * * * * * * * * * * * * * * * * * * * * * * * * * * * * //

dimensions      [0 1 -1 0 0 0 0];

internalField   nonuniform List<vector> 
11644
(
(1.0000696 -0.00017907839 6.5046829e-43)
(1.0000647 -0.00053155288 6.8830645e-43)
(1.0000654 -0.00088162571 6.8133087e-43)
(1.0000657 -0.0012350483 4.7249587e-43)
(1.0000656 -0.0015887357 -3.7153553e-41)
(1.0000648 -0.001940953 9.7770327e-40)
(1.000063 -0.0022872178 3.9807335e-37)
(1.0000598 -0.0026209598 1.0040573e-35)
(1.0000543 -0.0029324253 6.9204724e-34)
(1.0000461 -0.0032081858 3.1678026e-32)
(1.0000342 -0.0034309039 -9.2643017e-29)
(1.0000182 -0.0035785975 -9.0648373e-27)
(0.99999676 -0.0036264676 1.7988582e-24)
(0.99997091 -0.003546158 2.8980458e-22)
(0.99993884 -0.0033121705 -2.0269192e-20)
(0.99990405 -0.0029036344 -9.022891e-18)
(0.99986854 -0.0023131966 -2.1245619e-20)
(0.99984105 -0.0015482262 -8.2736845e-21)
(0.99982106 -0.00063802917 -2.1894304e-21)
(0.99981321 0.00036150786 -1.1215898e-18)
(0.99981841 0.0013800501 1.1296106e-17)
(0.99983641 0.0023390524 2.3719605e-20)
(0.99986514 0.003171771 -2.7799563e-22)
(0.99989957 0.0038281852 1.6782838e-20)
(0.99993958 0.0042868798 7.3467406e-18)
(0.99997684 0.0045489609 2.1978882e-20)
(1.0000094 0.0046305852 -3.1995194e-22)
(1.0000342 0.0045597745 -2.4322818e-24)
(1.0000534 0.0043678987 1.5881284e-26)
(1.0000664 0.0040873 1.6373916e-28)
(1.0000748 0.0037452773 -2.2676566e-31)
(1.0000794 0.0033648964 -3.0863555e-33)
(1.0000813 0.0029635408 -1.4746558e-35)
(1.0000814 0.0025538726 -6.1619978e-37)
(1.0000802 0.0021443429 -1.6499654e-39)
(1.0000785 0.0017398617 6.5990276e-41)
(1.0000765 0.0013430402 1.026661e-42)
(1.0000747 0.00095364422 6.0758342e-43)
(1.0000731 0.00057273707 4.9907668e-43)
(1.0000777 0.00019247743 6.4296563e-43)
(1.0009435 -0.00053734828 -6.8288728e-41)
(1.0009321 -0.0016039803 -7.1959768e-41)
(1.0009365 -0.0026705423 -7.1376871e-41)
(1.0009399 -0.0037460567 -6.1974913e-41)
(1.0009391 -0.0048250277 3.0552036e-39)
(1.0009295 -0.005903574 -2.7341941e-38)
(1.0009057 -0.0069691743 -4.2433456e-35)
(1.0008601 -0.0080033082 -1.050918e-33)
(1.0007839 -0.0089773054 3.6971185e-31)
(1.0006666 -0.0098517208 1.7858687e-29)
(1.0004974 -0.010573854 -2.3046076e-27)
(1.0002648 -0.011078313 -1.6780197e-25)
(0.9999628 -0.011286473 1.1055009e-23)
(0.99958562 -0.011113551 1.2381953e-21)
(0.99915099 -0.010474737 -4.1779048e-20)
(0.99867353 -0.0092966175 -7.1638417e-18)
(0.99820066 -0.0075425818 1.147221e-18)
(0.99776402 -0.0052384132 1.1589149e-18)
(0.99744604 -0.0024796646 1.8820038e-20)
(0.99729617 0.00057084386 9.1955089e-18)
(0.99734874 0.0036908017 -6.4041952e-18)
(0.99759968 0.0066381263 -1.8223509e-20)
(0.99800644 0.0091994571 -1.2077381e-21)
(0.99851281 0.011227439 -1.1552509e-18)
(0.99903561 0.012647291 1.0445734e-17)
(0.99953944 0.013455923 4.9149559e-20)
(0.99998008 0.013711848 -1.37781e-21)
(1.0003459 0.013506953 -1.0280428e-23)
(1.0006238 0.012940708 2.0432416e-25)
(1.0008239 0.01210822 2.513147e-27)
(1.0009562 0.011094043 -2.5258611e-29)
(1.001035 0.0099659915 -5.1596287e-31)
(1.0010738 0.0087764962 1.814689e-33)
(1.0010847 0.0075627103 7.1703724e-35)
(1.0010778 0.0063497255 4.0621633e-38)
(1.0010613 0.0051516575 -5.9264604e-39)
(1.0010409 0.0039761258 -8.706846e-41)
(1.0010216 0.0028220204 -6.3584517e-41)
(1.0010065 0.0016895104 -5.1392572e-41)
(1.0010126 0.00056485668 -6.6735791e-41)
(1.0029102 -0.0008992934 6.99955e-39)
(1.0028946 -0.0026920311 7.3414099e-39)
(1.0029099 -0.0044925286 7.2578188e-39)
(1.0029265 -0.0063136623 7.4288138e-39)
(1.002933 -0.0081526046 2.2116581e-38)
(1.0029161 -0.010006008 2.7406905e-37)
(1.0028583 -0.011857384 -1.0119298e-34)
(1.0027367 -0.013679911 -3.638991e-33)
(1.0025232 -0.015429671 4.5599284e-31)
(1.0021852 -0.017042736 2.3773708e-29)
(1.0016865 -0.018432682 -1.4506741e-27)
(1.0009932 -0.019482382 -1.0578333e-25)
(1.0000741 -0.020056026 3.2467722e-24)
(0.99892546 -0.019978358 3.7004578e-22)
(0.99755218 -0.019087596 -4.2858706e-21)
(0.99602453 -0.017230711 -1.5194178e-18)
(0.99447665 -0.014333577 -6.6874013e-18)
(0.99310534 -0.010387316 -9.1465658e-18)
(0.99208379 -0.0055151884 7.9221889e-22)
(0.99159065 -4.9159159e-05 1.4780313e-18)
(0.99173347 0.0055889744 -1.4430607e-17)
(0.99250011 0.0109065 -2.6093903e-20)
(0.99376125 0.015494263 -2.5823706e-20)
(0.99532097 0.019048044 9.3237083e-18)
(0.99699715 0.02147307 1.4999661e-18)
(0.99859026 0.022810324 4.2874568e-21)
(0.99997377 0.023170718 -4.1263098e-22)
(1.0010874 0.022733254 -3.7583181e-24)
(1.001937 0.021680846 1.3061784e-25)
(1.0025388 0.020201076 1.8738362e-27)
(1.0029348 0.01843658 -3.230204e-29)
(1.0031672 0.016505927 -6.4313656e-31)
(1.0032789 0.014493599 5.3205377e-33)
(1.0033068 0.012458958 1.4852284e-34)
(1.003282 0.010439988 -4.0393491e-37)
(1.003229 0.0084567671 -1.4145723e-38)
(1.0031664 0.006518654 6.8497534e-39)
(1.0031077 0.0046221014 6.5260987e-39)
(1.0030644 0.0027625888 5.1774259e-39)
(1.003065 0.00092137321 6.7406591e-39)
(1.0058551 -0.0012622002 -7.1457369e-37)
(1.0058455 -0.0037862042 -7.4661614e-37)
(1.0058894 -0.006332335 -7.3479688e-37)
(1.0059447 -0.0089212565 -7.5988765e-37)
(1.0059889 -0.011558402 -7.2558899e-37)
(1.0059961 -0.014245958 -4.6776795e-37)
(1.0059307 -0.016969864 -2.3348121e-35)
(1.0057463 -0.019701575 -1.389839e-33)
(1.0053845 -0.022387686 3.8420887e-32)
(1.0047749 -0.024946596 4.0511636e-30)
(1.0038371 -0.027256237 1.5558205e-29)
(1.0024839 -0.029154005 -6.6292477e-27)
(1.0006465 -0.030415929 -2.666576e-25)
(0.99824978 -0.030788934 1.8714863e-24)
(0.99539541 -0.029971833 7.6866257e-22)
(0.99215309 -0.027631237 2.0774343e-20)
(0.9888437 -0.023532492 -1.4739568e-18)
(0.98564616 -0.017653455 -2.4286489e-18)
(0.98323081 -0.010209962 -3.9831612e-21)
(0.98200701 -0.0016751952 -1.6479697e-20)
(0.98226457 0.0072017992 -1.5021423e-18)
(0.98397992 0.015554146 -1.1812573e-18)
(0.98682179 0.022651499 1.1668363e-18)
(0.99034237 0.028056499 2.5728041e-18)
(0.99388005 0.031593089 7.9796973e-21)
(0.99722692 0.033333152 -1.0110544e-21)
(1.0000817 0.033557146 -3.4456198e-23)
(1.0023947 0.032626512 7.1045102e-26)
(1.0040907 0.03086415 2.9820345e-26)
(1.0052678 0.028536566 3.1126556e-28)
(1.006014 0.025870751 -1.5564123e-29)
(1.0064313 0.023026527 -2.9602441e-31)
(1.006611 0.020120082 5.1291229e-33)
(1.0066303 0.017224821 1.4997363e-34)
(1.0065522 0.014385543 -1.6304997e-36)
(1.006425 0.011622006 -7.9657007e-37)
(1.0062852 0.008939868 -6.9552663e-37)
(1.0061588 0.0063293665 -6.6658193e-37)
(1.0060675 0.0037774265 -5.2214512e-37)
(1.0060512 0.001257814 -6.787209e-37)
(1.0097764 -0.0016172948 7.2556743e-35)
(1.0097902 -0.0048603369 7.5723489e-35)
(1.0098942 -0.0081478577 7.3995269e-35)
(1.0100345 -0.011513351 7.7947757e-35)
(1.010176 -0.014977385 7.3068869e-35)
(1.0102779 -0.018555265 7.6201008e-35)
(1.0102818 -0.022245127 1.0016197e-34)
(1.0101115 -0.026027681 5.6419005e-34)
(1.0096665 -0.029853917 -5.675539e-32)
(1.0088246 -0.033635535 -2.1500624e-30)
(1.0074329 -0.037236218 1.1322554e-28)
(1.0053364 -0.040430451 5.6152668e-27)
(1.0023479 -0.042953637 -1.362182e-25)
(0.99841359 -0.044291453 -9.3925565e-24)
(0.99334077 -0.043990081 5.8787645e-23)
(0.98732803 -0.041477045 8.1326178e-21)
(0.98090937 -0.036391634 9.364982e-20)
(0.97503301 -0.028394554 1.3552935e-17)
(0.97040251 -0.017479723 -2.3354448e-20)
(0.96796152 -0.0046027228 -1.302376e-20)
(0.96835472 0.008976992 1.035396e-20)
(0.97154236 0.021636809 1.2076326e-17)
(0.97681329 0.0321373 -1.0436464e-17)
(0.98317269 0.039602191 -8.1012218e-18)
(0.98989542 0.044075099 -2.3947194e-18)
(0.99600692 0.045942457 -8.2552892e-21)
(1.0010283 0.045644499 1.2849148e-21)
(1.0048017 0.04378428 1.4907575e-23)
(1.0075455 0.04083657 -7.7536855e-25)
(1.0093534 0.037316814 -1.471104e-26)
(1.0104456 0.033482096 3.6194035e-28)
(1.0109967 0.029546587 9.8818844e-30)
(1.0111745 0.025633566 -1.1326896e-31)
(1.0111082 0.021817872 -4.4386512e-33)
(1.0109028 0.018136817 9.769571e-35)
(1.0106354 0.014599244 7.7041836e-35)
(1.010364 0.011198519 7.041662e-35)
(1.0101282 0.0079124724 6.8146621e-35)
(1.0099612 0.0047146328 5.2624737e-35)
(1.0099123 0.001567759 6.8234593e-35)
(1.0146572 -0.00195 -7.3408356e-33)
(1.0147199 -0.0058705012 -7.6710434e-33)
(1.0149302 -0.0098658706 -7.4232497e-33)
(1.0152255 -0.013987925 -8.0304102e-33)
(1.0155586 -0.018279841 -7.3096684e-33)
(1.0158732 -0.022779241 -7.8415306e-33)
(1.0160864 -0.027508053 -7.9326687e-33)
(1.0160884 -0.032471998 -6.9671066e-34)
(1.0157264 -0.037642088 -6.0380488e-31)
(1.0148092 -0.042952411 -1.4753824e-29)
(1.0130805 -0.048251732 5.4728282e-28)
(1.0102383 -0.053332559 1.7450284e-26)
(1.0059274 -0.057735281 -3.0687967e-25)
(0.99956244 -0.061046468 -1.2856481e-23)
(0.99158413 -0.062386764 7.6731657e-23)
(0.9817581 -0.060505756 4.4773829e-21)
(0.97126843 -0.054650292 1.3088061e-20)
(0.95972531 -0.043961337 1.3515996e-18)
(0.95055671 -0.028358157 -7.7646803e-19)
(0.94555658 -0.0090940444 5.9763636e-21)
(0.94611383 0.011552282 2.6761156e-20)
(0.95217264 0.030543146 2.3577885e-18)
(0.96221131 0.045626234 -1.4503282e-18)
(0.97431053 0.055682049 -1.3766827e-17)
(0.98520658 0.060848706 1.8196215e-17)
(0.99511761 0.062003517 2.8786244e-19)
(1.0029286 0.06011302 -1.1079624e-20)
(1.0089674 0.056388916 -2.3079636e-22)
(1.0128632 0.051715894 6.9987228e-24)
(1.0152693 0.046508061 2.1828868e-25)
(1.0165723 0.041196538 -3.1698104e-27)
(1.0170967 0.03595832 -1.3797776e-28)
(1.0171128 0.03092122 8.7452861e-31)
(1.0168161 0.02612959 5.3555334e-32)
(1.01636 0.021597584 -8.2876696e-33)
(1.0158516 0.017307878 -7.5336868e-33)
(1.01537 0.01323151 -7.1588901e-33)
(1.0149679 0.0093263532 -6.9864023e-33)
(1.0146878 0.0055473297 -5.286043e-33)
(1.0145864 0.001842347 -6.8519248e-33)
(1.0204091 -0.0022399813 7.4215047e-31)
(1.0205532 -0.0067550596 7.7748762e-31)
(1.0209303 -0.011381978 7.4266773e-31)
(1.021474 -0.016195824 8.3063092e-31)
(1.0221281 -0.021269593 7.3516212e-31)
(1.0228245 -0.026673523 8.0260001e-31)
(1.0234596 -0.032467723 8.3107008e-31)
(1.0238933 -0.038704635 5.7802925e-31)
(1.0239196 -0.045407239 1.9062501e-29)
(1.0232753 -0.052571496 5.8356237e-28)
(1.0215665 -0.060131594 -2.0279845e-26)
(1.0183644 -0.067880326 -8.4752866e-25)
(1.012908 -0.075742112 1.5064717e-23)
(1.005222 -0.082198606 9.0006812e-22)
(0.99303709 -0.086816182 -6.5509426e-21)
(0.97719597 -0.087487108 -7.6061591e-19)
(0.96493814 -0.075464745 1.9715467e-20)
(0.94838715 -0.06424362 -1.0540943e-19)
(0.93278841 -0.045230656 3.4533034e-19)
(0.92259831 -0.019646072 -2.6489856e-20)
(0.92106541 0.0091292363 -2.0759341e-18)
(0.92879953 0.036122849 -1.7418175e-17)
(0.94332865 0.057340077 1.5257918e-19)
(0.96090621 0.071574643 -6.5100877e-20)
(0.98175245 0.084790015 3.4483942e-18)
(0.99743141 0.083429194 3.921099e-20)
(1.0091221 0.07825385 -3.2353941e-21)
(1.0162906 0.071551152 -8.3114803e-23)
(1.0211081 0.063644354 3.1364007e-24)
(1.0236698 0.056075274 1.0718071e-25)
(1.0248104 0.048823474 -1.9538252e-27)
(1.0249662 0.042048851 -8.9661879e-29)
(1.0245378 0.03577647 1.5176499e-30)
(1.0237811 0.029980224 7.8236083e-31)
(1.0228945 0.024619842 8.1528893e-31)
(1.0220075 0.019631657 7.3776681e-31)
(1.0212142 0.014952257 7.3023075e-31)
(1.0205742 0.010511419 7.1689282e-31)
(1.0201361 0.0062407397 5.2696549e-31)
(1.0199584 0.0020701661 6.8666918e-31)
(1.0268852 -0.0024623519 -7.4904381e-29)
(1.0271488 -0.0074380239 -7.8825271e-29)
(1.0277634 -0.012565403 -7.4260376e-29)
(1.0286665 -0.017945519 -8.5341786e-29)
(1.0297997 -0.023685739 -7.4001766e-29)
(1.0310934 -0.02989708 -8.1879216e-29)
(1.032435 -0.036689326 -8.4274199e-29)
(1.033672 -0.044183606 -8.9301086e-29)
(1.0345622 -0.052477994 -7.113273e-29)
(1.0348049 -0.0617009 -1.566539e-28)
(1.0338812 -0.071848694 -8.8935647e-27)
(1.0313038 -0.083177914 -1.1378848e-25)
(1.0256531 -0.094788857 2.5731007e-24)
(1.0144254 -0.099769061 1.4925944e-22)
(1.0017497 -0.10783911 4.6618421e-21)
(0.98239479 -0.11333821 6.4054684e-19)
(0.95671101 -0.11238297 -8.336904e-18)
(0.92633753 -0.1017402 -1.9173139e-17)
(0.89618009 -0.076544668 1.5893366e-17)
(0.87471372 -0.036296361 1.5587459e-17)
(0.87071791 0.012443978 3.0922713e-18)
(0.8863938 0.05754109 1.3526215e-17)
(0.91504735 0.089202794 -2.4797274e-18)
(0.94719795 0.1049393 -2.6152041e-18)
(0.97557307 0.10906489 -1.0941267e-17)
(0.99780473 0.10449872 4.1214734e-20)
(1.0130427 0.096525003 -4.2474327e-22)
(1.0291039 0.08711471 -3.1649575e-24)
(1.0337211 0.075880441 4.5269999e-25)
(1.0353987 0.065147614 7.8892786e-27)
(1.0356102 0.055749552 -5.8242943e-28)
(1.0348106 0.047322363 -1.0693124e-28)
(1.0335075 0.039823764 -7.9691967e-29)
(1.0319717 0.033084538 -7.2329949e-29)
(1.0304225 0.026991547 -7.8578257e-29)
(1.0289893 0.021415834 -7.2130089e-29)
(1.0277663 0.016251687 -7.4189052e-29)
(1.0268087 0.011395519 -7.2849064e-29)
(1.0261632 0.0067537997 -5.2075105e-29)
(1.0258838 0.0022378756 -6.8584676e-29)
(1.0338671 -0.0025902981 7.5473394e-27)
(1.0342884 -0.0078368445 7.927278e-27)
(1.0352125 -0.013271817 7.4689687e-27)
(1.0365898 -0.019020774 8.5006212e-27)
(1.0383701 -0.025224581 7.3745795e-27)
(1.0404962 -0.032037502 8.3454818e-27)
(1.0428669 -0.03962166 8.3677318e-27)
(1.0453454 -0.048181556 9.4075758e-27)
(1.0476919 -0.057898573 7.6374256e-27)
(1.0496139 -0.069086654 2.4722258e-26)
(1.0505692 -0.081848499 3.8991658e-25)
(1.0499271 -0.09686383 -5.262869e-24)
(1.0460116 -0.11352991 -1.058043e-22)
(1.0324775 -0.12340801 -3.7792341e-22)
(1.0182548 -0.14041975 5.6120995e-20)
(0.99408565 -0.15713389 -1.013813e-19)
(0.9602883 -0.16004889 -1.4188362e-18)
(0.91249027 -0.15721286 -2.2943103e-18)
(0.85596965 -0.13047806 1.4856686e-17)
(0.80778102 -0.071091853 3.0308632e-18)
(0.79275469 0.012041299 1.3256083e-18)
(0.82126663 0.089772823 -4.4598255e-17)
(0.87619506 0.13790567 2.2558927e-17)
(0.93276676 0.15436323 -1.1508681e-17)
(0.97693144 0.15090959 3.634615e-18)
(1.0140395 0.13932163 -2.1227948e-18)
(1.0313454 0.12060046 3.5371891e-21)
(1.0490046 0.10188699 -5.5983341e-23)
(1.0513538 0.086180052 -8.2492617e-25)
(1.0508148 0.072371778 2.3900269e-25)
(1.0490396 0.060938429 1.4934997e-26)
(1.0465637 0.051043754 8.8430169e-27)
(1.0438762 0.042542628 7.7453407e-27)
(1.0412065 0.03507542 7.0398243e-27)
(1.0387489 0.028456886 7.3847605e-27)
(1.0366005 0.022483875 7.0565342e-27)
(1.0348334 0.017011133 7.4712788e-27)
(1.0334835 0.011902998 7.2295361e-27)
(1.0325855 0.0070445622 5.2528768e-27)
(1.0321812 0.0023320231 6.8274231e-27)
(1.0410604 -0.0025993217 -7.577279e-25)
(1.0416719 -0.0078754625 -7.7297004e-25)
(1.0429659 -0.013366273 -7.5938364e-25)
(1.0449155 -0.019215297 -8.053098e-25)
(1.0474904 -0.025589131 -7.4461599e-25)
(1.0506621 -0.032679233 -8.38986e-25)
(1.0543659 -0.040692064 -8.3892603e-25)
(1.0585142 -0.049911816 -9.237542e-25)
(1.0629286 -0.060603395 -7.4602368e-25)
(1.0673878 -0.073255487 -1.6347879e-24)
(1.0714689 -0.088166319 -2.9140763e-23)
(1.0744621 -0.10631022 1.9301833e-22)
(1.0747999 -0.12762279 1.1062543e-20)
(1.0624597 -0.14525624 -5.0495316e-21)
(1.0519238 -0.17349332 3.045385e-18)
(1.0254606 -0.19873707 -8.9120962e-21)
(0.98457535 -0.22614882 -2.1896298e-18)
(0.9148291 -0.25195424 -3.3096861e-18)
(0.8058383 -0.24551908 -1.4838794e-17)
(0.6815655 -0.15981337 1.0614576e-18)
(0.62806582 0.013797989 -1.7584863e-17)
(0.70143429 0.17836747 -5.6592329e-18)
(0.83161169 0.24798719 -6.620781e-18)
(0.9374689 0.24310651 1.7296865e-18)
(1.0083511 0.21265459 1.5907459e-18)
(1.0507987 0.17486342 2.3331807e-18)
(1.0637718 0.14216314 -7.2773741e-21)
(1.0764077 0.11148402 9.5328381e-21)
(1.0739109 0.0921053 1.649417e-22)
(1.0695094 0.076035537 -2.0402075e-23)
(1.0646201 0.063194143 -1.2450059e-24)
(1.0597527 0.052421275 -7.9086375e-25)
(1.0552072 0.043395349 -7.6827963e-25)
(1.0511 0.035596017 -6.7744387e-25)
(1.0475352 0.028778894 -6.9691775e-25)
(1.0445434 0.022680446 -6.909786e-25)
(1.0421501 0.017130741 -7.5071714e-25)
(1.0403569 0.011972605 -6.9868209e-25)
(1.0391768 0.0070800278 -5.8874975e-25)
(1.0386317 0.0023421947 -6.7392484e-25)
(1.0481086 -0.0024720431 7.4213601e-23)
(1.0489298 -0.0074991269 7.2194462e-23)
(1.0506285 -0.012749357 7.4859691e-23)
(1.0532087 -0.018372258 7.686004e-23)
(1.0566705 -0.024545103 8.3038472e-23)
(1.0610284 -0.031479482 8.2213453e-23)
(1.0662781 -0.039405075 8.0126329e-23)
(1.0724119 -0.048654866 8.0284984e-23)
(1.0793702 -0.059548348 6.8276836e-23)
(1.0870757 -0.072675356 1.1447026e-22)
(1.0953304 -0.088478545 1.4265044e-21)
(1.103566 -0.10808606 -1.0930301e-20)
(1.1109761 -0.13180456 -1.2052428e-18)
(1.1045566 -0.1570276 -2.8560275e-20)
(1.1051745 -0.19442129 -3.8932053e-19)
(1.089311 -0.23864569 -3.5848602e-18)
(1.0598383 -0.3006253 7.6179946e-18)
(0.99316222 -0.39750481 1.2366847e-17)
(0.81738105 -0.50024983 5.526863e-18)
(0.43305553 -0.45957017 -1.3370291e-17)
(0.15491763 0.025799851 -8.3316222e-18)
(0.4729808 0.48836672 1.4857757e-18)
(0.8535786 0.49832243 3.3184424e-18)
(1.0272218 0.37474097 -7.6644633e-18)
(1.0907605 0.27042902 6.0711548e-19)
(1.113573 0.19580452 -4.7484889e-18)
(1.1105965 0.15107988 2.4992455e-18)
(1.1095538 0.11066883 -1.4718306e-18)
(1.0995215 0.090484775 -1.1815004e-20)
(1.089906 0.074169222 1.1004552e-21)
(1.0811251 0.061356489 9.9017328e-23)
(1.0734109 0.050755117 7.6311688e-23)
(1.0667456 0.041959945 7.6379989e-23)
(1.0610587 0.0343961 6.5314042e-23)
(1.0563082 0.027808702 6.6948777e-23)
(1.0524331 0.021918945 6.7228571e-23)
(1.049394 0.016560827 7.5517336e-23)
(1.047149 0.011577058 6.7004341e-23)
(1.045683 0.0068467562 7.1494564e-23)
(1.0449938 0.0022643817 6.5206619e-23)
(1.0546194 -0.0022028783 -9.1938209e-21)
(1.0556504 -0.0066890569 -8.7757602e-21)
(1.0577503 -0.011383831 -9.1800052e-21)
(1.0609581 -0.016426674 -1.0087314e-20)
(1.0653108 -0.021985291 -1.0845228e-20)
(1.0708721 -0.028266053 -1.0754958e-20)
(1.0777106 -0.035490735 -9.5749373e-21)
(1.0859118 -0.043992623 -9.2611457e-21)
(1.09556 -0.054089138 -8.810832e-21)
(1.1067439 -0.06636437 -1.0019306e-20)
(1.1195144 -0.081271521 -5.3194599e-21)
(1.1335527 -0.099826593 1.6258749e-19)
(1.1493302 -0.12261363 -2.1986532e-18)
(1.1525106 -0.15137703 -6.364345e-18)
(1.1692514 -0.18918803 -2.0076957e-18)
(1.1777394 -0.24082053 -1.3809662e-18)
(1.1934821 -0.31818247 -1.9162257e-18)
(1.2188829 -0.45522862 1.0120707e-17)
(0.68422828 -0.37373835 1.2858447e-17)
(0.86821756 0.45626001 4.8188069e-18)
(1.2650494 0.41664615 1.3177768e-18)
(1.2213756 0.26602682 1.9291436e-17)
(1.1901148 0.17959725 5.5684722e-19)
(1.1624737 0.13691046 -3.6129169e-18)
(1.1419698 0.096428453 -5.8236594e-18)
(1.1237271 0.079537488 9.6165921e-20)
(1.1089818 0.06587218 -4.2825565e-21)
(1.0964804 0.054986286 -9.2192377e-21)
(1.0860936 0.045852441 -8.8565806e-21)
(1.0774648 0.038173533 -9.4214923e-21)
(1.0703358 0.031475639 -8.5123938e-21)
(1.0645102 0.025572132 -8.4700804e-21)
(1.0598395 0.020232959 -8.477986e-21)
(1.0562197 0.015332408 -8.9656975e-21)
(1.0535692 0.010740475 -8.4833822e-21)
(1.0518464 0.0063597685 -9.5794815e-21)
(1.0510249 0.0021037115 -8.4457768e-21)
(1.0602032 -0.0018014492 1.1114382e-18)
(1.061421 -0.0054732556 1.09323e-18)
(1.063873 -0.0093146521 1.1097534e-18)
(1.0676331 -0.013438072 1.1996512e-18)
(1.0727748 -0.01798078 1.2069357e-18)
(1.079408 -0.023117113 1.2707642e-18)
(1.0876719 -0.029030693 1.110831e-18)
(1.0977352 -0.036007259 1.0878235e-18)
(1.1098135 -0.044315485 1.0662567e-18)
(1.1241221 -0.054433102 1.083883e-18)
(1.1409062 -0.066773603 1.055858e-18)
(1.1600688 -0.081969743 1.0480049e-18)
(1.1830209 -0.10104174 -4.445514e-19)
(1.1955456 -0.12797961 1.7719182e-18)
(1.2247983 -0.15749748 -6.4404651e-18)
(1.25282 -0.19810582 -7.5388778e-18)
(1.3006904 -0.24577061 9.7498093e-18)
(1.2728754 -0.252002 7.1704727e-18)
(0.01156091 0.002093512 -3.1732054e-18)
(0.055379919 -0.0075419861 2.676566e-18)
(1.3751372 0.21746943 -9.7526106e-18)
(1.3195974 0.17588227 4.7231009e-18)
(1.2473252 0.124974 -1.4872724e-18)
(1.2020622 0.099982375 -2.0984214e-18)
(1.1652505 0.071287641 2.3737595e-18)
(1.1413959 0.060997321 1.0852796e-18)
(1.1233693 0.052428362 1.0452648e-18)
(1.1084522 0.044988106 1.0669579e-18)
(1.0963077 0.038381847 1.0611359e-18)
(1.086342 0.032521541 1.1033739e-18)
(1.0782128 0.02718875 1.0657481e-18)
(1.0716198 0.022324433 1.0675622e-18)
(1.066369 0.017804426 1.0739557e-18)
(1.0623161 0.01357118 1.0924332e-18)
(1.0593584 0.0095448738 1.0765309e-18)
(1.0574379 0.0056652609 1.1501833e-18)
(1.0565102 0.00187516 1.0782988e-18)
(1.0645179 -0.0012932728 3.8039363e-19)
(1.0658766 -0.0039286797 2.5469281e-19)
(1.0685878 -0.0066727125 6.3412623e-19)
(1.0727548 -0.0095956761 7.1499536e-19)
(1.0784833 -0.012786737 1.2715202e-18)
(1.085919 -0.016365162 1.2194147e-18)
(1.0952595 -0.020454211 1.8660658e-18)
(1.106737 -0.025257096 2.0397806e-18)
(1.1206695 -0.030971643 3.1881525e-18)
(1.1373547 -0.037921192 4.9973277e-18)
(1.1571649 -0.046489081 4.6289142e-18)
(1.1802143 -0.056950344 6.7624573e-18)
(1.2081318 -0.070624906 -5.1959417e-18)
(1.2273559 -0.09322936 -8.6778312e-20)
(1.2625583 -0.11335251 -3.8840019e-18)
(1.2954067 -0.14072381 2.2508679e-20)
(1.3314356 -0.16120837 1.369948e-17)
(0.99292115 -0.091534941 2.371741e-18)
(0.05883232 -0.020183573 2.3652438e-19)
(0.18505965 0.010151031 -1.5963995e-17)
(1.2385925 0.038950359 -3.3718175e-17)
(1.3435806 0.066841746 -1.9292289e-17)
(1.2668924 0.055517227 -1.6787359e-17)
(1.2181278 0.052753651 1.7903432e-17)
(1.1743391 0.041926348 1.0713998e-17)
(1.1494973 0.039513083 9.3248105e-18)
(1.1310375 0.03690709 8.2014571e-18)
(1.1156921 0.033421234 4.9486669e-18)
(1.10314 0.029740761 4.6250325e-18)
(1.0927491 0.025950279 3.7452995e-18)
(1.0842419 0.022181809 2.8658648e-18)
(1.0773049 0.018505271 2.6546956e-18)
(1.0717628 0.014931324 2.3710254e-18)
(1.0674707 0.011474798 2.2120907e-18)
(1.0643324 0.0081151564 2.4695012e-18)
(1.0622894 0.0048320643 2.1805776e-18)
(1.0612892 0.0016007619 2.3416865e-18)
(1.0673127 -0.00071787047 -1.103513e-18)
(1.0687472 -0.0021753956 -1.0824797e-18)
(1.0715887 -0.0036639359 -1.0963946e-18)
(1.0759612 -0.0052000686 -1.1826724e-18)
(1.0819943 -0.0068120044 -1.182592e-18)
(1.0898565 -0.0085460785 -1.2359511e-18)
(1.0997869 -0.010449091 -1.0572075e-18)
(1.1120695 -0.01261503 -1.0227586e-18)
(1.127088 -0.015156066 -9.5769507e-19)
(1.1452487 -0.018221509 -9.4629565e-19)
(1.1669457 -0.022147239 -8.756122e-19)
(1.1928093 -0.026985382 -8.2241263e-19)
(1.2237269 -0.034024602 1.1995346e-18)
(1.2484826 -0.051995929 -4.8256093e-21)
(1.2875743 -0.065097793 1.298413e-18)
(1.3214227 -0.086801668 1.5894408e-20)
(1.3277723 -0.10170488 -1.141046e-17)
(0.84804915 -0.059848961 1.2452171e-17)
(0.11790443 -0.078292107 1.3296172e-17)
(-0.063256329 -0.12563984 -1.178339e-18)
(-0.12467663 -0.033720966 -1.1427821e-17)
(-0.031259828 0.039272562 3.050935e-17)
(0.38844908 -0.029233357 2.2337812e-17)
(1.1605679 -0.073310301 -1.673118e-17)
(1.3195042 -0.032842412 -1.9408226e-17)
(1.2512246 -0.0095329259 4.310185e-19)
(1.2097448 0.0084354167 -3.5852496e-19)
(1.1691648 0.016034021 -6.2156327e-19)
(1.1480717 0.020387101 -7.0957407e-19)
(1.1320162 0.02283129 -8.130231e-19)
(1.11823 0.022680753 -8.7322293e-19)
(1.106588 0.021528421 -8.9546126e-19)
(1.0966693 0.019536902 -1.014763e-18)
(1.0883849 0.017178243 -9.4154707e-19)
(1.0815115 0.014600125 -9.4787895e-19)
(1.0759528 0.011937597 -9.9374799e-19)
(1.0716052 0.0092553962 -1.0230706e-18)
(1.0684055 0.0065838853 -1.0163431e-18)
(1.0663107 0.0039326616 -1.0842845e-18)
(1.0652694 0.0013036046 -1.0355915e-18)
(1.0684619 -0.00012502049 -5.6616596e-20)
(1.0698936 -0.00036496215 -5.5361013e-20)
(1.0727116 -0.00054897798 -5.7780319e-20)
(1.0770488 -0.00063275629 -6.3316073e-20)
(1.0830463 -0.00057539703 -7.0045981e-20)
(1.0908805 -0.00033943105 -7.1088205e-20)
(1.1008127 0.00012957032 -7.0029308e-20)
(1.1131544 0.00085545068 -6.8115488e-20)
(1.1283193 0.001883657 -7.6099147e-20)
(1.1468434 0.00315139 -9.2098779e-20)
(1.1690982 0.0048078368 -8.8634049e-20)
(1.1962723 0.0060991982 -9.7400868e-20)
(1.2290069 0.0084391624 1.3268773e-19)
(1.2602165 -0.0049474975 2.4414333e-21)
(1.3039666 -0.010227308 6.5495361e-21)
(1.3528654 -0.022135228 2.8673197e-21)
(1.3261877 -0.046475497 -4.0796165e-18)
(0.80224826 -0.074317152 -1.082757e-19)
(0.25870211 -0.19401063 -1.9541751e-17)
(-0.075962463 -0.28759415 -4.1299099e-17)
(-0.24267399 -0.28587327 3.4050027e-17)
(-0.033342657 -0.24594715 3.655528e-17)
(0.52226319 -0.24332955 2.3522205e-18)
(1.1079587 -0.20366343 9.7393061e-19)
(1.2453873 -0.11489311 9.8531448e-18)
(1.2045553 -0.054623712 -6.5154605e-21)
(1.1811516 -0.021119642 -1.6898289e-20)
(1.1536767 0.00025733912 -1.4923702e-19)
(1.1400515 0.0081271005 -1.2896458e-19)
(1.1282997 0.013155768 -1.0309886e-19)
(1.1174394 0.014751868 -9.4690606e-20)
(1.1075497 0.01503986 -8.4740294e-20)
(1.0986889 0.014144445 -7.2837712e-20)
(1.0910053 0.012745761 -7.4930895e-20)
(1.0844552 0.010986099 -7.3158285e-20)
(1.0790534 0.0090715048 -6.7094952e-20)
(1.0747679 0.0070744936 -6.6008633e-20)
(1.0715834 0.0050513686 -6.5281553e-20)
(1.0694825 0.0030217851 -6.940163e-20)
(1.0684203 0.0010010787 -6.3017588e-20)
(1.067989 0.00042953125 7.691851e-21)
(1.0693338 0.0013317141 7.2882711e-21)
(1.0719647 0.0023763244 7.5919293e-21)
(1.0760098 0.0036683049 8.4047287e-21)
(1.0816043 0.0053212713 8.8452073e-21)
(1.0889131 0.0074645329 8.6102636e-21)
(1.098188 0.01025669 7.0470966e-21)
(1.1097339 0.01384513 6.4950146e-21)
(1.1239622 0.018501451 5.4127059e-21)
(1.1414446 0.024250794 5.5230202e-21)
(1.1626748 0.03178992 4.1881067e-21)
(1.1888266 0.040257406 2.8947722e-21)
(1.2217103 0.051833577 -3.2451081e-21)
(1.2634702 0.063239193 -3.8432621e-23)
(1.3074871 0.057407187 -1.5983256e-21)
(1.3669725 0.061282884 -5.5764884e-19)
(1.3610126 0.038330513 1.6715124e-17)
(0.94738892 -0.037068004 2.979925e-18)
(0.47217779 -0.20285319 -2.4857643e-17)
(0.05559942 -0.36621982 -1.962193e-17)
(-0.23295377 -0.47356862 1.9072578e-17)
(-0.090471682 -0.4694144 2.4399481e-17)
(0.4478002 -0.38257623 -1.2778126e-17)
(0.95253174 -0.25631033 -6.5516841e-18)
(1.117813 -0.12366746 1.919467e-17)
(1.1397436 -0.061578998 -1.1808341e-21)
(1.1348407 -0.015924955 7.8657973e-18)
(1.1351861 -0.001996214 3.8135644e-20)
(1.1303291 0.0052295474 1.3783582e-21)
(1.1232885 0.0091897834 2.8564291e-21)
(1.1155894 0.010509539 3.8958753e-21)
(1.1075213 0.010777717 4.6194562e-21)
(1.0997799 0.010099514 6.1952679e-21)
(1.0927187 0.0090845813 5.2513456e-21)
(1.0865166 0.0077952291 5.3789017e-21)
(1.0812884 0.006418344 5.8683183e-21)
(1.0770822 0.0049886811 6.5536075e-21)
(1.0739257 0.0035532321 6.1180238e-21)
(1.0718274 0.0021194027 7.2360761e-21)
(1.0707477 0.00069957875 6.2824628e-21)
(1.0660761 0.00089053674 8.9387742e-22)
(1.0672543 0.0027444225 8.5631909e-22)
(1.0695449 0.0048153278 8.9185164e-22)
(1.0730553 0.0072607475 9.4164931e-22)
(1.0778945 0.010260335 1.0289939e-21)
(1.0841899 0.014025972 1.0250746e-21)
(1.0921421 0.018824457 1.0004983e-21)
(1.1020003 0.024934426 9.7034075e-22)
(1.1141158 0.032841513 9.6626906e-22)
(1.1289448 0.042806495 1.2055635e-21)
(1.147061 0.055880569 1.0956475e-21)
(1.1692929 0.071965281 1.2734791e-21)
(1.198023 0.093270244 -1.4681799e-21)
(1.2340266 0.11912007 -1.4482087e-23)
(1.2828437 0.13020434 4.9941756e-23)
(1.3458759 0.1620584 9.2762632e-21)
(1.3804934 0.17229058 -1.6604512e-18)
(1.1343349 0.12371254 5.0264537e-20)
(0.70630442 -0.031316526 -4.0082792e-20)
(0.28779085 -0.20097018 -2.6761388e-18)
(-0.084138237 -0.37430323 -3.2225858e-17)
(-0.14992097 -0.46512106 1.657078e-17)
(0.2493881 -0.36787945 -4.0585893e-20)
(0.75648026 -0.19758748 5.5099465e-19)
(1.0146017 -0.065658587 -5.7409192e-19)
(1.0849535 -0.023507442 -4.2483812e-22)
(1.113673 0.0075150263 -6.7584364e-19)
(1.1244344 0.0096579395 1.72259e-21)
(1.1251241 0.010788094 1.4275625e-21)
(1.1211531 0.010263348 1.2396087e-21)
(1.1152574 0.0093281968 1.1261775e-21)
(1.1081591 0.0082602698 1.0331031e-21)
(1.1009684 0.0070562267 9.7782725e-22)
(1.0941604 0.0059495141 9.2525049e-22)
(1.0880767 0.0048660689 9.1121701e-22)
(1.082878 0.0038725437 8.7770294e-22)
(1.078667 0.0029336002 9.1755459e-22)
(1.0754895 0.0020517674 8.6362839e-22)
(1.0733675 0.0012065595 9.387748e-22)
(1.0722576 0.00039330236 8.4682139e-22)
(1.0630538 0.0012102402 -2.6485583e-23)
(1.0640023 0.0037248587 -2.8373064e-23)
(1.0658325 0.0065062764 -2.4493572e-23)
(1.0686157 0.0097471582 -2.7164152e-23)
(1.0724147 0.013673579 -2.9817744e-23)
(1.0772924 0.018558039 -2.5281367e-23)
(1.0833596 0.024747671 -2.0676905e-23)
(1.0907439 0.032633636 -2.4310821e-23)
(1.0996551 0.042845807 -4.9594195e-24)
(1.1103044 0.05590094 -3.7907888e-24)
(1.1230975 0.073050407 1.0770891e-23)
(1.1383724 0.094863957 3.0903008e-23)
(1.15808 0.12387025 -4.4749743e-23)
(1.1820662 0.16060312 -9.2673568e-25)
(1.2242968 0.18986185 4.2140652e-25)
(1.272413 0.24992254 8.2323657e-23)
(1.3212797 0.30672269 7.6933746e-21)
(1.231496 0.35316308 3.0902231e-22)
(0.90164534 0.28285759 -3.7182609e-17)
(0.51004091 0.15451307 6.8135298e-19)
(0.14150937 -0.0021985735 1.6984736e-18)
(-0.055020832 -0.15683307 1.6875066e-17)
(0.074759261 -0.20454971 6.4424079e-18)
(0.55063588 -0.080340317 -4.3478101e-22)
(0.9494895 0.037519706 8.3005141e-21)
(1.0682597 0.043090412 -1.4522588e-23)
(1.1179251 0.039029491 -1.0445988e-19)
(1.1298085 0.02695554 -7.2491037e-22)
(1.1295816 0.018706647 1.0347394e-22)
(1.1249715 0.012707119 3.490238e-23)
(1.1182515 0.0086600304 1.5102732e-23)
(1.1105556 0.0058830006 8.0812678e-25)
(1.1028741 0.0039551527 -1.6321181e-23)
(1.0956859 0.0026657223 -6.3087175e-24)