/*--------------------------------*- C++ -*----------------------------------*\
| =========                 |                                                 |
| \\      /  F ield         | OpenFOAM: The Open Source CFD Toolbox           |
|  \\    /   O peration     | Version:  v2106                                 |
|   \\  /    A nd           | Website:  www.openfoam.com                      |
|    \\/     M anipulation  |                                                 |
\*---------------------------------------------------------------------------*/
FoamFile
{
    version     2.0;
    format      ascii;
    arch        "LSB;label=32;scalar=64";
    class       volScalarField;
    location    "0";
    object      p;
}
// * * * * * * * * * * * * * * * * * * * * * * * * * * * * * * * * * * * * * //

dimensions      [0 2 -2 0 0 0 0];

internalField   nonuniform List<scalar> 
11644
(
27.4116
27.5053
27.6924
27.9719
28.3424
28.8017
29.3462
29.9709
30.6685
31.4294
32.2404
33.0853
33.9434
34.7906
35.5991
36.3388
36.9787
37.4896
37.8459
38.029
38.0291
37.8459
37.4896
36.9788
36.3388
35.5991
34.7907
33.9435
33.0853
32.2405
31.4294
30.6686
29.9709
29.3463
28.8017
28.3424
27.9719
27.6924
27.5054
27.4117
27.238
27.3324
27.521
27.8032
28.178
28.6438
29.1977
29.8357
30.5514
31.3362
32.1779
33.0605
33.9637
34.8623
35.7266
36.5235
37.218
37.7758
38.1668
38.3684
38.3684
38.1668
37.7758
37.218
36.5235
35.7266
34.8623
33.9637
33.0605
32.1779
31.3362
30.5515
29.8357
29.1978
28.6438
28.178
27.8032
27.521
27.3325
27.2381
26.8902
26.9857
27.1768
27.4635
27.8458
28.323
28.8942
29.5568
30.3069
31.1378
32.0396
32.9978
33.9924
34.9971
35.9785
36.8973
37.7094
38.37
38.8375
39.08
39.08
38.8375
38.37
37.7095
36.8973
35.9785
34.9971
33.9924
32.9978
32.0396
31.1379
30.3069
29.5569
28.8942
28.3231
27.8458
27.4635
27.1768
26.9857
26.8902
26.3657
26.4622
26.6557
26.9471
27.3377
27.8287
28.4214
29.1163
29.9129
30.8085
31.797
32.8677
34.0025
35.1747
36.3462
37.4681
38.4813
39.321
39.9243
40.2402
40.2402
39.9243
39.321
38.4813
37.4682
36.3463
35.1747
34.0025
32.8677
31.7971
30.8085
29.9129
29.1163
28.4214
27.8287
27.3377
26.9472
26.6557
26.4622
26.3657
25.6626
25.7592
25.9535
26.2475
26.6438
27.1463
27.7594
28.4877
29.3358
30.3071
31.4026
32.6187
33.9435
35.3531
36.8056
38.2399
39.5737
40.7094
41.5425
41.9847
41.9847
41.5425
40.7094
39.5737
38.24
36.8057
35.3532
33.9436
32.6187
31.4027
30.3071
29.3358
28.4877
27.7594
27.1464
26.6438
26.2475
25.9536
25.7593
25.6626
24.7807
24.8757
25.0672
25.3582
25.7536
26.2596
26.8843
27.6375
28.5307
29.576
30.7853
32.1683
33.7277
35.452
37.2984
39.1973
41.0322
42.6574
43.8837
44.5472
44.5472
43.8837
42.6575
41.0323
39.1973
37.2984
35.452
33.7277
32.1683
30.7854
29.576
28.5307
27.6376
26.8843
26.2596
25.7536
25.3583
25.0672
24.8757
24.7807
23.7231
23.8136
23.9966
24.2762
24.6587
25.1531
25.7714
26.5287
27.4443
28.5414
29.847
31.3916
33.2067
35.3247
37.6936
40.2715
41.818
44.1349
46.0324
47.2213
47.4753
46.7416
45.1674
43.0278
40.2716
37.6936
35.3248
33.2067
31.3916
29.847
28.5414
27.4443
26.5288
25.7714
25.1532
24.6587
24.2762
23.9966
23.8136
23.7232
22.4982
22.5805
22.7474
23.0037
23.3569
23.8177
24.4012
25.1273
26.0224
27.1209
28.4669
30.1146
32.1269
34.2259
36.9444
40.1134
43.6484
47.1985
50.3263
52.3871
52.8327
51.5308
48.8538
45.4407
41.8685
38.4907
35.5386
32.127
30.1146
28.4669
27.1209
26.0224
25.1273
24.4012
23.8177
23.3569
23.0037
22.7474
22.5805
22.4982
21.1209
21.1908
21.333
21.5521
21.8558
22.2555
22.7672
23.4131
24.2242
25.243
26.5287
28.1632
30.2601
32.8202
36.0546
40.1638
44.4076
49.7792
55.1306
59.1675
60.4333
58.3787
53.8704
48.4136
43.1625
37.9882
34.3392
30.2602
28.1632
26.5287
25.243
24.2242
23.4132
22.7672
22.2555
21.8558
21.5521
21.333
21.1909
21.1209
19.6143
19.6676
19.7761
19.9438
20.1772
20.4862
20.8849
21.3936
22.0417
22.8715
23.9454
25.3565
27.2461
30.1166
33.5378
38.0788
44.0669
52.2203
61.9704
70.8571
74.3227
69.9435
60.721
51.091
42.6465
35.7372
31.6831
27.2462
25.3565
23.9455
22.8716
22.0417
21.3936
20.8849
20.4862
20.1773
19.9438
19.7761
19.6677
19.6144
18.0092
18.0423
18.1098
18.214
18.3589
18.5509
18.7989
19.1163
19.5229
20.0485
20.7384
21.6643
22.9423
25.7047
28.5224
33.2318
40.1243
51.3364
68.8375
92.4834
105.567
91.0412
67.4971
49.6019
38.1011
30.4714
26.9608
22.9423
21.6643
20.7384
20.0485
19.523
19.1163
18.7989
18.5509
18.359
18.214
18.1098
18.0423
18.0092
16.3427
16.3535
16.3754
16.4086
16.4537
16.5118
16.5844
16.6738
16.784
16.9208
17.0942
17.3198
17.6248
19.6558
20.7777
23.8734
28.5038
37.3033
58.1731
56.1471
35.4668
26.5583
21.5994
20.1419
17.6248
17.3198
17.0942
16.9209
16.784
16.6738
16.5844
16.5118
16.4538
16.4086
16.3754
16.3535
16.3427
14.6561
14.6444
14.62
14.5811
14.5246
14.4459
14.3384
14.1928
13.9951
13.7252
13.352
12.8268
12.0698
12.8942
11.7676
11.689
10.522
7.27208
-2.81642
-2.17533
7.63598
9.97667
10.9658
12.3896
12.0698
12.8268
13.352
13.7252
13.9951
14.1928
14.3385
14.4459
14.5246
14.5811
14.62
14.6444
14.6561
12.9912
12.9585
12.8914
12.7861
12.6364
12.4331
12.1631
11.8076
11.3397
10.72
9.89019
8.76119
7.19365
6.82641
4.02779
1.28614
-4.19092
-15.6095
-36.5091
-34.6804
-13.7531
-3.3289
2.10147
5.56996
7.19362
8.76117
9.89018
10.72
11.3397
11.8076
12.1631
12.4331
12.6364
12.7861
12.8915
12.9585
12.9912
11.3866
11.3364
11.2336
11.0732
10.8472
10.5436
10.1458
9.63043
8.96484
8.10335
6.98132
5.50625
3.54391
2.39954
-0.970616
-4.63513
-10.6117
-20.0306
-32.5025
-45.1948
-51.435
-43.8242
-30.8256
-18.6746
-9.3736
-3.14167
0.855839
3.54388
5.50623
6.98131
8.10334
8.96483
9.63043
10.1458
10.5436
10.8472
11.0732
11.2336
11.3364
11.3866
9.87493
9.81161
9.68236
9.48176
9.20124
8.82838
8.34603
7.73102
6.9523
5.96861
4.72559
3.15271
1.16165
-0.297019
-3.46108
-7.50195
-11.9261
-17.9055
-24.096
-28.9215
-30.4582
-27.9551
-22.6004
-16.3493
-10.5633
-5.3614
-1.77893
1.16161
3.15268
4.72557
5.9686
6.95229
7.73102
8.34603
8.82837
9.20123
9.48176
9.68236
9.81161
9.87493
8.48034
8.40874
8.26304
8.03815
7.72611
7.31565
6.79166
6.13445
5.31892
4.31365
3.08017
1.5726
-0.262108
-2.48296
-4.35654
-7.40901
-10.6152
-14.3233
-17.7216
-20.1033
-20.818
-19.6433
-16.9381
-13.4006
-9.08839
-5.82413
-2.48299
-0.262138
1.57257
3.08015
4.31364
5.31891
6.13444
6.79165
7.31565
7.72611
8.03815
8.26303
8.40873
8.48034
7.2182
7.1429
6.99018
6.75575
6.43303
6.01294
5.48372
4.83077
4.03655
3.0809
1.9418
0.59751
-0.969218
-2.76233
-4.33877
-6.58916
-8.86
-11.2275
-13.24
-14.5692
-14.9559
-14.3174
-12.7885
-10.6558
-7.75985
-5.44176
-2.76236
-0.969242
0.597489
1.94178
3.08088
4.03654
4.83076
5.48371
6.01293
6.43302
6.75574
6.99017
7.1429
7.2182
6.09536
6.02026
5.86844
5.63667
5.32005
4.91207
4.40467
3.78839
3.05284
2.18748
1.18303
0.0339042
-1.25799
-2.67764
-3.94322
-5.59154
-7.21146
-8.77839
-10.0488
-10.8585
-11.0898
-10.7068
-9.76848
-8.40739
-6.41589
-4.76179
-2.67766
-1.25801
0.0338863
1.18301
2.18746
3.05283
3.78838
4.40466
4.91207
5.32004
5.63666
5.86844
6.02026
6.09535
5.11142
5.03952
4.89461
4.67452
4.37605
3.99513
3.527
2.96662
2.30924
1.5513
0.691804
-0.265759
-1.31086
-2.42295
-3.42258
-4.63652
-5.80964
-6.88383
-7.72779
-8.25365
-8.4022
-8.15587
-7.5436
-6.63288
-5.22674
-4.03115
-2.42296
-1.31088
-0.265774
0.691791
1.55129
2.30923
2.96661
3.52699
3.99512
4.37605
4.67452
4.89461
5.03951
5.11141
4.26047
4.19381
4.05985
3.85735
3.58458
3.23948
2.81996
2.32428
1.75163
1.10293
0.381899
-0.403631
-1.24009
-2.10643
-2.89473
-3.79863
-4.66336
-5.42251
-6.00637
-6.36479
-6.46531
-6.29851
-5.87996
-5.24696
-4.22797
-3.35178
-2.10645
-1.2401
-0.403644
0.381887
1.10292
1.75162
2.32427
2.81995
3.23947
3.58457
3.85734
4.05984
4.1938
4.26046
3.53281
3.47259
3.35186
3.17016
2.92687
2.62147
2.25378
1.82429
1.33466
0.788325
0.191223
-0.447401
-1.11416
-1.79085
-2.45458
-3.0937
-3.70563
-4.22036
-4.60182
-4.82327
-4.86845
-4.73395
-4.42981
-3.9779
-3.40958
-2.45459
-1.79086
-1.11417
-0.447412
0.191212
0.788316
1.33465
1.82428
2.25377
2.62147
2.92686
3.17015
3.35186
3.47258
3.53281
2.91655
2.86326
2.75668
2.59686
2.38403
2.11869
1.8019
1.43551
1.02254
0.567587
0.0772941
-0.439207
-0.969884
-1.49955
-2.00984
-2.47938
-2.89202
-3.22294
-3.45476
-3.57422
-3.57422
-3.45476
-3.22295
-2.89203
-2.47939
-2.00985
-1.49956
-0.969893
-0.439216
0.0772855
0.567579
1.02253
1.4355
1.80189
2.11868
2.38402
2.59686
2.75667
2.86325
2.91654
2.39886
2.35249
2.25995
2.12164
1.93829
1.71108
1.44175
1.13287
0.788042
0.412193
0.0118043
-0.40484
-0.827521
-1.2441
-1.6408
-2.00286
-2.316
-2.56555
-2.73938
-2.82863
-2.82863
-2.73938
-2.56556
-2.316
-2.00286
-1.6408
-1.24411
-0.827528
-0.404847
0.011797
0.412186
0.788035
1.13286
1.44174
1.71107
1.93829
2.12163
2.25994
2.35249
2.39885
1.96693
1.92714
1.84786
1.7297
1.5737
1.38135
1.15474
0.896691
0.610917
0.302166
-0.0236446
-0.359338
-0.696474
-1.02546
-1.33584
-1.61674
-1.85752
-2.04818
-2.18036
-2.24804
-2.24804
-2.18037
-2.04819
-1.85753
-1.61675
-1.33585
-1.02547
-0.69648
-0.359344
-0.0236509
0.30216
0.610911
0.896684
1.15473
1.38135
1.5737
1.7297
1.84785
1.92714
1.96693
1.6086
1.57483
1.50765
1.40777
1.27635
1.11499
0.925866
0.711786
0.476279
0.223677
-0.0408311
-0.311186
-0.580514
-0.841258
-1.08541
-1.30485
-1.49174
-1.63898
-1.74067
-1.79261
-1.79261
-1.74067
-1.63898
-1.49175
-1.30485
-1.08542
-0.841263
-0.58052
-0.311192
-0.0408365
0.223671
0.476273
0.711781
0.925861
1.11498
1.27634
1.40777
1.50764
1.57483
1.6086
1.31273
1.28433
1.2279
1.14419
1.03435
0.899971
0.743149
0.566507
0.37325
0.167197
-0.0472131
-0.264946
-0.480443
-0.687748
-0.880697
-1.05316
-1.19932
-1.314
-1.39297
-1.43324
-1.43324
-1.39297
-1.314
-1.19932
-1.05316
-0.8807
-0.687752
-0.480447
-0.26495
-0.0472178
0.167192
0.373245
0.566502
0.743144
0.899966
1.03434
1.14419
1.2279
1.28433
1.31273
1.06938
1.04568
0.998624
0.92894
0.837722
0.726465
0.597087
0.451952
0.293882
0.126168
-0.047457
-0.222848
-0.395528
-0.560797
-0.71388
-0.850105
-0.965112
-1.05507
-1.11686
-1.14833
-1.14833
-1.11686
-1.05507
-0.965115
-0.850108
-0.713883
-0.5608
-0.395531
-0.222852
-0.0474611
0.126163
0.293878
0.451947
0.597082
0.72646
0.837717
0.928936
0.998619
1.04567
1.06938
0.86987
0.850204
0.811199
0.753516
0.678157
0.586471
0.480166
0.361314
0.232351
0.0960635
-0.0444391
-0.185767
-0.324323
-0.456388
-0.578242
-0.686298
-0.777244
-0.8482
-0.896857
-0.921601
-0.921601
-0.896858
-0.848201
-0.777245
-0.6863
-0.578245
-0.45639
-0.324326
-0.185771
-0.0444427
0.0960597
0.232348
0.36131
0.480162
0.586466
0.678153
0.753512
0.811195
0.8502
0.869866
0.706735
0.690498
0.658318
0.610785
0.548787
0.473512
0.386448
0.289376
0.184366
0.0737516
-0.0398968
-0.153819
-0.265124
-0.370864
-0.468127
-0.554134
-0.626346
-0.682574
-0.721075
-0.740637
-0.740637
-0.721076
-0.682575
-0.626347
-0.554135
-0.468129
-0.370867
-0.265127
-0.153822
-0.0399
0.0737483
0.184362
0.289372
0.386444
0.473509
0.548784
0.610781
0.658314
0.690494
0.706731
0.57363
0.560278
0.533832
0.494806
0.443973
0.382359
0.311236
0.232118
0.146743
0.0570497
-0.0348499
-0.126713
-0.216218
-0.301022
-0.378832
-0.447482
-0.505009
-0.549733
-0.58032
-0.59585
-0.59585
-0.580321
-0.549733
-0.505011
-0.447484
-0.378834
-0.301024
-0.216221
-0.126716
-0.0348527
0.0570467
0.14674
0.232115
0.311233
0.382355
0.44397
0.494803
0.533828
0.560275
0.573627
0.46522
0.454277
0.43261
0.400665
0.3591
0.308789
0.25081
0.186433
0.117104
0.0444273
-0.0298708
-0.103972
-0.176008
-0.244114
-0.306478
-0.361402
-0.407354
-0.443034
-0.467413
-0.479784
-0.479785
-0.467414
-0.443035
-0.407355
-0.361403
-0.30648
-0.244116
-0.17601
-0.103974
-0.0298733
0.0444247
0.117102
0.18643
0.250807
0.308786
0.359097
0.400662
0.432607
0.454273
0.465217
0.377051
0.368105
0.350401
0.324314
0.290403
0.249403
0.202216
0.149903
0.0936591
0.0348023
-0.0252578
-0.0850482
-0.143068
-0.197827
-0.247888
-0.291911
-0.328699
-0.357233
-0.376716
-0.386598
-0.386598
-0.376716
-0.357234
-0.3287
-0.291913
-0.247889
-0.197828
-0.14307
-0.0850503
-0.02526
0.0348
0.0936566
0.1499
0.202214
0.2494
0.2904
0.324311
0.350398
0.368102
0.377048
0.305429
0.298131
0.283694
0.262433
0.234816
0.201456
0.163106
0.12064
0.0750464
0.0274023
-0.021144
-0.0694004
-0.116159
-0.160228
-0.200463
-0.235805
-0.265307
-0.288172
-0.303775
-0.311686
-0.311686
-0.303776
-0.288173
-0.265308
-0.235806
-0.200464
-0.160229
-0.116161
-0.0694022
-0.021146
0.0274002
0.0750442
0.120638
0.163103
0.201454
0.234813
0.26243
0.283691
0.298128
0.305426
0.247303
0.241361
0.229608
0.212308
0.189849
0.162741
0.131605
0.0971637
0.0602252
0.0216706
-0.0175669
-0.056523
-0.0942251
-0.129718
-0.162089
-0.190497
-0.214191
-0.232543
-0.24506
-0.251405
-0.251405
-0.245061
-0.232544
-0.214192
-0.190498
-0.162091
-0.129719
-0.0942266
-0.0565246
-0.0175687
0.0216687
0.0602232
0.0971616
0.131603
0.162739
0.189847
0.212305
0.229606
0.241358
0.247301
0.200168
0.195336
0.185782
0.171723
0.15348
0.131476
0.106219
0.0783045
0.0483927
0.0172018
-0.0145108
-0.0459649
-0.0763774
-0.104981
-0.131048
-0.153904
-0.172957
-0.187706
-0.197761
-0.202857
-0.202857
-0.197761
-0.187706
-0.172958
-0.153905
-0.131049
-0.104983
-0.0763787
-0.0459664
-0.0145123
0.0172001
0.0483909
0.0783026
0.106217
0.131474
0.153478
0.17172
0.18578
0.195334
0.200166
0.16197
0.158046
0.150287
0.138874
0.12407
0.106223
0.0857507
0.0631382
0.0389258
0.0136974
-0.0119326
-0.0373336
-0.0618742
-0.0849385
-0.105942
-0.124348
-0.139682
-0.151548
-0.159635
-0.163732
-0.163732
-0.159635
-0.151548
-0.139683
-0.124349
-0.105943
-0.0849395
-0.0618754
-0.0373349
-0.011934
0.0136959
0.0389242
0.0631365
0.0857489
0.106221
0.124069
0.138872
0.150285
0.158044
0.161968
0.131031
0.127846
0.121552
0.112294
0.100291
0.0858251
0.0692399
0.0509308
0.031338
0.0109356
-0.00977814
-0.0302936
-0.0501017
-0.0687069
-0.0856403
-0.100472
-0.112824
-0.122378
-0.128888
-0.132185
-0.132186
-0.128888
-0.122378
-0.112824
-0.100473
-0.0856411
-0.0687078
-0.0501027
-0.0302948
-0.0097794
0.0109343
0.0313365
0.0509293
0.0692383
0.0858234
0.100289
0.112292
0.12155
0.127845
0.131029
0.105981
0.103399
0.0982959
0.090792
0.0810653
0.0693471
0.0559171
0.0410979
0.0252471
0.00874987
-0.00799052
-0.024562
-0.0405538
-0.0555672
-0.0692254
-0.0811837
-0.0911388
-0.0988369
-0.104081
-0.106738
-0.106738
-0.104082
-0.0988372
-0.0911392
-0.0811843
-0.0692261
-0.055568
-0.0405547
-0.024563
-0.00799164
0.00874866
0.0252458
0.0410965
0.0559157
0.0693456
0.0810638
0.0907905
0.0982943
0.103398
0.10598
0.0857072
0.0836149
0.07948
0.073401
0.0655231
0.0560347
0.0451639
0.0331727
0.0203519
0.00701368
-0.00651539
-0.0199023
-0.0328156
-0.044934
-0.0559545
-0.0656003
-0.0736279
-0.0798342
-0.0840617
-0.0862027
-0.0862027
-0.0840618
-0.0798345
-0.0736283
-0.0656008
-0.0559551
-0.0449347
-0.0328164
-0.0199032
-0.0065164
0.0070126
0.0203508
0.0331715
0.0451626
0.0560334
0.0655217
0.0733996
0.0794786
0.0836135
0.0857057
0.0693027
0.0676082
0.0642596
0.0593372
0.0529592
0.0452792
0.0364824
0.026782
0.0164136
0.00563043
-0.00530331
-0.0161184
-0.0265474
-0.0363313
-0.0452262
-0.0530094
-0.0594855
-0.0644914
-0.0679007
-0.0696272
-0.0696273
-0.0679008
-0.0644916
-0.0594859
-0.0530099
-0.0452268
-0.036332
-0.0265481
-0.0161192
-0.00530421
0.00562945
0.0164126
0.0267809
0.0364813
0.045278
0.052958
0.0593359
0.0642583
0.0676069
0.0693014
0.0560324
0.0546605
0.0519497
0.0479654
0.0428035
0.036589
0.0294724
0.0216265
0.0132426
0.00452556
-0.00431069
-0.0130486
-0.0214723
-0.0293729
-0.0365539
-0.042836
-0.0480622
-0.0521013
-0.0548519
-0.0562448
-0.0562448
-0.0548521
-0.0521016
-0.0480625
-0.0428365
-0.0365544
-0.0293735
-0.021473
-0.0130494
-0.0043115
0.00452468
0.0132416
0.0216255
0.0294714
0.036588
0.0428024
0.0479642
0.0519486
0.0546594
0.0560312
0.0452994
0.0441891
0.0419953
0.0387712
0.0345947
0.0295673
0.023811
0.0174661
0.0106875
0.00364118
-0.00349993
-0.01056
-0.0173647
-0.0237454
-0.0295439
-0.0346157
-0.0388343
-0.0420944
-0.0443142
-0.0454383
-0.0454383
-0.0443143
-0.0420946
-0.0388346
-0.034616
-0.0295443
-0.023746
-0.0173653
-0.0105607
-0.00350066
0.0036404
0.0106867
0.0174653
0.0238101
0.0295663
0.0345937
0.0387702
0.0419943
0.0441881
0.0452983
0.0366198
0.0357215
0.0339466
0.0313383
0.0279598
0.0238935
0.0192383
0.0141079
0.0086277
0.00293207
-0.0028391
-0.00854372
-0.014041
-0.0191949
-0.0238778
-0.0279732
-0.0313793
-0.0340112
-0.0358032
-0.0367105
-0.0367106
-0.0358033
-0.0340114
-0.0313796
-0.0279735
-0.0238782
-0.0191954
-0.0140415
-0.00854432
-0.00283976
0.00293136
0.00862694
0.0141071
0.0192375
0.0238926
0.0279589
0.0313373
0.0339457
0.0357205
0.0366188
0.0296017
0.028875
0.0274393
0.0253296
0.0225972
0.0193087
0.0155445
0.0113965
0.00696632
0.00236266
-0.00230137
-0.00691093
-0.0113523
-0.0155157
-0.0192981
-0.0226056
-0.0253562
-0.0274813
-0.0289282
-0.0296608
-0.0296609
-0.0289283
-0.0274815
-0.0253564
-0.0226059
-0.0192984
-0.0155161
-0.0113528
-0.00691146
-0.00230196
0.00236202
0.00696564
0.0113958
0.0155437
0.0193079
0.0225964
0.0253287
0.0274385
0.0288741
0.0296008
0.0239275
0.0233398
0.0221787
0.0204725
0.0182629
0.0156038
0.0125604
0.00920696
0.00562583
0.00190489
-0.00186439
-0.0055892
-0.00917768
-0.0125412
-0.0155966
-0.0182681
-0.0204896
-0.0222059
-0.0233744
-0.023966
-0.023966
-0.0233745
-0.0222061
-0.0204898
-0.0182684
-0.0155969
-0.0125416
-0.00917811
-0.00558968
-0.00186492
0.00190432
0.00562522
0.00920632
0.0125597
0.0156031
0.0182622
0.0204717
0.0221779
0.023339
0.0239267
0.0193403
0.018865
0.0179261
0.0165465
0.0147599
0.01261
0.0101495
0.0074386
0.00454392
0.00153651
-0.00150967
-0.00451961
-0.00741911
-0.0101366
-0.0126049
-0.014763
-0.0165574
-0.0179437
-0.0188874
-0.0193653
-0.0193653
-0.0188875
-0.0179438
-0.0165576
-0.0147632
-0.0126052
-0.0101369
-0.0074195
-0.00452004
-0.00151014
0.001536
0.00454338
0.00743802
0.0101488
0.0126093
0.0147592
0.0165458
0.0179254
0.0188643
0.0193396
0.015632
0.0152478
0.0144886
0.0133731
0.0119287
0.0101906
0.00820153
0.00601023
0.0036705
0.00123984
-0.00122196
-0.00365428
-0.00599717
-0.00819282
-0.010187
-0.0119305
-0.01338
-0.0144999
-0.0152622
-0.0156482
-0.0156482
-0.0152623
-0.0145
-0.0133802
-0.0119307
-0.0101873
-0.00819313
-0.00599752
-0.00365466
-0.00122238
0.00123938
0.00367001
0.00600971
0.00820099
0.01019
0.0119281
0.0133725
0.014488
0.0152471
0.0156314
0.0126345
0.0123238
0.0117101
0.0108083
0.00964054
0.00823549
0.00662761
0.00485635
0.00296524
0.00100076
-0.000988767
-0.00295434
-0.00484753
-0.00662164
-0.00823288
-0.00964145
-0.0108126
-0.0117172
-0.0123331
-0.0126449
-0.0126449
-0.0123331
-0.0117173
-0.0108127
-0.00964165
-0.00823311
-0.00662191
-0.00484784
-0.00295469
-0.00098915
0.00100034
0.0029648
0.00485589
0.00662712
0.00823498
0.00964001
0.0108077
0.0117095
0.0123233
0.012634
0.0102116
0.00996044
0.00946426
0.00873525
0.00779128
0.00665551
0.00535583
0.00392416
0.00239568
0.00080798
-0.000799871
-0.00238828
-0.00391812
-0.00535167
-0.00665355
-0.00779163
-0.00873781
-0.00946871
-0.00996626
-0.0102182
-0.0102182
-0.00996632
-0.00946881
-0.00873795
-0.00779181
-0.00665376
-0.00535191
-0.0039184
-0.0023886
-0.000800215
0.000807607
0.00239528
0.00392373
0.00535539
0.00665505
0.0077908
0.00873476
0.00946377
0.00995994
0.0102111
0.0082532
0.00805017
0.00764908
0.00705978
0.00629673
0.00537867
0.00432816
0.003171
0.00193564
0.000652475
-0.000646924
-0.00193056
-0.00316681
-0.0043252
-0.00537716
-0.00629674
-0.00706124
-0.00765177
-0.00805377
-0.00825729
-0.00825731
-0.00805382
-0.00765186
-0.00706136
-0.0062969
-0.00537735
-0.00432542
-0.00316706
-0.00193084
-0.000647234
0.00065214
0.00193528
0.00317062
0.00432776
0.00537826
0.0062963
0.00705934
0.00764863
0.00804972
0.00825275
0.00667031
0.0065062
0.00618198
0.00570564
0.00508887
0.00434682
0.00349772
0.00256246
0.00156403
0.000526991
-0.00052313
-0.00156048
-0.00255949
-0.00349556
-0.00434561
-0.00508866
-0.00570638
-0.00618354
-0.00650835
-0.00667279
-0.00667281
-0.0065084
-0.00618362
-0.0057065
-0.0050888
-0.00434578
-0.00349577
-0.00255972
-0.00156073
-0.000523409
0.00052669
0.00156371
0.00256212
0.00349737
0.00434644
0.00508848
0.00570525
0.00618158
0.00650579
0.00666991
0.00539096
0.00525831
0.00499625
0.00461122
0.0041127
0.00351293
0.00282666
0.00207075
0.00126382
0.000425703
-0.000422962
-0.00126128
-0.0020686
-0.00282503
-0.00351193
-0.00411236
-0.00461151
-0.00499707
-0.00525952
-0.0053924
-0.00539241
-0.00525957
-0.00499714
-0.00461161
-0.00411249
-0.00351209
-0.00282521
-0.00206881
-0.00126151
-0.000423213
0.000425432
0.00126353
0.00207045
0.00282633
0.0035126
0.00411235
0.00461087
0.00499588
0.00525794
0.00539059
0.00435696
0.00424973
0.00403792
0.00372672
0.00332379
0.00283903
0.00228436
0.00167343
0.00102127
0.000343926
-0.00034193
-0.00101941
-0.00167182
-0.0022831
-0.00283818
-0.00332337
-0.00372672
-0.00403827
-0.00425035
-0.00435772
-0.00435773
-0.00425039
-0.00403834
-0.00372681
-0.00332349
-0.00283832
-0.00228327
-0.00167201
-0.00101962
-0.000342156
0.000343682
0.00102101
0.00167316
0.00228407
0.00283873
0.00332348
0.0037264
0.00403759
0.00424941
0.00435663
0.00352126
0.0034346
0.0032634
0.00301187
0.00268621
0.00229441
0.00184613
0.00135237
0.000825302
0.000277889
-0.000276392
-0.000823893
-0.00135113
-0.00184511
-0.00229367
-0.00268575
-0.00301169
-0.00326345
-0.00343482
-0.00352159
-0.0035216
-0.00343486
-0.00326351
-0.00301177
-0.00268586
-0.0022938
-0.00184526
-0.0013513
-0.000824079
-0.000276596
0.000277669
0.000825067
0.00135212
0.00184587
0.00229414
0.00268593
0.00301159
0.00326311
0.0034343
0.00352096
0.00284585
0.00277581
0.00263744
0.00243415
0.00217094
0.00185428
0.00149198
0.00109293
0.000666957
0.000224553
-0.000223394
-0.000665856
-0.00109193
-0.00149114
-0.00185362
-0.00217047
-0.00243386
-0.0026373
-0.00277579
-0.0028459
-0.00284591
-0.00277582
-0.00263735
-0.00243393
-0.00217056
-0.00185374
-0.00149127
-0.00109208
-0.000666023
-0.000223577
0.000224356
0.000666746
0.0010927
0.00149174
0.00185404
0.00217069
0.00243389
0.00263717
0.00277554
0.00284558
0.00229998
0.00224337
0.00213154
0.00196724
0.00175451
0.00149859
0.00120577
0.000883267
0.000539008
0.000181471
-0.000180542
-0.000538117
-0.000882449
-0.00120506
-0.00149799
-0.00175404
-0.00196688
-0.00213129
-0.0022432
-0.00229986
-0.00229987
-0.00224323
-0.00213134
-0.00196695
-0.00175412
-0.00149809
-0.00120517
-0.000882584
-0.000538268
-0.000180707
0.000181293
0.000538818
0.000883066
0.00120556
0.00149837
0.00175428
0.00196701
0.0021313
0.00224313
0.00229974
0.00185882
0.00181307
0.00172268
0.00158989
0.00141797
0.00121113
0.000974483
0.000713838
0.000435617
0.000146667
-0.000145898
-0.000434873
-0.000713142
-0.000973853
-0.00121058
-0.0014175
-0.00158951
-0.00172237
-0.0018128
-0.00185859
-0.0018586
-0.00181283
-0.00172241
-0.00158957
-0.00141758
-0.00121067
-0.00097396
-0.000713264
-0.000435008
-0.000146046
0.000146507
0.000435445
0.000713657
0.000974292
0.00121094
0.00141776
0.00158968
0.00172247
0.00181285
0.0018586
0.00150228
0.0014653
0.00139225
0.00128493
0.00114598
0.000978823
0.000787565
0.000576918
0.000352067
0.000118548
-0.000117891
-0.000351428
-0.00057631
-0.000787002
-0.000978312
-0.00114553
-0.00128453
-0.0013919
-0.00146498
-0.00150199
-0.00150199
-0.00146501
-0.00139194
-0.00128459
-0.0011456
-0.000978394
-0.000787098
-0.00057642
-0.000351549
-0.000118025
0.000118403
0.000351913
0.000576755
0.000787394
0.000978645
0.0011458
0.00128474
0.00139206
0.00146511
0.00150208
0.00121413
0.00118424
0.00112521
0.00103847
0.000926175
0.000791078
0.000636508
0.000466268
0.00028455
9.58279e-05
-9.52527e-05
-0.000283986
-0.000465726
-0.000635995
-0.0007906
-0.000925735
-0.00103807
-0.00112484
-0.0011839
-0.0012138
-0.00121381
-0.00118392
-0.00112487
-0.00103812
-0.000925796
-0.000790675
-0.000636082
-0.000465824
-0.000284096
-9.5373e-05
9.56977e-05
0.000284411
0.000466121
0.000636353
0.000790918
0.000926009
0.0010383
0.00112503
0.00118407
0.00121395
0.000981252
0.000957099
0.000909386
0.000839289
0.000748532
0.00063935
0.000514429
0.000376847
0.000229988
7.74692e-05
-7.69546e-05
-0.000229481
-0.000376354
-0.000513957
-0.000638901
-0.000748109
-0.00083889
-0.00090901
-0.000956741
-0.000980908
-0.000980914
-0.00095676
-0.000909042
-0.000838934
-0.000748164
-0.000638968
-0.000514035
-0.000376443
-0.00022958
-7.7063e-05
7.73519e-05
0.000229863
0.000376714
0.00051429
0.000639205
0.000748382
0.000839135
0.00090923
0.000956941
0.000981093
0.000793045
0.000773526
0.000734965
0.000678314
0.000604966
0.000516728
0.000415771
0.00030458
0.000185894
6.26336e-05
-6.21655e-05
-0.000185431
-0.000304127
-0.000415331
-0.000516304
-0.00060456
-0.000677925
-0.000734593
-0.000773166
-0.000792696
-0.000792702
-0.000773183
-0.000734621
-0.000677965
-0.00060461
-0.000516365
-0.000415401
-0.000304207
-0.00018552
-6.22633e-05
6.2528e-05
0.000185781
0.000304461
0.000415645
0.000516597
0.000604831
0.000678176
0.000734824
0.000773383
0.000792902
0.000640941
0.000625166
0.000594002
0.000548218
0.00048894
0.000417628
0.000336038
0.000246177
0.000150259
5.06445e-05
-5.02133e-05
-0.000149831
-0.000245756
-0.000335626
-0.000417228
-0.000488552
-0.000547842
-0.000593638
-0.000624811
-0.000640595
-0.0006406
-0.000624827
-0.000593663
-0.000547878
-0.000488597
-0.000417282
-0.00033569
-0.000245828
-0.000149912
-5.03014e-05
5.05493e-05
0.000150157
0.000246069
0.000335925
0.000417511
0.000488819
0.000548094
0.000593875
0.000625038
0.000640812
0.000518015
0.000505265
0.00048008
0.000443078
0.000395171
0.000337539
0.0002716
0.000198978
0.00012146
4.09552e-05
-4.05542e-05
-0.000121061
-0.000198584
-0.000271213
-0.00033716
-0.000394801
-0.000442716
-0.000479726
-0.000504919
-0.000517675
-0.00051768
-0.000504933
-0.000479749
-0.000442748
-0.000394841
-0.000337209
-0.00027127
-0.000198649
-0.000121134
-4.06336e-05
4.08694e-05
0.000121368
0.000198881
0.000271498
0.000337433
0.000395062
0.000442966
0.000479965
0.00050515
0.000517898
0.000418668
0.000408364
0.00038801
0.000358106
0.00031939
0.000272813
0.000219523
0.000160832
9.81851e-05
3.31241e-05
-3.27486e-05
-9.78113e-05
-0.000160462
-0.000219157
-0.000272453
-0.000319036
-0.000357759
-0.000387669
-0.000408029
-0.000418338
-0.000418342
-0.000408042
-0.00038769
-0.000357788
-0.000319072
-0.000272497
-0.000219209
-0.00016052
-9.78766e-05
-3.28202e-05
3.30467e-05
9.81023e-05
0.000160745
0.000219431
0.000272718
0.000319291
0.000358005
0.000387907
0.00040826
0.000418563
0.000338378
0.000330051
0.000313601
0.000289434
0.000258144
0.000220503
0.000177436
0.000130004
7.93745e-05
2.67946e-05
-2.64413e-05
-7.90224e-05
-0.000129654
-0.000177089
-0.000220161
-0.000257807
-0.000289102
-0.000313274
-0.000329728
-0.00033806
-0.000338064
-0.000329739
-0.000313292
-0.000289128
-0.00025784
-0.000220201
-0.000177136
-0.000129707
-7.90813e-05
-2.65059e-05
2.67248e-05
7.92998e-05
0.000129925
0.000177353
0.000220417
0.000258056
0.000289343
0.000313508
0.000329957
0.000338284
0.00027349
0.00026676
0.000253466
0.000233935
0.000208647
0.000178227
0.000143421
0.000105088
6.41715e-05
2.16784e-05
-2.13448e-05
-6.38389e-05
-0.000104757
-0.000143093
-0.000177901
-0.000208326
-0.000233617
-0.000253152
-0.00026645
-0.000273183
-0.000273187
-0.00026646
-0.000253169
-0.00023364
-0.000208355
-0.000177937
-0.000143135
-0.000104805
-6.3892e-05
-2.14031e-05
2.16154e-05
6.41042e-05
0.000105017
0.000143347
0.000178149
0.000208567
0.000233852
0.000253382
0.000266675
0.000273404
0.000221048
0.000215609
0.000204865
0.000189081
0.000168644
0.000144059
0.000115931
8.49516e-05
5.18841e-05
1.75427e-05
-1.72271e-05
-5.15692e-05
-8.4638e-05
-0.000115619
-0.00014375
-0.000168338
-0.000188777
-0.000204565
-0.000215312
-0.000220754
-0.000220757
-0.000215321
-0.00020458
-0.000188798
-0.000168365
-0.000143783
-0.000115657
-8.4681e-05
-5.16171e-05
-1.72796e-05
1.74859e-05
5.18234e-05
8.48874e-05
0.000115864
0.000143989
0.000168572
0.000189007
0.00020479
0.000215533
0.000220971
0.000178665
0.00017427
0.000165587
0.00015283
0.000136314
0.000116446
9.37133e-05
6.86769e-05
4.19529e-05
1.41994e-05
-1.39002e-05
-4.16543e-05
-6.83792e-05
-9.34172e-05
-0.000116152
-0.000136023
-0.000152541
-0.0001653
-0.000173986
-0.000178384
-0.000178387
-0.000173994
-0.000165314
-0.00015256
-0.000136047
-0.000116181
-9.34514e-05
-6.84181e-05
-4.16975e-05
-1.39477e-05
1.41482e-05
4.18982e-05
6.86189e-05
9.36525e-05
0.000116383
0.000136249
0.000152764
0.000165519
0.000174201
0.000178596
0.000144412
0.00014086
0.000133843
0.000123533
0.000110186
9.41283e-05
7.57568e-05
5.55232e-05
3.39259e-05
1.14965e-05
-1.12126e-05
-3.36424e-05
-5.52406e-05
-7.54754e-05
-9.38485e-05
-0.000109908
-0.000123257
-0.000133569
-0.000140588
-0.000144143
-0.000144146
-0.000140596
-0.000133581
-0.000123274
-0.000109929
-9.3875e-05
-7.55062e-05
-5.52757e-05
-3.36815e-05
-1.12554e-05
1.14503e-05
3.38765e-05
5.54709e-05
7.57019e-05
9.40713e-05
0.000110127
0.000123473
0.000133781
0.000140798
0.00014435
0.000116729
0.000113858
0.000108187
9.98552e-05
8.90681e-05
7.60912e-05
6.1244e-05
4.48919e-05
2.74377e-05
9.3111e-06
-9.04163e-06
-2.71686e-05
-4.46235e-05
-6.09765e-05
-7.58251e-05
-8.88035e-05
-9.95923e-05
-0.000107926
-0.000113599
-0.000116472
-0.000116474
-0.000113606
-0.000107937
-9.96078e-05
-8.88233e-05
-7.58489e-05
-6.10044e-05
-4.46551e-05
-2.72038e-05
-9.08025e-06
9.26936e-06
2.73931e-05
4.48447e-05
6.11945e-05
7.60398e-05
8.9015e-05
9.98008e-05
0.000108131
0.000113802
0.000116672
9.43551e-05
9.2035e-05
8.74518e-05
8.07185e-05
7.20007e-05
6.15133e-05
4.95142e-05
3.62991e-05
2.21932e-05
7.54394e-06
-7.2881e-06
-2.19377e-05
-3.60441e-05
-4.92601e-05
-6.12602e-05
-7.1749e-05
-8.04682e-05
-8.72033e-05
-9.17882e-05
-9.41103e-05
-9.41123e-05
-9.17943e-05
-8.72133e-05
-8.04822e-05
-7.17668e-05
-6.12818e-05
-4.92852e-05
-3.60727e-05
-2.19695e-05
-7.32295e-06
7.50626e-06
2.2153e-05
3.62565e-05
4.94696e-05
6.14668e-05
7.19528e-05
8.06694e-05
8.74019e-05
9.19844e-05
9.43042e-05
7.62725e-05
7.43975e-05
7.06935e-05
6.52519e-05
5.82065e-05
4.97309e-05
4.00337e-05
2.93537e-05
1.79538e-05
6.11481e-06
-5.87192e-06
-1.77112e-05
-2.91116e-05
-3.97923e-05
-4.94904e-05
-5.79671e-05
-6.50138e-05
-7.04569e-05
-7.41625e-05
-7.60393e-05
-7.60411e-05
-7.4168e-05
-7.0466e-05
-6.50265e-05
-5.79832e-05
-4.95099e-05
-3.9815e-05
-2.91374e-05
-1.77399e-05
-5.90339e-06
6.08079e-06