/*--------------------------------*- C++ -*----------------------------------*\
| =========                 |                                                 |
| \\      /  F ield         | OpenFOAM: The Open Source CFD Toolbox           |
|  \\    /   O peration     | Version:  v2106                                 |
|   \\  /    A nd           | Website:  www.openfoam.com                      |
|    \\/     M anipulation  |                                                 |
\*---------------------------------------------------------------------------*/
FoamFile
{
    version     2.0;
    format      ascii;
    arch        "LSB;label=32;scalar=64";
    class       volVectorField;
    location    "0";
    object      U;
}
// * * * * * * * * * * * * * * * * * * * * * * * * * * * * * * * * * * * * * //

dimensions      [0 1 -1 0 0 0 0];

internalField   nonuniform List<vector> 
11644
(
(1.00124 -0.000922903 0)
(1.00123 -0.00276502 0)
(1.00122 -0.00459519 0)
(1.0012 -0.0064028 0)
(1.00117 -0.00817332 0)
(1.00113 -0.00988654 0)
(1.00106 -0.011515 0)
(1.00096 -0.0130225 0)
(1.00084 -0.0143628 0)
(1.00066 -0.0154793 0)
(1.00045 -0.0163058 0)
(1.00018 -0.0167683 0)
(0.999855 -0.0167905 0)
(0.999488 -0.0163003 0)
(0.99909 -0.0152406 0)
(0.998682 -0.0135804 0)
(0.998293 -0.011327 0)
(0.997958 -0.00853499 0)
(0.997711 -0.00530966 0)
(0.997579 -0.00180252 5.59772e-28)
(0.997579 0.00180244 -5.59772e-28)
(0.997711 0.00530958 0)
(0.997958 0.00853492 0)
(0.998293 0.011327 0)
(0.998682 0.0135803 0)
(0.99909 0.0152405 0)
(0.999488 0.0163003 0)
(0.999855 0.0167904 0)
(1.00018 0.0167683 0)
(1.00045 0.0163058 0)
(1.00066 0.0154793 0)
(1.00084 0.0143628 0)
(1.00096 0.0130225 0)
(1.00106 0.011515 0)
(1.00113 0.00988654 0)
(1.00117 0.00817332 0)
(1.0012 0.00640281 0)
(1.00122 0.00459519 0)
(1.00123 0.00276502 0)
(1.00124 0.000922904 0)
(1.0038 -0.00094372 0)
(1.00378 -0.00282892 0)
(1.00375 -0.00470642 0)
(1.0037 -0.00656838 0)
(1.00362 -0.00840309 0)
(1.00348 -0.0101931 0)
(1.00329 -0.0119133 0)
(1.00301 -0.0135292 0)
(1.00263 -0.0149947 0)
(1.00212 -0.0162512 0)
(1.00146 -0.0172269 0)
(1.00063 -0.0178384 0)
(0.999641 -0.0179942 0)
(0.998495 -0.017603 0)
(0.997237 -0.0165847 0)
(0.995934 -0.0148861 0)
(0.994682 -0.0124977 0)
(0.993594 -0.0094681 0)
(0.992786 -0.00591291 0)
(0.992354 -0.00201136 -2.27615e-27)
(0.992354 0.00201127 2.27615e-27)
(0.992786 0.00591283 0)
(0.993594 0.00946802 0)
(0.994682 0.0124976 0)
(0.995934 0.0148861 0)
(0.997237 0.0165846 0)
(0.998495 0.017603 0)
(0.999641 0.0179942 0)
(1.00063 0.0178384 0)
(1.00146 0.0172269 0)
(1.00212 0.0162512 0)
(1.00263 0.0149947 0)
(1.00301 0.0135292 0)
(1.00329 0.0119133 0)
(1.00348 0.0101931 0)
(1.00362 0.0084031 0)
(1.0037 0.00656838 0)
(1.00375 0.00470642 0)
(1.00378 0.00282892 0)
(1.0038 0.000943721 0)
(1.00638 -0.000955016 0)
(1.00636 -0.00286566 0)
(1.00632 -0.00477726 0)
(1.00626 -0.00668803 0)
(1.00614 -0.00859259 0)
(1.00596 -0.01048 0)
(1.00567 -0.0123314 0)
(1.00525 -0.0141177 0)
(1.00466 -0.0157965 0)
(1.00385 -0.0173085 0)
(1.00278 -0.0185754 0)
(1.0014 -0.0194975 0)
(0.999709 -0.0199557 0)
(0.99771 -0.0198184 0)
(0.995467 -0.0189558 0)
(0.993096 -0.017262 0)
(0.990771 -0.0146825 0)
(0.988715 -0.0112439 0)
(0.987169 -0.00707639 0)
(0.986336 -0.00241685 -4.63672e-27)
(0.986336 0.00241676 4.63672e-27)
(0.987169 0.00707629 0)
(0.988715 0.0112439 0)
(0.990771 0.0146824 0)
(0.993096 0.0172619 0)
(0.995467 0.0189558 0)
(0.99771 0.0198184 0)
(0.999709 0.0199557 0)
(1.0014 0.0194974 0)
(1.00278 0.0185754 0)
(1.00385 0.0173085 0)
(1.00466 0.0157965 0)
(1.00525 0.0141177 0)
(1.00567 0.0123314 0)
(1.00596 0.01048 0)
(1.00614 0.0085926 0)
(1.00626 0.00668804 0)
(1.00632 0.00477726 0)
(1.00636 0.00286566 0)
(1.00638 0.000955017 0)
(1.00899 -0.000965209 0)
(1.00898 -0.00290036 0)
(1.00895 -0.00484906 0)
(1.0089 -0.00681848 0)
(1.0088 -0.00881298 0)
(1.00861 -0.0108322 0)
(1.0083 -0.0128684 0)
(1.00782 -0.0149037 0)
(1.0071 -0.0169048 0)
(1.00607 -0.0188175 0)
(1.00465 -0.0205593 0)
(1.00276 -0.0220122 0)
(1.00034 -0.0230164 0)
(0.997379 -0.0233732 0)
(0.993935 -0.0228627 0)
(0.990168 -0.0212746 0)
(0.98636 -0.0184559 0)
(0.982892 -0.0143684 0)
(0.980226 -0.00915018 0)
(0.97877 -0.0031445 0)
(0.97877 0.00314438 0)
(0.980226 0.00915007 0)
(0.982892 0.0143683 0)
(0.98636 0.0184559 0)
(0.990168 0.0212745 0)
(0.993934 0.0228627 0)
(0.997379 0.0233732 0)
(1.00034 0.0230164 0)
(1.00276 0.0220122 0)
(1.00465 0.0205593 0)
(1.00607 0.0188175 0)
(1.0071 0.0169048 0)
(1.00782 0.0149037 0)
(1.0083 0.0128684 0)
(1.00861 0.0108322 0)
(1.0088 0.00881299 0)
(1.0089 0.00681849 0)
(1.00896 0.00484907 0)
(1.00898 0.00290037 0)
(1.00899 0.00096521 0)
(1.01162 -0.000966765 0)
(1.01163 -0.00291009 0)
(1.01164 -0.00488249 0)
(1.01164 -0.00690259 0)
(1.01161 -0.00898776 0)
(1.01149 -0.0111527 0)
(1.01126 -0.0134073 0)
(1.01082 -0.015753 0)
(1.01011 -0.0181766 0)
(1.00901 -0.0206421 0)
(1.00739 -0.0230774 0)
(1.0051 -0.0253559 0)
(1.00198 -0.0272737 0)
(0.997938 -0.0285318 0)
(0.993 -0.0287624 0)
(0.987319 -0.0275638 0)
(0.981317 -0.0245775 0)
(0.975585 -0.0195859 0)
(0.971041 -0.0126824 0)
(0.968507 -0.00439677 -9.96271e-27)
(0.968507 0.00439661 9.96271e-27)
(0.971041 0.0126822 0)
(0.975585 0.0195857 0)
(0.981317 0.0245774 0)
(0.987319 0.0275637 0)
(0.993 0.0287624 0)
(0.997938 0.0285317 0)
(1.00198 0.0272737 0)
(1.0051 0.0253559 0)
(1.00739 0.0230774 0)
(1.00901 0.0206422 0)
(1.01011 0.0181766 0)
(1.01082 0.015753 0)
(1.01126 0.0134074 0)
(1.01149 0.0111527 0)
(1.01161 0.00898777 0)
(1.01164 0.0069026 0)
(1.01164 0.0048825 0)
(1.01163 0.0029101 0)
(1.01162 0.000966766 0)
(1.01422 -0.000950323 0)
(1.01427 -0.00286615 0)
(1.01435 -0.00482769 0)
(1.01445 -0.00686638 0)
(1.01455 -0.00901504 0)
(1.01461 -0.0113076 0)
(1.01457 -0.0137781 0)
(1.01435 -0.0164579 0)
(1.01385 -0.0193708 0)
(1.01292 -0.0225226 0)
(1.01137 -0.0258848 0)
(1.00895 -0.0293647 0)
(1.00534 -0.0327504 0)
(1.00015 -0.0355894 0)
(0.993438 -0.037304 0)
(0.985072 -0.0371577 0)
(0.975721 -0.0344244 0)
(0.966273 -0.0283375 0)
(0.95845 -0.01877 0)
(0.953943 -0.00658816 -2.1189e-26)
(0.953943 0.00658794 2.1189e-26)
(0.95845 0.0187698 0)
(0.966273 0.0283373 0)
(0.975721 0.0344243 0)
(0.985072 0.0371576 0)
(0.993438 0.037304 0)
(1.00015 0.0355894 0)
(1.00534 0.0327504 0)
(1.00895 0.0293648 0)
(1.01137 0.0258848 0)
(1.01292 0.0225227 0)
(1.01385 0.0193709 0)
(1.01435 0.016458 0)
(1.01457 0.0137781 0)
(1.01461 0.0113076 0)
(1.01455 0.00901505 0)
(1.01445 0.00686639 0)
(1.01435 0.0048277 0)
(1.01427 0.00286615 0)
(1.01422 0.000950325 0)
(1.01675 -0.000905934 0)
(1.01684 -0.00273774 0)
(1.01702 -0.0046302 0)
(1.01727 -0.00662688 0)
(1.01758 -0.00877629 0)
(1.0179 -0.0111335 0)
(1.0182 -0.0137617 0)
(1.01839 -0.0167322 0)
(1.01837 -0.0201234 0)
(1.01797 -0.0240146 0)
(1.01695 -0.0284749 0)
(1.01499 -0.0335464 0)
(1.01165 -0.0392489 0)
(1.00517 -0.0447138 0)
(0.996768 -0.0492696 0)
(0.985007 -0.0524224 0)
(0.978436 -0.0444871 0)
(0.964445 -0.0425048 0)
(0.950522 -0.0312352 0)
(0.940299 -0.0145331 -2.9259e-21)
(0.936742 0.00506996 0)
(0.940771 0.0236249 2.67491e-20)
(0.950735 0.037712 0)
(0.963439 0.0460788 0)
(0.985006 0.0524224 0)
(0.996768 0.0492697 0)
(1.00517 0.0447138 0)
(1.01165 0.0392489 0)
(1.01499 0.0335465 0)
(1.01695 0.028475 0)
(1.01797 0.0240146 0)
(1.01837 0.0201235 0)
(1.01839 0.0167323 0)
(1.0182 0.0137617 0)
(1.0179 0.0111335 0)
(1.01758 0.00877631 0)
(1.01727 0.00662689 0)
(1.01702 0.00463021 0)
(1.01684 0.00273775 0)
(1.01675 0.000905935 0)
(1.0191 -0.000824784 0)
(1.01925 -0.00249726 0)
(1.01955 -0.00423993 0)
(1.01999 -0.00610499 0)
(1.02057 -0.00815331 0)
(1.02126 -0.0104586 0)
(1.02203 -0.0131123 0)
(1.02284 -0.016229 0)
(1.0236 -0.0199518 0)
(1.02415 -0.0244544 0)
(1.02428 -0.0299346 0)
(1.02359 -0.0365772 0)
(1.02148 -0.0443167 0)
(1.01882 -0.0542091 0)
(1.01141 -0.0588533 0)
(0.998792 -0.067252 0)
(0.974174 -0.0710706 0)
(0.949597 -0.0677641 0)
(0.924097 -0.0530809 0)
(0.905134 -0.0257935 3.22014e-21)
(0.900807 0.00882711 0)
(0.913242 0.0408491 -3.22022e-21)
(0.936608 0.0620608 0)
(0.962314 0.0705241 0)
(0.977255 0.0703308 0)
(0.993544 0.0631189 0)
(1.00447 0.0542101 0)
(1.02148 0.0443169 0)
(1.02359 0.0365773 0)
(1.02428 0.0299347 0)
(1.02415 0.0244545 0)
(1.0236 0.0199518 0)
(1.02284 0.0162291 0)
(1.02203 0.0131123 0)
(1.02126 0.0104586 0)
(1.02057 0.00815333 0)
(1.01999 0.006105 0)
(1.01955 0.00423994 0)
(1.01925 0.00249726 0)
(1.0191 0.000824786 0)
(1.02118 -0.000701373 0)
(1.02139 -0.00212702 0)
(1.02182 -0.0036233 0)
(1.02247 -0.00524421 0)
(1.02334 -0.0070552 0)
(1.02445 -0.00913953 0)
(1.0258 -0.0116069 0)
(1.02739 -0.0146056 0)
(1.02919 -0.0183388 0)
(1.03114 -0.0230879 0)
(1.03311 -0.0292439 0)
(1.0348 -0.0373476 0)
(1.03564 -0.0473808 0)
(1.0292 -0.0644596 0)
(1.02318 -0.0728245 0)
(1.00857 -0.0906949 0)
(0.994864 -0.101584 0)
(0.958252 -0.109543 0)
(0.909107 -0.0977031 6.87543e-21)
(0.862175 -0.0559814 0)
(0.841747 0.00872514 -3.7191e-21)
(0.859854 0.0695413 0)
(0.902635 0.103303 -5.39331e-20)
(0.947359 0.108829 0)
(0.981195 0.0978265 0)
(1.01791 0.081951 0)
(1.02683 0.0645871 0)
(1.03564 0.047381 0)
(1.0348 0.0373478 0)
(1.03311 0.0292441 0)
(1.03114 0.023088 0)
(1.02919 0.0183389 0)
(1.02739 0.0146057 0)
(1.0258 0.011607 0)
(1.02445 0.00913956 0)
(1.02334 0.00705522 0)
(1.02247 0.00524422 0)
(1.02182 0.00362331 0)
(1.02139 0.00212703 0)
(1.02118 0.000701375 0)
(1.02286 -0.000535684 0)
(1.02313 -0.00162621 0)
(1.02368 -0.00277611 0)
(1.02452 -0.00403187 0)
(1.02568 -0.00545158 0)
(1.0272 -0.00711205 0)
(1.02914 -0.00911928 0)
(1.03154 -0.0116243 0)
(1.0345 -0.0148481 0)
(1.0381 -0.0191218 0)
(1.04245 -0.0249523 0)
(1.0476 -0.0331297 0)
(1.05354 -0.043947 0)
(1.05178 -0.0696876 0)
(1.05333 -0.0811058 0)
(1.04246 -0.118227 0)
(1.01904 -0.147375 0)
(0.968734 -0.181548 0)
(0.875433 -0.196945 5.87743e-20)
(0.759213 -0.137145 0)
(0.705937 0.0103663 1.04037e-19)
(0.77254 0.150174 1.27387e-19)
(0.889371 0.198011 -5.65085e-20)
(0.977165 0.177071 0)
(1.02849 0.135989 0)
(1.05204 0.0953156 0)
(1.053 0.0684936 0)
(1.05354 0.0439473 0)
(1.0476 0.0331299 0)
(1.04245 0.0249525 0)
(1.0381 0.0191219 0)
(1.0345 0.0148482 0)
(1.03154 0.0116244 0)
(1.02914 0.00911932 0)
(1.0272 0.00711208 0)
(1.02568 0.0054516 0)
(1.02452 0.00403189 0)
(1.02368 0.00277612 0)
(1.02313 0.00162621 0)
(1.02286 0.000535686 0)
(1.02404 -0.000334618 0)
(1.02435 -0.00101558 0)
(1.02499 -0.00173305 0)
(1.02598 -0.00251622 0)
(1.02736 -0.00340255 0)
(1.0292 -0.0044431 0)
(1.03159 -0.00571077 0)
(1.03467 -0.00731342 0)
(1.03861 -0.00941577 0)
(1.04369 -0.0122774 0)
(1.05029 -0.0163204 0)
(1.05896 -0.0222564 0)
(1.07055 -0.0305019 0)
(1.07783 -0.0622522 0)
(1.09415 -0.0706602 0)
(1.10295 -0.1307 0)
(1.10513 -0.194888 9.144e-21)
(1.0786 -0.28598 -4.85844e-20)
(0.932577 -0.429697 -4.12363e-19)
(0.557984 -0.445916 -8.90796e-18)
(0.263563 0.0190748 0)
(0.586757 0.456964 -2.1443e-18)
(0.908749 0.42149 4.24381e-19)
(1.08589 0.268567 2.2707e-20)
(1.11203 0.155526 -2.35973e-21)
(1.10384 0.0873607 0)
(1.08544 0.0567486 0)
(1.07055 0.0305022 0)
(1.05896 0.0222566 0)
(1.05029 0.0163205 0)
(1.04369 0.0122774 0)
(1.03861 0.00941582 0)
(1.03467 0.00731345 0)
(1.03159 0.00571079 0)
(1.0292 0.00444312 0)
(1.02736 0.00340256 0)
(1.02598 0.00251623 0)
(1.02499 0.00173306 0)
(1.02435 0.00101558 0)
(1.02404 0.000334619 0)
(1.02465 -0.000111887 0)
(1.02498 -0.000337378 0)
(1.02566 -0.000568343 0)
(1.02671 -0.0008096 0)
(1.02819 -0.00106798 0)
(1.03018 -0.00135363 0)
(1.03279 -0.00168201 0)
(1.03619 -0.0020772 0)
(1.04063 -0.00257744 0)
(1.04648 -0.00324498 0)
(1.05429 -0.00418429 0)
(1.06495 -0.0055793 0)
(1.0799 -0.00754111 0)
(1.09666 -0.0372628 0)
(1.12726 -0.0300351 0)
(1.16674 -0.0913256 0)
(1.23214 -0.160171 6.83868e-21)
(1.34336 -0.305528 -1.16025e-19)
(1.51734 -0.682611 6.51603e-18)
(1.50554 0.638453 -1.32151e-18)
(1.33668 0.22281 -7.83661e-21)
(1.22024 0.0928315 0)
(1.14899 0.0384143 0)
(1.1102 0.0231483 0)
(1.0799 0.0075412 0)
(1.06495 0.00557936 0)
(1.05429 0.00418433 0)
(1.04648 0.00324501 0)
(1.04063 0.00257746 0)
(1.03619 0.00207721 0)
(1.03279 0.00168201 0)
(1.03018 0.00135363 0)
(1.02819 0.00106799 0)
(1.02671 0.000809603 0)
(1.02566 0.000568345 0)
(1.02498 0.000337379 0)
(1.02465 0.000111887 0)
(1.02465 0.000114031 0)
(1.02497 0.00035101 0)
(1.02562 0.000615548 0)
(1.02664 0.00092892 0)
(1.02808 0.00131738 0)
(1.03 0.00181548 0)
(1.03252 0.00247131 0)
(1.0358 0.00335498 0)
(1.04006 0.00457323 0)
(1.04563 0.00629529 0)
(1.05303 0.0088006 0)
(1.06301 0.012568 0)
(1.07683 0.0179202 0)
(1.09677 -0.00131401 0)
(1.12778 0.0275811 0)
(1.17703 -0.00037126 0)
(1.26632 0.00286108 0)
(1.45582 0.109488 -2.14281e-20)
(1.02521 0.152643 1.8754e-18)
(1.69799 -0.321519 -4.20684e-19)
(1.43933 -0.0986039 0)
(1.23989 -0.0547874 0)
(1.14974 -0.0354001 0)
(1.11054 -0.0217996 0)
(1.07683 -0.0179203 0)
(1.06301 -0.0125681 0)
(1.05303 -0.00880065 0)
(1.04563 -0.00629532 0)
(1.04006 -0.00457325 0)
(1.0358 -0.00335499 0)
(1.03252 -0.00247132 0)
(1.03 -0.00181549 0)
(1.02808 -0.00131738 0)
(1.02664 -0.000928923 0)
(1.02562 -0.00061555 0)
(1.02497 -0.000351011 0)
(1.02465 -0.000114032 0)
(1.02405 0.000323491 0)
(1.02434 0.000988495 0)
(1.02491 0.00170922 0)
(1.02581 0.00252875 0)
(1.02706 0.00350024 0)
(1.02872 0.00469335 0)
(1.03086 0.00620398 0)
(1.03359 0.0081696 0)
(1.03705 0.0107942 0)
(1.04142 0.0143908 0)
(1.04696 0.0194543 0)
(1.05399 0.0267916 0)
(1.06293 0.0368075 0)
(1.07804 0.0298397 0)
(1.09518 0.0689026 0)
(1.12204 0.0754411 0)
(1.15597 0.133982 0)
(1.17418 0.308646 1.25218e-22)
(1.09019 0.596506 0)
(1.10506 -0.572555 4.16034e-19)
(1.17467 -0.284231 0)
(1.14305 -0.148288 0)
(1.10526 -0.0854407 0)
(1.08614 -0.0555313 0)
(1.06293 -0.0368078 0)
(1.05399 -0.0267917 0)
(1.04696 -0.0194544 0)
(1.04142 -0.0143909 0)
(1.03705 -0.0107943 0)
(1.03359 -0.00816963 0)
(1.03086 -0.00620401 0)
(1.02872 -0.00469336 0)
(1.02706 -0.00350025 0)
(1.02581 -0.00252876 0)
(1.02491 -0.00170923 0)
(1.02434 -0.000988498 0)
(1.02405 -0.000323492 0)
(1.02293 0.000499665 0)
(1.02316 0.00152297 0)
(1.02362 0.00262018 0)
(1.02432 0.0038476 0)
(1.02529 0.0052733 0)
(1.02654 0.00698407 0)
(1.02811 0.00909532 0)
(1.03003 0.0117655 0)
(1.03234 0.0152179 0)
(1.03504 0.0197732 0)
(1.03811 0.0259007 0)
(1.04143 0.0342989 0)
(1.04462 0.0451176 0)
(1.05193 0.0461711 0)
(1.0541 0.0799132 0)
(1.05636 0.0977603 0)
(1.04569 0.147852 0)
(0.995348 0.222373 -4.46844e-21)
(0.874026 0.271894 -6.21336e-21)
(0.686724 0.212964 -2.122e-20)
(0.576337 -0.00878901 -1.9782e-20)
(0.709764 -0.230354 -3.09118e-19)
(0.893975 -0.269143 -1.16931e-19)
(1.00478 -0.213972 4.46861e-21)
(1.04623 -0.144292 0)
(1.05302 -0.0942562 0)
(1.05353 -0.0672951 0)
(1.04462 -0.0451178 0)
(1.04143 -0.0342991 0)
(1.03811 -0.0259008 0)
(1.03504 -0.0197733 0)
(1.03234 -0.0152179 0)
(1.03003 -0.0117656 0)
(1.02811 -0.00909536 0)
(1.02654 -0.0069841 0)
(1.02529 -0.00527332 0)
(1.02432 -0.00384761 0)
(1.02362 -0.00262019 0)
(1.02316 -0.00152298 0)
(1.02293 -0.000499667 0)
(1.0214 0.000631551 0)
(1.02155 0.0019208 0)
(1.02187 0.00329025 0)
(1.02235 0.00479966 0)
(1.02299 0.00651901 0)
(1.02378 0.00853392 0)
(1.02472 0.0109525 0)
(1.02577 0.0139141 0)
(1.02689 0.0176 0)
(1.02797 0.0222448 0)
(1.02882 0.0281435 0)
(1.02909 0.0356395 0)
(1.02821 0.044767 0)
(1.02902 0.049239 0)
(1.02354 0.0718028 0)
(1.0086 0.0902316 0)
(0.990343 0.112067 0)
(0.947911 0.126186 0)
(0.888845 0.117524 2.85202e-21)
(0.831826 0.0696576 -1.43137e-20)
(0.811614 -0.0106824 0)
(0.844025 -0.0855759 0)
(0.904555 -0.122889 -4.97371e-20)
(0.960313 -0.124035 0)
(0.998401 -0.106773 0)
(1.0182 -0.0810436 0)
(1.02711 -0.0633561 0)
(1.02821 -0.0447672 0)
(1.02909 -0.0356396 0)
(1.02882 -0.0281436 0)
(1.02797 -0.0222449 0)
(1.02689 -0.0176001 0)
(1.02577 -0.0139142 0)
(1.02472 -0.0109525 0)
(1.02378 -0.00853395 0)
(1.02299 -0.00651903 0)
(1.02235 -0.00479967 0)
(1.02187 -0.00329026 0)
(1.02155 -0.00192081 0)
(1.0214 -0.000631553 0)
(1.01956 0.000715137 0)
(1.01965 0.00217031 0)
(1.01983 0.00370137 0)
(1.02008 0.00536328 0)
(1.02039 0.00721788 0)
(1.02075 0.00933684 0)
(1.0211 0.0118048 0)
(1.02139 0.0147222 0)
(1.02152 0.0182072 0)
(1.02133 0.022395 0)
(1.02058 0.027432 0)
(1.01892 0.0334666 0)
(1.01583 0.0406313 0)
(1.00887 0.0476191 0)
(1.00532 0.0545315 0)
(0.991987 0.0656013 0)
(0.975475 0.0779448 0)
(0.949822 0.0736201 0)
(0.921385 0.0606637 0)
(0.898594 0.0328596 0)
(0.891291 -0.00489817 6.33827e-22)
(0.903181 -0.0410769 -2.00388e-20)
(0.928366 -0.0652986 0)
(0.956718 -0.0747097 0)
(0.982939 -0.0687276 0)
(0.999411 -0.0613001 0)
(1.00887 -0.0476193 0)
(1.01583 -0.0406314 0)
(1.01892 -0.0334667 0)
(1.02058 -0.0274321 0)
(1.02133 -0.022395 0)
(1.02152 -0.0182073 0)
(1.02139 -0.0147222 0)
(1.0211 -0.0118048 0)
(1.02075 -0.00933687 0)
(1.02039 -0.00721791 0)
(1.02008 -0.0053633 0)
(1.01983 -0.00370138 0)
(1.01965 -0.00217031 0)
(1.01956 -0.000715139 0)
(1.01757 0.000752745 0)
(1.01759 0.00227945 0)
(1.01764 0.00387036 0)
(1.01769 0.00557038 0)
(1.01773 0.00742761 0)
(1.01772 0.00949396 0)
(1.0176 0.0118252 0)
(1.01731 0.0144797 0)
(1.01673 0.0175138 0)
(1.01571 0.0209733 0)
(1.01404 0.0248754 0)
(1.01141 0.0291744 0)
(1.00742 0.0336949 0)
(1.00152 0.0377981 0)
(0.99644 0.0432762 0)
(0.986068 0.0465921 0)
(0.974442 0.0537573 0)
(0.959203 0.0451507 0)
(0.944508 0.0346634 0)
(0.933885 0.0178936 0)
(0.930657 -0.00262978 0)
(0.935954 -0.0225789 0)
(0.94795 -0.0379165 0)
(0.963075 -0.0467286 0)
(0.979846 -0.0471195 0)
(0.991611 -0.0452113 0)
(1.00152 -0.0377982 0)
(1.00742 -0.033695 0)
(1.01141 -0.0291745 0)
(1.01404 -0.0248755 0)
(1.01571 -0.0209734 0)
(1.01673 -0.0175138 0)
(1.01731 -0.0144797 0)
(1.0176 -0.0118253 0)
(1.01772 -0.00949399 0)
(1.01773 -0.00742763 0)
(1.01769 -0.00557039 0)
(1.01764 -0.00387037 0)
(1.01759 -0.00227946 0)
(1.01757 -0.000752747 0)
(1.01552 0.00075119 0)
(1.0155 0.00226986 0)
(1.01544 0.00383741 0)
(1.01534 0.0054866 0)
(1.01516 0.00725036 0)
(1.01488 0.00916085 0)
(1.01443 0.0112477 0)
(1.01376 0.0135346 0)
(1.01275 0.0160331 0)
(1.0113 0.0187325 0)
(1.00925 0.0215839 0)
(1.00641 0.024476 0)
(1.00257 0.027203 0)
(0.99755 0.029371 0)
(0.993054 0.0333895 0)
(0.985415 0.0332438 0)
(0.977463 0.0376457 0)
(0.968235 0.0291093 0)
(0.960058 0.0214042 0)
(0.954501 0.010743 0)
(0.952864 -0.00156612 0)
(0.955562 -0.013628 0)
(0.961919 -0.0236392 0)
(0.9705 -0.0305021 0)
(0.981202 -0.0327813 0)
(0.989379 -0.0331195 0)
(0.99755 -0.0293711 0)
(1.00257 -0.027203 0)
(1.00641 -0.0244761 0)
(1.00925 -0.0215839 0)
(1.0113 -0.0187325 0)
(1.01275 -0.0160331 0)
(1.01376 -0.0135347 0)
(1.01443 -0.0112477 0)
(1.01488 -0.00916088 0)
(1.01516 -0.00725038 0)
(1.01534 -0.00548661 0)
(1.01544 -0.00383742 0)
(1.0155 -0.00226987 0)
(1.01552 -0.000751192 0)
(1.01352 0.000719581 0)
(1.01346 0.00216991 0)
(1.01333 0.00365334 0)
(1.01311 0.00519085 0)
(1.01279 0.00680163 0)
(1.01233 0.00850141 0)
(1.01169 0.0103001 0)
(1.01081 0.0121981 0)
(1.00961 0.0141808 0)
(1.00802 0.0162108 0)
(1.00593 0.0182178 0)
(1.00326 0.0200865 0)
(0.999899 0.0216457 0)
(0.995818 0.0226657 0)
(0.992214 0.0256002 0)
(0.986735 0.0240241 0)
(0.981288 0.0269264 0)
(0.975499 0.0196028 0)
(0.970645 0.0140177 0)
(0.967475 0.00691286 0)
(0.966559 -0.00100272 0)
(0.968073 -0.00879812 0)
(0.971729 -0.0155765 0)
(0.976888 -0.0207102 0)
(0.983876 -0.0232737 0)
(0.989529 -0.0243903 0)
(0.995818 -0.0226657 0)
(0.999899 -0.0216457 0)
(1.00326 -0.0200865 0)
(1.00593 -0.0182178 0)
(1.00802 -0.0162108 0)
(1.00961 -0.0141808 0)
(1.01081 -0.0121981 0)
(1.01169 -0.0103001 0)
(1.01233 -0.00850143 0)
(1.01279 -0.00680164 0)
(1.01311 -0.00519086 0)
(1.01333 -0.00365334 0)
(1.01346 -0.00216991 0)
(1.01352 -0.000719583 0)
(1.01163 0.000667407 0)
(1.01155 0.00200876 0)
(1.01137 0.00336916 0)
(1.01109 0.00475956 0)
(1.01069 0.00618824 0)
(1.01013 0.00765899 0)
(1.00939 0.00916885 0)
(1.00843 0.0107051 0)
(1.0072 0.0122412 0)
(1.00564 0.013732 0)
(1.00371 0.0151083 0)
(1.00136 0.016271 0)
(0.998568 0.0170878 0)
(0.995356 0.0175275 0)
(0.992553 0.0197188 0)
(0.988635 0.0176048 0)
(0.98489 0.0197167 0)
(0.981035 0.0136813 0)
(0.978006 0.00960445 0)
(0.976089 0.00468195 0)
(0.975556 -0.000677581 -1.83882e-31)
(0.976485 -0.00597281 0)
(0.978741 -0.0107165 0)
(0.982016 -0.0145344 0)
(0.986627 -0.0169357 0)
(0.990672 -0.0181591 0)
(0.995356 -0.0175275 0)
(0.998568 -0.0170878 0)
(1.00136 -0.016271 0)
(1.00371 -0.0151083 0)
(1.00564 -0.013732 0)
(1.0072 -0.0122412 0)
(1.00843 -0.0107051 0)
(1.00939 -0.00916886 0)
(1.01013 -0.007659 0)
(1.01069 -0.00618825 0)
(1.01109 -0.00475957 0)
(1.01137 -0.00336916 0)
(1.01155 -0.00200877 0)
(1.01163 -0.000667409 0)
(1.00991 0.000603215 0)
(1.00981 0.00181244 0)
(1.00961 0.00302943 0)
(1.00929 0.00425747 0)
(1.00885 0.00549706 0)
(1.00827 0.00674424 0)
(1.00751 0.00798886 0)
(1.00656 0.00921241 0)
(1.00538 0.0103855 0)
(1.00396 0.0114655 0)
(1.00226 0.012394 0)
(1.00027 0.013096 0)
(0.998019 0.0134818 0)
(0.995534 0.0134563 0)
(0.992928 0.0131068 0)
(0.990391 0.0149035 0)
(0.9878 0.0114164 0)
(0.985439 0.00908052 0)
(0.983629 0.00611221 0)
(0.982556 0.00270333 0)
(0.982343 -0.000907905 3.51258e-32)
(0.983014 -0.00445061 0)
(0.984493 -0.00766532 0)
(0.986616 -0.0103416 0)
(0.989135 -0.0122941 0)
(0.992928 -0.0131068 0)
(0.995534 -0.0134562 0)
(0.998019 -0.0134818 0)
(1.00027 -0.0130961 0)
(1.00226 -0.012394 0)
(1.00396 -0.0114655 0)
(1.00538 -0.0103856 0)
(1.00656 -0.00921242 0)
(1.00751 -0.00798887 0)
(1.00827 -0.00674425 0)
(1.00885 -0.00549707 0)
(1.00929 -0.00425748 0)
(1.00961 -0.00302943 0)
(1.00981 -0.00181244 0)
(1.00991 -0.000603216 0)
(1.00836 0.000533928 0)
(1.00826 0.00160181 0)
(1.00805 0.0026692 0)
(1.00773 0.00373407 0)
(1.00729 0.00479185 0)
(1.00672 0.00583426 0)
(1.00599 0.00684793 0)
(1.0051 0.00781312 0)
(1.00404 0.00870237 0)
(1.00278 0.00947943 0)
(1.00133 0.0100988 0)
(0.999694 0.0105061 0)
(0.997893 0.0106406 0)
(0.995973 0.0104384 0)
(0.994001 0.00983861 0)
(0.992163 0.00885205 0)
(0.990429 0.00746779 0)
(0.988997 0.00565249 0)
(0.987967 0.0035288 0)
(0.987427 0.00120017 -5.16381e-32)
(0.987427 -0.00120013 5.16381e-32)
(0.987967 -0.00352876 0)
(0.988997 -0.00565246 0)
(0.990429 -0.00746777 0)
(0.992163 -0.00885203 0)
(0.994001 -0.00983859 0)
(0.995973 -0.0104384 0)
(0.997893 -0.0106406 0)
(0.999694 -0.0105061 0)
(1.00133 -0.0100988 0)
(1.00278 -0.00947944 0)
(1.00404 -0.00870238 0)
(1.0051 -0.00781313 0)
(1.00599 -0.00684793 0)
(1.00672 -0.00583426 0)
(1.00729 -0.00479186 0)
(1.00773 -0.00373407 0)
(1.00805 -0.00266921 0)
(1.00826 -0.00160181 0)
(1.00836 -0.000533929 0)
(1.007 0.000464656 0)
(1.0069 0.00139213 0)
(1.0067 0.00231363 0)
(1.00639 0.00322376 0)
(1.00598 0.00411514 0)
(1.00544 0.00497747 0)
(1.00477 0.00579672 0)
(1.00398 0.00655437 0)
(1.00304 0.00722685 0)
(1.00196 0.00778525 0)
(1.00075 0.00819576 0)
(0.999416 0.00842083 0)
(0.997988 0.00842167 0)
(0.996507 0.0081623 0)
(0.99503 0.00761624 0)
(0.993638 0.00677855 0)
(0.992368 0.00564997 0)
(0.991332 0.00425149 0)
(0.990596 0.0026419 0)
(0.990213 0.00089632 -5.12097e-33)
(0.990213 -0.000896292 5.12097e-33)
(0.990596 -0.00264188 0)
(0.991332 -0.00425147 0)
(0.992368 -0.00564995 0)
(0.993638 -0.00677854 0)
(0.99503 -0.00761623 0)
(0.996507 -0.00816229 0)
(0.997988 -0.00842166 0)
(0.999416 -0.00842083 0)
(1.00075 -0.00819576 0)
(1.00196 -0.00778526 0)
(1.00304 -0.00722685 0)
(1.00398 -0.00655438 0)
(1.00477 -0.00579672 0)
(1.00544 -0.00497747 0)
(1.00598 -0.00411515 0)
(1.00639 -0.00322377 0)
(1.0067 -0.00231363 0)
(1.0069 -0.00139214 0)
(1.007 -0.000464657 0)
(1.00583 0.000398835 0)
(1.00573 0.00119356 0)
(1.00555 0.00197907 0)
(1.00526 0.00274816 0)
(1.00488 0.00349219 0)
(1.0044 0.0042004 0)
(1.00381 0.00485949 0)
(1.00311 0.00545325 0)
(1.0023 0.00596238 0)
(1.00139 0.00636471 0)
(1.00039 0.00663583 0)
(0.999312 0.00675038 0)
(0.998181 0.00668404 0)
(0.997031 0.00641642 0)
(0.995905 0.00593458 0)
(0.994852 0.00523663 0)
(0.993919 0.00433126 0)
(0.993163 0.00324131 0)
(0.99263 0.00200662 0)
(0.992355 0.000679481 0)
(0.992355 -0.000679459 0)
(0.99263 -0.0020066 0)
(0.993163 -0.00324129 0)
(0.993919 -0.00433124 0)
(0.994852 -0.00523662 0)
(0.995905 -0.00593457 0)
(0.997031 -0.00641641 0)
(0.998181 -0.00668404 0)
(0.999312 -0.00675038 0)
(1.00039 -0.00663583 0)
(1.00139 -0.00636471 0)
(1.0023 -0.00596238 0)
(1.00311 -0.00545325 0)
(1.00381 -0.0048595 0)
(1.0044 -0.0042004 0)
(1.00488 -0.00349219 0)
(1.00526 -0.00274817 0)
(1.00555 -0.00197907 0)
(1.00573 -0.00119356 0)
(1.00583 -0.000398836 0)
(1.00482 0.000338517 0)
(1.00474 0.00101206 0)
(1.00457 0.00167484 0)
(1.00432 0.00231896 0)
(1.00398 0.00293551 0)
(1.00355 0.00351421 0)
(1.00304 0.00404315 0)
(1.00244 0.00450869 0)
(1.00175 0.00489548 0)
(1.001 0.00518688 0)
(1.00018 0.00536554 0)
(0.999306 0.0054145 0)
(0.998408 0.00531867 0)
(0.99751 0.00506661 0)
(0.996643 0.00465259 0)
(0.995843 0.00407831 0)
(0.995144 0.00335386 0)
(0.994583 0.00249877 0)
(0.99419 0.00154226 0)
(0.993988 0.000521442 0)
(0.993988 -0.000521424 0)
(0.99419 -0.00154225 0)
(0.994583 -0.00249875 0)
(0.995144 -0.00335384 0)
(0.995843 -0.0040783 0)
(0.996643 -0.00465258 0)
(0.99751 -0.0050666 0)
(0.998408 -0.00531866 0)
(0.999306 -0.0054145 0)
(1.00018 -0.00536553 0)
(1.001 -0.00518688 0)
(1.00175 -0.00489548 0)
(1.00244 -0.00450869 0)
(1.00304 -0.00404316 0)
(1.00355 -0.00351421 0)
(1.00398 -0.00293551 0)
(1.00432 -0.00231896 0)
(1.00457 -0.00167484 0)
(1.00474 -0.00101206 0)
(1.00482 -0.000338517 0)
(1.00398 0.000284707 0)
(1.0039 0.000850476 0)
(1.00375 0.00140512 0)
(1.00353 0.00194076 0)
(1.00324 0.00244886 0)
(1.00287 0.00292008 0)
(1.00243 0.00334413 0)
(1.00192 0.00370978 0)
(1.00135 0.00400506 0)
(1.00072 0.00421759 0)
(1.00005 0.00433513 0)
(0.99935 0.00434643 0)
(0.998637 0.0042422 0)
(0.997932 0.0040163 0)
(0.99726 0.00366695 0)
(0.996646 0.00319766 0)
(0.996115 0.00261797 0)
(0.995692 0.00194372 0)
(0.995397 0.00119682 0)
(0.995246 0.000404156 -5.18949e-33)
(0.995246 -0.000404142 5.18949e-33)
(0.995397 -0.00119681 0)
(0.995692 -0.0019437 0)
(0.996115 -0.00261795 0)
(0.996646 -0.00319765 0)
(0.99726 -0.00366694 0)
(0.997932 -0.0040163 0)
(0.998637 -0.00424219 0)
(0.99935 -0.00434642 0)
(1.00005 -0.00433513 0)
(1.00072 -0.00421759 0)
(1.00135 -0.00400506 0)
(1.00192 -0.00370978 0)
(1.00243 -0.00334413 0)
(1.00287 -0.00292008 0)
(1.00324 -0.00244886 0)
(1.00353 -0.00194076 0)
(1.00375 -0.00140512 0)
(1.0039 -0.000850476 0)
(1.00398 -0.000284707 0)
(1.00327 0.000237674 0)
(1.0032 0.000709486 0)
(1.00307 0.00117057 0)
(1.00288 0.00161348 0)
(1.00263 0.00203044 0)
(1.00231 0.00241322 0)
(1.00194 0.00275311 0)
(1.00151 0.00304104 0)
(1.00104 0.00326772 0)
(1.00053 0.00342399 0)
(0.99998 0.00350124 0)
(0.999417 0.00349202 0)
(0.998849 0.00339072 0)
(0.998294 0.00319432 0)
(0.997769 0.00290308 0)
(0.997294 0.00252115 0)
(0.996886 0.0020569 0)
(0.996564 0.00152298 0)
(0.99634 0.000935992 0)
(0.996225 0.000315775 0)
(0.996225 -0.000315763 0)
(0.99634 -0.000935981 0)
(0.996564 -0.00152297 0)
(0.996886 -0.00205689 0)
(0.997294 -0.00252115 0)
(0.997769 -0.00290307 0)
(0.998294 -0.00319431 0)
(0.998849 -0.00339071 0)
(0.999417 -0.00349201 0)
(0.99998 -0.00350123 0)
(1.00053 -0.00342399 0)
(1.00104 -0.00326772 0)
(1.00151 -0.00304104 0)
(1.00194 -0.00275311 0)
(1.00231 -0.00241322 0)
(1.00263 -0.00203044 0)
(1.00288 -0.00161348 0)
(1.00307 -0.00117057 0)
(1.0032 -0.000709486 0)
(1.00327 -0.000237674 0)
(1.00267 0.000197212 0)
(1.00262 0.00058836 0)
(1.00251 0.000969608 0)
(1.00235 0.00133421 0)
(1.00213 0.00167526 0)
(1.00187 0.00198568 0)
(1.00155 0.00225823 0)
(1.0012 0.0024856 0)
(1.00081 0.00266063 0)
(1.00039 0.00277654 0)
(0.999945 0.00282727 0)
(0.999491 0.0028079 0)
(0.999039 0.00271512 0)
(0.998599 0.00254771 0)
(0.998187 0.00230692 0)
(0.997817 0.00199688 0)
(0.997501 0.00162467 0)
(0.997252 0.00120034 0)
(0.99708 0.000736612 0)
(0.996992 0.000248322 0)
(0.996992 -0.000248312 0)
(0.99708 -0.000736602 0)
(0.997252 -0.00120033 0)
(0.997501 -0.00162466 0)
(0.997817 -0.00199687 0)
(0.998187 -0.00230692 0)
(0.998599 -0.0025477 0)
(0.999039 -0.00271512 0)
(0.999491 -0.00280789 0)
(0.999945 -0.00282726 0)
(1.00039 -0.00277654 0)
(1.00081 -0.00266063 0)
(1.0012 -0.0024856 0)
(1.00155 -0.00225822 0)
(1.00187 -0.00198568 0)
(1.00213 -0.00167526 0)
(1.00235 -0.00133421 0)
(1.00251 -0.000969608 0)
(1.00262 -0.00058836 0)
(1.00267 -0.000197212 0)
(1.00218 0.000162833 0)
(1.00214 0.00048556 0)
(1.00205 0.000799432 0)
(1.00191 0.00109849 0)
(1.00173 0.00137675 0)
(1.00151 0.00162821 0)
(1.00125 0.00184689 0)
(1.00095 0.00202696 0)
(1.00063 0.00216289 0)
(1.00029 0.00224965 0)
(0.99993 0.00228294 0)
(0.999565 0.00225954 0)
(0.999203 0.00217756 0)
(0.998854 0.00203677 0)
(0.998529 0.00183885 0)
(0.998238 0.00158756 0)
(0.997992 0.0012888 0)
(0.997798 0.000950564 0)
(0.997665 0.000582645 0)
(0.997597 0.000196301 0)
(0.997597 -0.000196292 0)
(0.997665 -0.000582637 0)
(0.997798 -0.000950556 0)
(0.997992 -0.0012888 0)
(0.998238 -0.00158755 0)
(0.998529 -0.00183884 0)
(0.998854 -0.00203676 0)
(0.999203 -0.00217755 0)
(0.999565 -0.00225953 0)
(0.99993 -0.00228294 0)
(1.00029 -0.00224964 0)
(1.00063 -0.00216289 0)
(1.00095 -0.00202696 0)
(1.00125 -0.00184689 0)
(1.00151 -0.00162821 0)
(1.00173 -0.00137675 0)
(1.00191 -0.00109849 0)
(1.00205 -0.000799431 0)
(1.00214 -0.00048556 0)
(1.00218 -0.000162832 0)
(1.00178 0.000133908 0)
(1.00174 0.000399148 0)
(1.00166 0.000656645 0)
(1.00155 0.00090124 0)
(1.0014 0.00112782 0)
(1.00122 0.00133136 0)
(1.001 0.00150696 0)
(1.00076 0.00164997 0)
(1.0005 0.00175611 0)
(1.00022 0.00182163 0)
(0.999926 0.00184347 0)
(0.999633 0.00181952 0)
(0.999343 0.00174876 0)
(0.999065 0.00163149 0)
(0.998808 0.00146947 0)
(0.998578 0.00126601 0)
(0.998385 0.00102596 0)
(0.998233 0.000755667 0)
(0.998129 0.00046275 0)
(0.998076 0.000155832 0)
(0.998076 -0.000155825 0)
(0.998129 -0.000462742 0)
(0.998233 -0.00075566 0)
(0.998385 -0.00102595 0)
(0.998578 -0.001266 0)
(0.998808 -0.00146946 0)
(0.999065 -0.00163148 0)
(0.999343 -0.00174875 0)
(0.999633 -0.00181951 0)
(0.999926 -0.00184347 0)
(1.00022 -0.00182162 0)
(1.0005 -0.00175611 0)
(1.00076 -0.00164997 0)
(1.001 -0.00150696 0)
(1.00122 -0.00133136 0)