/*--------------------------------*- C++ -*----------------------------------*\
| =========                 |                                                 |
| \\      /  F ield         | OpenFOAM: The Open Source CFD Toolbox           |
|  \\    /   O peration     | Version:  v1906                                 |
|   \\  /    A nd           | Web:      www.OpenFOAM.com                      |
|    \\/     M anipulation  |                                                 |
\*---------------------------------------------------------------------------*/
FoamFile
{
    version     2.0;
    format      ascii;
    class       volVectorField;
    location    "0";
    object      Ulift0;
}
// * * * * * * * * * * * * * * * * * * * * * * * * * * * * * * * * * * * * * //

dimensions      [0 1 -1 0 0 0 0];


internalField   nonuniform List<vector> 
400
(
(0.0830399 -0.0822435 0)
(-0.0154348 -0.00200945 0)
(-0.558932 0.0899373 0)
(-1.46424 0.152442 0)
(-2.58942 0.184111 0)
(-3.78948 0.189621 0)
(-4.93508 0.174269 0)
(-5.91712 0.142382 0)
(-6.64689 0.0973583 0)
(-7.05659 0.0423556 0)
(-7.10184 -0.0189094 0)
(-6.76632 -0.0815054 0)
(-6.06777 -0.138976 0)
(-5.06323 -0.183522 0)
(-3.85143 -0.206739 0)
(-2.56978 -0.200891 0)
(-1.3835 -0.160675 0)
(-0.464944 -0.085595 0)
(0.044669 0.0148023 0)
(0.0946267 0.092321 0)
(0.00928145 0.00949937 0)
(-0.705251 0.701604 0)
(-2.36933 1.44733 0)
(-4.77839 1.98519 0)
(-7.62934 2.25718 0)
(-10.6097 2.27086 0)
(-13.4261 2.05721 0)
(-15.8228 1.65362 0)
(-17.5897 1.09952 0)
(-18.5677 0.437906 0)
(-18.6564 -0.281141 0)
(-17.8245 -0.997637 0)
(-16.1206 -1.64139 0)
(-13.6823 -2.13555 0)
(-10.7379 -2.40463 0)
(-7.59641 -2.38717 0)
(-4.62068 -2.05281 0)
(-2.17857 -1.42512 0)
(-0.577482 -0.617672 0)
(0.0325961 0.0543098 0)
(-0.0852705 0.554458 0)
(-1.54622 2.382 0)
(-4.3411 4.11357 0)
(-8.10759 5.33332 0)
(-12.4091 5.924 0)
(-16.823 5.89258 0)
(-20.9495 5.30189 0)
(-24.4372 4.23783 0)
(-26.9963 2.79827 0)
(-28.408 1.09393 0)
(-28.5356 -0.746436 0)
(-27.3379 -2.57182 0)
(-24.8822 -4.20995 0)
(-21.3556 -5.47651 0)
(-17.0665 -6.19435 0)
(-12.432 -6.22303 0)
(-7.94379 -5.49771 0)
(-4.10545 -4.07589 0)
(-1.37333 -2.19526 0)
(-0.0514221 -0.402238 0)
(-0.166611 1.54677 0)
(-2.35312 5.02296 0)
(-6.24379 8.01372 0)
(-11.2854 10.0401 0)
(-16.8993 10.9606 0)
(-22.5693 10.798 0)
(-27.8184 9.65907 0)
(-32.2311 7.691 0)
(-35.4658 5.0651 0)
(-37.2642 1.97699 0)
(-37.4627 -1.34658 0)
(-36.0067 -4.64222 0)
(-32.9663 -7.61199 0)
(-28.5502 -9.93845 0)
(-23.1124 -11.316 0)
(-17.1436 -11.4996 0)
(-11.2389 -10.3683 0)
(-6.03337 -7.99682 0)
(-2.15885 -4.72724 0)
(-0.121896 -1.2808 0)
(-0.236277 2.94832 0)
(-3.1022 8.56779 0)
(-8.04009 13.0694 0)
(-14.2948 15.9908 0)
(-21.1377 17.2182 0)
(-27.9642 16.8224 0)
(-34.235 14.9738 0)
(-39.4909 11.8945 0)
(-43.357 7.83909 0)
(-45.5482 3.09625 0)
(-45.8774 -2.0016 0)
(-44.2692 -7.06975 0)
(-40.7786 -11.6723 0)
(-35.6104 -15.3406 0)
(-29.1359 -17.6146 0)
(-21.8974 -18.1112 0)
(-14.5866 -16.6145 0)
(-7.98481 -13.1768 0)
(-2.93483 -8.20553 0)
(-0.182839 -2.55956 0)
(-0.299191 4.72712 0)
(-3.80719 12.9698 0)
(-9.74778 19.2321 0)
(-17.1623 23.1295 0)
(-25.17 24.6316 0)
(-33.0812 23.8976 0)
(-40.3066 21.1885 0)
(-46.3584 16.8165 0)
(-50.8442 11.1265 0)
(-53.4617 4.50173 0)
(-54.002 -2.62145 0)
(-52.3606 -9.73803 0)
(-48.5578 -16.27 0)
(-42.7679 -21.5832 0)
(-35.351 -25.0341 0)
(-26.8782 -26.0559 0)
(-18.1322 -24.2796 0)
(-10.0584 -19.6744 0)
(-3.75241 -12.6663 0)
(-0.243557 -4.23862 0)
(-0.359969 6.86436 0)
(-4.4888 18.1935 0)
(-11.3956 26.4565 0)
(-19.9162 31.4007 0)
(-29.0179 33.1366 0)
(-37.9332 31.9592 0)
(-46.0367 28.2521 0)
(-52.8304 22.4343 0)
(-57.9206 14.9456 0)
(-61.0005 6.25835 0)
(-61.8431 -3.09808 0)
(-60.307 -12.5099 0)
(-56.3594 -21.2625 0)
(-50.114 -28.5476 0)
(-41.8837 -33.5083 0)
(-32.2353 -35.3371 0)
(-22.0247 -33.4322 0)
(-12.3733 -27.593 0)
(-4.67726 -18.1996 0)
(-0.31428 -6.35397 0)
(-0.422602 9.35358 0)
(-5.16675 24.2155 0)
(-13.0081 34.698 0)
(-22.5682 40.736 0)
(-32.6626 42.6463 0)
(-42.4589 40.9148 0)
(-51.3162 36.0848 0)
(-58.7504 28.7007 0)
(-64.3906 19.2986 0)
(-67.9434 8.4275 0)
(-69.1733 -3.31068 0)
(-67.9001 -15.2172 0)
(-64.0205 -26.4595 0)
(-57.555 -36.0578 0)
(-48.7225 -42.9163 0)
(-38.0336 -45.923 0)
(-26.3767 -44.1396 0)
(-15.0417 -37.0718 0)
(-5.77781 -24.9522 0)
(-0.405878 -8.97977 0)
(-0.491551 12.1997 0)
(-5.86212 31.0216 0)
(-14.6059 43.9031 0)
(-25.1105 51.0354 0)
(-36.0394 53.0227 0)
(-46.5154 50.6085 0)
(-55.9135 44.5398 0)
(-63.7984 35.5061 0)
(-69.8552 24.1379 0)
(-73.8325 11.0421 0)
(-75.5049 -3.1386 0)
(-74.6597 -17.6587 0)
(-71.1118 -31.6037 0)
(-64.7557 -43.8436 0)
(-55.6593 -53.0327 0)
(-44.2013 -57.6924 0)
(-31.2264 -56.4226 0)
(-18.1516 -48.2596 0)
(-7.1229 -33.1192 0)
(-0.53113 -12.2289 0)
(-0.573954 15.4216 0)
(-6.60595 38.6061 0)
(-16.2153 53.9992 0)
(-27.5214 62.1449 0)
(-39.0365 64.0434 0)
(-49.8717 60.7809 0)
(-59.4642 53.36 0)
(-67.4769 42.636 0)
(-73.6965 29.328 0)
(-77.9525 14.0746 0)
(-80.0606 -2.48362 0)
(-79.7936 -19.6081 0)
(-76.885 -36.36 0)
(-71.0756 -51.508 0)
(-62.2202 -63.4736 0)
(-50.4665 -70.3669 0)
(-36.4943 -70.1881 0)
(-21.7483 -61.2676 0)
(-8.78263 -42.927 0)
(-0.707131 -16.2547 0)
(-0.683435 19.0626 0)
(-7.45364 46.9753 0)
(-17.8822 64.8811 0)
(-29.7721 73.8261 0)
(-41.4919 75.3607 0)
(-52.1974 71.0234 0)
(-61.4565 62.1322 0)
(-69.0961 49.727 0)
(-75.0625 34.6039 0)
(-79.3155 17.3991 0)
(-81.7535 -1.30149 0)
(-82.1675 -20.8349 0)
(-80.2256 -40.3194 0)
(-75.5041 -58.5055 0)
(-67.5882 -73.6438 0)
(-56.2795 -83.43 0)
(-41.922 -85.1385 0)
(-25.8062 -76.0971 0)
(-10.8289 -54.6034 0)
(-0.959136 -21.2561 0)
(-0.846704 23.2116 0)
(-8.50568 56.1575 0)
(-19.6867 76.3933 0)
(-31.823 85.7155 0)
(-43.1721 86.4501 0)
(-53.0309 80.7263 0)
(-61.1976 70.2399 0)
(-67.7468 56.2251 0)
(-72.8506 39.5328 0)
(-76.6527 20.754 0)
(-79.1823 0.360648 0)
(-80.2929 -21.139 0)
(-79.6255 -43.0216 0)
(-76.6075 -64.1405 0)
(-70.524 -82.6966 0)
(-60.7192 -96.042 0)
(-46.9887 -100.654 0)
(-30.1801 -92.5314 0)
(-13.3321 -68.3272 0)
(-1.32668 -27.4854 0)
(-1.1151 28.0426 0)
(-9.934 66.2139 0)
(-21.7426 88.2925 0)
(-33.5848 97.2585 0)
(-43.7019 96.5406 0)
(-51.6973 89.0218 0)
(-57.7385 76.823 0)
(-62.2451 61.3581 0)
(-65.6778 43.4915 0)
(-68.4098 23.7165 0)
(-70.6428 2.32942 0)
(-72.343 -20.3947 0)
(-73.1829 -44.0007 0)
(-72.4971 -67.5962 0)
(-69.2907 -89.5213 0)
(-62.3808 -106.964 0)
(-50.7902 -115.654 0)
(-34.5224 -109.981 0)
(-16.3458 -84.1407 0)
(-1.87296 -35.2599 0)
(-1.58426 33.8789 0)
(-12.0055 77.234 0)
(-24.1477 100.163 0)
(-34.7888 107.597 0)
(-42.3872 104.52 0)
(-47.1239 94.7259 0)
(-49.715 80.7568 0)
(-51.0176 64.14 0)
(-51.8178 45.6788 0)
(-52.7315 25.7061 0)
(-54.1506 4.28753 0)
(-56.1937 -18.5971 0)
(-58.6376 -42.8553 0)
(-60.8264 -68.0089 0)
(-61.587 -92.7826 0)
(-59.2366 -114.514 0)
(-51.8592 -128.449 0)
(-38.1329 -127.269 0)
(-19.8594 -101.798 0)
(-2.69792 -44.9754 0)
(-2.42504 41.2908 0)
(-15.0655 89.2693 0)
(-26.7842 111.228 0)
(-34.6409 115.377 0)
(-37.8144 108.812 0)
(-37.4652 96.3018 0)
(-35.0452 80.6824 0)
(-31.889 63.4382 0)
(-29.0772 45.192 0)
(-27.4187 26.044 0)
(-27.4618 5.79482 0)
(-29.4854 -15.8941 0)
(-33.4404 -39.34 0)
(-38.8238 -64.6005 0)
(-44.4894 -91.0473 0)
(-48.4525 -116.614 0)
(-47.8741 -136.617 0)
(-39.6668 -142.345 0)
(-23.6603 -120.499 0)
(-3.94903 -57.1002 0)
(-3.89296 51.1712 0)
(-19.3321 102.053 0)
(-28.7122 119.921 0)
(-30.9977 118.432 0)
(-27.0296 107.249 0)
(-19.4153 91.8985 0)
(-10.4181 75.148 0)
(-1.74285 58.1583 0)
(5.39659 41.2082 0)
(10.1474 24.1007 0)
(11.9118 6.37458 0)
(10.2965 -12.5856 0)
(5.13781 -33.466 0)
(-3.37086 -56.8826 0)
(-14.4148 -83.0433 0)
(-26.139 -110.975 0)
(-35.1665 -136.956 0)
(-36.5302 -151.896 0)
(-26.933 -138.357 0)
(-5.75855 -72.0275 0)
(-6.12085 64.7532 0)
(-23.9609 114.224 0)
(-26.4592 123.052 0)
(-18.524 113.368 0)
(-4.00387 97.0923 0)
(12.8939 79.6275 0)
(29.4126 62.9897 0)
(43.8832 47.6297 0)
(55.3073 33.3243 0)
(63.0497 19.5627 0)
(66.6443 5.69037 0)
(65.6906 -9.06091 0)
(59.8319 -25.59 0)
(48.8391 -44.927 0)
(32.8604 -68.0982 0)
(12.9665 -95.5742 0)
(-7.87839 -125.669 0)
(-23.59 -150.89 0)
(-27.1151 -151.508 0)
(-7.84316 -89.8048 0)
(-8.33972 84.1795 0)
(-23.6804 121.395 0)
(-9.60281 114.126 0)
(14.9661 95.115 0)
(42.7385 75.406 0)
(69.1814 58.2699 0)
(92.1858 44.0638 0)
(110.917 32.2358 0)
(125.095 22.0536 0)
(134.608 12.8023 0)
(139.318 3.79588 0)
(138.952 -5.68269 0)
(133.056 -16.4811 0)
(120.989 -29.707 0)
(102.036 -46.8441 0)
(75.8181 -69.6697 0)
(43.3577 -99.2911 0)
(9.35137 -132.64 0)
(-17.1072 -153.134 0)
(-8.5395 -110.671 0)
(-4.22168 107.712 0)
(2.1931 114.049 0)
(49.059 86.4688 0)
(94.13 61.8779 0)
(132.338 43.6107 0)
(163.244 30.734 0)
(187.4 21.6402 0)
(205.666 14.9795 0)
(218.813 9.80007 0)
(227.362 5.43714 0)
(231.552 1.38465 0)
(231.319 -2.81829 0)
(226.253 -7.7085 0)
(215.524 -14.065 0)
(197.756 -23.1658 0)
(170.988 -37.1606 0)
(132.891 -59.2665 0)
(82.0988 -92.4309 0)
(21.7653 -130.831 0)
(1.48947 -125.46 0)
(97.444 54.2936 0)
(138.477 41.0994 0)
(210.497 21.9756 0)
(256.773 12.5642 0)
(286.606 7.32857 0)
(306.798 4.30624 0)
(320.639 2.55868 0)
(330.104 1.50642 0)
(336.39 0.822067 0)
(340.173 0.323718 0)
(341.779 -0.0992936 0)
(341.263 -0.530941 0)
(338.407 -1.06453 0)
(332.637 -1.84875 0)
(322.774 -3.17428 0)
(306.617 -5.63234 0)
(280.002 -10.3878 0)
(235.29 -19.6563 0)
(156.488 -40.5296 0)
(103.81 -56.9767 0)
)
;

boundaryField
{
    movingWall
    {
        type            calculated;
        value           uniform (402.667 0 0);
    }
    fixedWalls
    {
        type            calculated;
        value           uniform (0 0 0);
    }
    frontAndBack
    {
        type            empty;
    }
}

