/*--------------------------------*- C++ -*----------------------------------*\
  =========                 |
  \\      /  F ield         | OpenFOAM: The Open Source CFD Toolbox
   \\    /   O peration     | Website:  https://openfoam.org
    \\  /    A nd           | Version:  6
     \\/     M anipulation  |
\*---------------------------------------------------------------------------*/
FoamFile
{
    version     2.0;
    format      ascii;
    class       volVectorField;
    location    "0";
    object      Ulift0;
}
// * * * * * * * * * * * * * * * * * * * * * * * * * * * * * * * * * * * * * //

dimensions      [0 1 -1 0 0 0 0];

internalField   nonuniform List<vector> 
400
(
(0.064712 -0.0662532 0)
(-0.0475578 0.0835574 0)
(-0.596825 0.233197 0)
(-1.45223 0.324266 0)
(-2.46734 0.366329 0)
(-3.53325 0.373086 0)
(-4.56456 0.352143 0)
(-5.48539 0.305166 0)
(-6.22037 0.230443 0)
(-6.6926 0.126673 0)
(-6.83059 -0.00319988 0)
(-6.58277 -0.149058 0)
(-5.9363 -0.292535 0)
(-4.93455 -0.408702 0)
(-3.68633 -0.470984 0)
(-2.36002 -0.458663 0)
(-1.15873 -0.364873 0)
(-0.279042 -0.202176 0)
(0.14299 -0.00956788 0)
(0.114104 0.108403 0)
(-0.0883643 0.0425543 0)
(-0.783836 0.756533 0)
(-2.38118 1.40417 0)
(-4.58126 1.81477 0)
(-7.09846 2.00589 0)
(-9.70522 2.01731 0)
(-12.1997 1.87488 0)
(-14.3941 1.5874 0)
(-16.1073 1.15509 0)
(-17.1671 0.583778 0)
(-17.4262 -0.10082 0)
(-16.7904 -0.8429 0)
(-15.2517 -1.55422 0)
(-12.9177 -2.12275 0)
(-10.0251 -2.43378 0)
(-6.92599 -2.40114 0)
(-4.03732 -2.00093 0)
(-1.75759 -1.29619 0)
(-0.377345 -0.456591 0)
(0.0303632 0.159284 0)
(-0.272061 0.630622 0)
(-1.59762 2.40305 0)
(-4.2106 3.86563 0)
(-7.59596 4.79278 0)
(-11.3561 5.21228 0)
(-15.1922 5.19203 0)
(-18.8293 4.78037 0)
(-22.006 3.9988 0)
(-24.4718 2.85859 0)
(-25.9932 1.38866 0)
(-26.3741 -0.336418 0)
(-25.4905 -2.17733 0)
(-23.3296 -3.92707 0)
(-20.0265 -5.33023 0)
(-15.8846 -6.12781 0)
(-11.3654 -6.12446 0)
(-7.03069 -5.26389 0)
(-3.43724 -3.68658 0)
(-1.0427 -1.75897 0)
(-0.0972689 -0.139368 0)
(-0.432745 1.66004 0)
(-2.34215 4.92795 0)
(-5.90854 7.4134 0)
(-10.3781 8.94506 0)
(-15.2408 9.60117 0)
(-20.1461 9.49169 0)
(-24.7741 8.69191 0)
(-28.8187 7.2384 0)
(-31.9854 5.15702 0)
(-33.9959 2.50609 0)
(-34.6104 -0.581271 0)
(-33.6624 -3.86795 0)
(-31.1045 -7.00697 0)
(-27.0547 -9.56849 0)
(-21.835 -11.1073 0)
(-15.9795 -11.2709 0)
(-10.1855 -9.93 0)
(-5.19729 -7.28584 0)
(-1.7045 -3.91452 0)
(-0.206921 -0.786753 0)
(-0.570725 3.0708 0)
(-3.00422 8.23793 0)
(-7.44367 11.925 0)
(-12.9059 14.1177 0)
(-18.7736 15.0006 0)
(-24.6578 14.7511 0)
(-30.2134 13.48 0)
(-35.1113 11.2397 0)
(-39.0301 8.06716 0)
(-41.6554 4.0444 0)
(-42.6971 -0.643913 0)
(-41.9239 -5.66752 0)
(-39.2133 -10.5351 0)
(-34.615 -14.6198 0)
(-28.4181 -17.2418 0)
(-21.1969 -17.8186 0)
(-13.7917 -16.0672 0)
(-7.19311 -12.1937 0)
(-2.42078 -6.98154 0)
(-0.309972 -1.76785 0)
(-0.68942 4.81604 0)
(-3.58521 12.2573 0)
(-8.80638 17.3206 0)
(-15.165 20.2344 0)
(-21.9499 21.3463 0)
(-28.7462 20.9316 0)
(-35.201 19.1491 0)
(-40.9804 16.066 0)
(-45.7512 11.7207 0)
(-49.1691 6.20131 0)
(-50.8872 -0.278225 0)
(-50.5852 -7.31598 0)
(-48.0236 -14.2863 0)
(-43.1252 -20.349 0)
(-36.081 -24.5316 0)
(-27.4539 -25.9164 0)
(-18.2184 -23.9332 0)
(-9.674 -18.6842 0)
(-3.30715 -11.1429 0)
(-0.43275 -3.12349 0)
(-0.789299 6.85127 0)
(-4.08111 16.901 0)
(-9.97954 23.5041 0)
(-17.1219 27.2038 0)
(-24.7197 28.5645 0)
(-32.3464 27.9924 0)
(-39.6576 25.7077 0)
(-46.3336 21.7912 0)
(-52.046 16.2675 0)
(-56.4323 9.20398 0)
(-59.0899 0.807362 0)
(-59.5957 -8.48817 0)
(-57.558 -17.9525 0)
(-52.7127 -26.5324 0)
(-45.0697 -32.9085 0)
(-35.0912 -35.6979 0)
(-23.8286 -33.846 0)
(-12.9249 -27.1539 0)
(-4.50509 -16.7134 0)
(-0.607245 -4.96592 0)
(-0.868844 9.12828 0)
(-4.48275 22.0707 0)
(-10.9364 30.3564 0)
(-18.7212 34.9039 0)
(-26.988 36.5449 0)
(-35.3119 35.8504 0)
(-43.3745 33.1184 0)
(-50.8901 28.4422 0)
(-57.5577 21.8162 0)
(-63.0181 13.2543 0)
(-66.8304 2.90916 0)
(-68.4752 -8.81 0)
(-67.3936 -21.1243 0)
(-63.0858 -32.8 0)
(-55.2874 -42.1441 0)
(-44.2257 -47.1786 0)
(-30.8928 -46.1057 0)
(-17.23 -38.0951 0)
(-6.17807 -24.1521 0)
(-0.873053 -7.48841 0)
(-0.926862 11.5933 0)
(-4.78266 27.6545 0)
(-11.6513 37.7325 0)
(-19.9006 43.171 0)
(-28.6335 45.1183 0)
(-37.4385 44.3463 0)
(-46.0403 41.2506 0)
(-54.2098 35.9405 0)
(-61.7016 28.3667 0)
(-68.1941 18.458 0)
(-73.2467 6.26176 0)
(-76.279 -7.90818 0)
(-76.5851 -23.3085 0)
(-73.411 -38.6044 0)
(-66.1361 -51.7625 0)
(-54.5876 -60.1243 0)
(-39.4663 -60.8622 0)
(-22.8228 -52.0202 0)
(-8.51325 -34.0552 0)
(-1.28357 -10.9784 0)
(-0.966423 14.1905 0)
(-4.98791 33.532 0)
(-12.1223 45.4609 0)
(-20.6213 51.7893 0)
(-29.5462 54.0343 0)
(-38.5103 53.2098 0)
(-47.2983 49.8343 0)
(-55.7617 44.0435 0)
(-63.7436 35.7393 0)
(-71.005 24.743 0)
(-77.1641 10.951 0)
(-81.648 -5.49255 0)
(-83.6685 -23.9879 0)
(-82.2532 -43.2329 0)
(-76.3886 -60.977 0)
(-65.3444 -73.9028 0)
(-49.2211 -77.9178 0)
(-29.795 -69.3073 0)
(-11.7176 -47.1169 0)
(-1.91584 -15.8368 0)
(-1.00079 16.8753 0)
(-5.13921 39.5915 0)
(-12.4032 53.3526 0)
(-20.9092 60.4883 0)
(-29.6788 62.9488 0)
(-38.3641 62.0383 0)
(-46.8298 58.4295 0)
(-55.0321 52.3031 0)
(-62.9359 43.5194 0)
(-70.4342 31.786 0)
(-77.2742 16.8203 0)
(-82.9847 -1.4668 0)
(-86.8061 -22.7346 0)
(-87.6518 -45.8932 0)
(-84.1646 -68.7016 0)
(-74.9697 -87.3742 0)
(-59.2511 -96.4951 0)
(-37.9435 -89.95 0)
(-15.9887 -64.0265 0)
(-2.88214 -22.6043 0)
(-1.06263 19.6413 0)
(-5.33735 45.7652 0)
(-12.643 61.2231 0)
(-20.9025 68.9504 0)
(-29.1002 71.423 0)
(-36.9559 70.2934 0)
(-44.4425 66.4217 0)
(-51.6464 60.0568 0)
(-58.6833 51.0376 0)
(-65.6202 38.9713 0)
(-72.3997 23.3958 0)
(-78.7526 3.95391 0)
(-84.0888 -19.3688 0)
(-87.3799 -45.8877 0)
(-87.0875 -73.685 0)
(-81.2484 -98.8978 0)
(-67.9197 -115.044 0)
(-46.5596 -113.22 0)
(-21.4286 -85.2525 0)
(-4.33588 -31.9839 0)
(-1.22011 22.5673 0)
(-5.78155 52.082 0)
(-13.131 68.9197 0)
(-20.8887 76.8199 0)
(-28.026 78.9297 0)
(-34.393 77.3132 0)
(-40.1184 73.0445 0)
(-45.4471 66.46 0)
(-50.6663 57.4013 0)
(-56.0411 45.4067 0)
(-61.7516 29.8633 0)
(-67.8089 10.157 0)
(-73.9286 -14.1253 0)
(-79.3521 -42.8581 0)
(-82.6353 -74.7837 0)
(-81.4792 -106.526 0)
(-72.8447 -131.203 0)
(-54.2177 -137.315 0)
(-27.8609 -110.649 0)
(-6.45182 -44.8234 0)
(-1.60719 25.902 0)
(-6.82811 58.7374 0)
(-14.3389 76.3382 0)
(-21.3054 83.6934 0)
(-26.7782 84.8452 0)
(-30.8681 82.3243 0)
(-33.9373 77.4173 0)
(-36.4239 70.5472 0)
(-38.7959 61.5741 0)
(-41.5151 50.0032 0)
(-45.0018 35.1248 0)
(-49.5755 16.1272 0)
(-55.3452 -7.76443 0)
(-62.0148 -37.0338 0)
(-68.5722 -71.3404 0)
(-72.8388 -108.418 0)
(-71.0602 -142.039 0)
(-58.6428 -159.168 0)
(-34.5234 -138.889 0)
(-9.33665 -61.9648 0)
(-2.47947 30.2128 0)
(-9.0741 66.1639 0)
(-16.9213 83.3835 0)
(-22.6139 89.0449 0)
(-25.5518 88.3918 0)
(-26.3488 84.419 0)
(-25.7143 78.5641 0)
(-24.3174 71.2933 0)
(-22.8027 62.4751 0)
(-21.7992 51.6065 0)
(-21.9261 37.9415 0)
(-23.7768 20.5666 0)
(-27.8562 -1.53416 0)
(-34.432 -29.3555 0)
(-43.2188 -63.5311 0)
(-52.7319 -103.389 0)
(-59.2715 -144.619 0)
(-56.6733 -174.661 0)
(-39.6464 -166.969 0)
(-12.78 -83.9207 0)
(-4.29257 36.6763 0)
(-13.41 75.0457 0)
(-21.4828 89.7813 0)
(-24.7368 92.0153 0)
(-23.6175 88.4739 0)
(-19.6369 82.4563 0)
(-13.9754 75.3798 0)
(-7.54932 67.643 0)
(-1.14714 59.0714 0)
(4.49753 49.1536 0)
(8.64819 37.1569 0)
(10.5295 22.1711 0)
(9.32749 3.11264 0)
(4.25174 -21.2856 0)
(-5.25511 -52.413 0)
(-18.8898 -91.3046 0)
(-34.0462 -136.677 0)
(-44.2713 -179.215 0)
(-40.0084 -190.166 0)
(-15.701 -110.564 0)
(-7.70387 47.7055 0)
(-20.6742 85.9571 0)
(-27.2748 94.2733 0)
(-24.9862 90.6736 0)
(-16.9011 83.1437 0)
(-5.86405 74.7249 0)
(6.48919 66.4539 0)
(19.0963 58.4626 0)
(31.1472 50.4378 0)
(41.9314 41.8368 0)
(50.7241 31.9746 0)
(56.7038 20.0394 0)
(58.8982 5.05756 0)
(56.1624 -14.2037 0)
(47.2307 -39.4234 0)
(31.0804 -72.9007 0)
(8.2634 -116.819 0)
(-16.5177 -168.07 0)
(-30.6585 -201.734 0)
(-15.2027 -140.276 0)
(-12.8229 67.7073 0)
(-29.0857 97.0818 0)
(-26.5508 91.5012 0)
(-11.4046 79.8231 0)
(8.28201 68.4367 0)
(28.9468 58.4561 0)
(49.1758 49.9744 0)
(68.2116 42.6626 0)
(85.5439 36.0037 0)
(100.726 29.4272 0)
(113.236 22.3431 0)
(122.378 14.1237 0)
(127.205 4.05246 0)
(126.451 -8.79 0)
(118.448 -25.8068 0)
(101.133 -49.5371 0)
(72.5872 -84.6874 0)
(33.2462 -136.116 0)
(-4.1809 -190.53 0)
(-4.86277 -164.427 0)
(-10.8375 96.503 0)
(-17.0811 96.937 0)
(15.2165 71.1145 0)
(52.6981 53.8326 0)
(85.961 42.1413 0)
(114.882 33.5121 0)
(140.148 27.0112 0)
(162.124 21.989 0)
(181.025 17.8559 0)
(196.924 14.1154 0)
(209.681 10.3507 0)
(218.886 6.18287 0)
(223.817 1.22518 0)
(223.364 -4.9895 0)
(215.88 -13.1963 0)
(198.861 -24.9455 0)
(168.467 -44.4906 0)
(118.787 -81.8147 0)
(55.9513 -140.307 0)
(31.8015 -154.337 0)
(115.386 57.7142 0)
(142.991 50.7842 0)
(197.068 33.4182 0)
(241.422 22.3339 0)
(271.774 15.5655 0)
(293.686 11.1159 0)
(310.621 8.10377 0)
(324.067 6.02636 0)
(334.783 4.51865 0)
(343.192 3.31697 0)
(349.435 2.23231 0)
(353.404 1.12108 0)
(354.761 -0.138342 0)
(352.919 -1.66937 0)
(346.95 -3.64979 0)
(335.173 -6.45826 0)
(314.315 -11.2373 0)
(275.969 -21.7812 0)
(205.802 -46.6594 0)
(150.236 -65.2477 0)
)
;

boundaryField
{
    movingWall
    {
        type            calculated;
        value           uniform (436.176 0 0);
    }
    fixedWalls
    {
        type            calculated;
        value           uniform (0 0 0);
    }
    frontAndBack
    {
        type            empty;
    }
}

