/*--------------------------------*- C++ -*----------------------------------*\
| =========                 |                                                 |
| \\      /  F ield         | OpenFOAM: The Open Source CFD Toolbox           |
|  \\    /   O peration     | Version:  v1906                                 |
|   \\  /    A nd           | Web:      www.OpenFOAM.com                      |
|    \\/     M anipulation  |                                                 |
\*---------------------------------------------------------------------------*/
FoamFile
{
    version     2.0;
    format      ascii;
    class       volVectorField;
    location    "./ITHACAoutput/Offline/1";
    object      Ulift0;
}
// * * * * * * * * * * * * * * * * * * * * * * * * * * * * * * * * * * * * * //

dimensions      [0 1 -1 0 0 0 0];


internalField   nonuniform List<vector> 
400
(
(0.184116 -0.070711 0)
(-0.133848 0.0452974 0)
(-0.523892 0.207877 0)
(-1.48855 0.285127 0)
(-2.44085 0.328325 0)
(-3.51869 0.334273 0)
(-4.54631 0.315584 0)
(-5.46209 0.273971 0)
(-6.19275 0.207104 0)
(-6.66133 0.113668 0)
(-6.7969 -0.00380768 0)
(-6.54813 -0.137405 0)
(-5.90258 -0.269183 0)
(-4.90476 -0.375794 0)
(-3.66157 -0.432604 0)
(-2.32671 -0.419312 0)
(-1.18942 -0.325479 0)
(-0.196234 -0.180211 0)
(0.0567809 0.0176493 0)
(0.227622 0.107426 0)
(0.148917 0.0423231 0)
(-0.921753 0.70844 0)
(-2.26545 1.37668 0)
(-4.62777 1.76608 0)
(-7.04786 1.95974 0)
(-9.66304 1.9698 0)
(-12.1434 1.82926 0)
(-14.3214 1.54735 0)
(-16.0206 1.12375 0)
(-17.069 0.564436 0)
(-17.322 -0.105319 0)
(-16.6859 -0.831477 0)
(-15.1529 -1.52689 0)
(-12.8328 -2.0817 0)
(-9.95782 -2.38406 0)
(-6.85895 -2.34869 0)
(-4.07494 -1.9473 0)
(-1.63772 -1.27058 0)
(-0.523495 -0.422459 0)
(0.259435 0.153819 0)
(-0.00375978 0.634003 0)
(-1.73485 2.38725 0)
(-4.07527 3.85701 0)
(-7.63499 4.77043 0)
(-11.2862 5.18988 0)
(-15.1297 5.16779 0)
(-18.7493 4.75499 0)
(-21.906 3.9738 0)
(-24.3546 2.8357 0)
(-25.8621 1.37045 0)
(-26.2348 -0.347013 0)
(-25.3495 -2.1776 0)
(-23.1943 -3.9151 0)
(-19.9066 -5.30601 0)
(-15.7851 -6.09401 0)
(-11.269 -6.08561 0)
(-7.05443 -5.22545 0)
(-3.29657 -3.66976 0)
(-1.18715 -1.74592 0)
(0.164179 -0.142866 0)
(-0.155198 1.65201 0)
(-2.47195 4.91063 0)
(-5.76453 7.38957 0)
(-10.4102 8.90901 0)
(-15.1578 9.56004 0)
(-20.0688 9.44788 0)
(-24.6772 8.64665 0)
(-28.6996 7.19417 0)
(-31.8468 5.11718 0)
(-33.8409 2.47532 0)
(-34.4446 -0.597512 0)
(-33.4926 -3.86633 0)
(-30.9382 -6.98423 0)
(-26.9031 -9.52449 0)
(-21.7043 -11.046 0)
(-15.8551 -11.1999 0)
(-10.192 -9.86344 0)
(-5.0425 -7.24363 0)
(-1.83454 -3.89629 0)
(0.0687348 -0.778179 0)
(-0.285916 3.05278 0)
(-3.12634 8.21 0)
(-7.29719 11.8815 0)
(-12.9351 14.0624 0)
(-18.6841 14.9363 0)
(-24.5718 14.6832 0)
(-30.1069 13.4104 0)
(-34.9809 11.1718 0)
(-38.8776 8.0061 0)
(-41.483 3.9965 0)
(-42.5108 -0.671552 0)
(-41.7302 -5.6681 0)
(-39.0188 -10.5039 0)
(-34.4318 -14.556 0)
(-28.2541 -17.1498 0)
(-21.0428 -17.7091 0)
(-13.778 -15.9623 0)
(-7.0249 -12.1176 0)
(-2.52874 -6.94868 0)
(-0.0168433 -1.7459 0)
(-0.396908 4.79112 0)
(-3.70023 12.2169 0)
(-8.66008 17.2589 0)
(-15.1949 20.1611 0)
(-21.8603 21.261 0)
(-28.659 20.8416 0)
(-35.0937 19.0567 0)
(-40.8487 15.9752 0)
(-45.5961 11.6376 0)
(-48.9917 6.13278 0)
(-50.6906 -0.324233 0)
(-50.3748 -7.32577 0)
(-47.8062 -14.2538 0)
(-42.9127 -20.2715 0)
(-35.8827 -24.4124 0)
(-27.2667 -25.7674 0)
(-18.1786 -23.7837 0)
(-9.48819 -18.5668 0)
(-3.38206 -11.0881 0)
(-0.113256 -3.08563 0)
(-0.489284 6.82077 0)
(-4.19062 16.8478 0)
(-9.83577 23.4248 0)
(-17.1563 27.1132 0)
(-24.6369 28.4595 0)
(-32.266 27.8814 0)
(-39.5596 25.5934 0)
(-46.2127 21.6778 0)
(-51.9027 16.1618 0)
(-56.2665 9.11421 0)
(-58.8984 0.743597 0)
(-59.3814 -8.51181 0)
(-57.3297 -17.9258 0)
(-52.4799 -26.4484 0)
(-44.841 -32.7668 0)
(-34.87 -35.509 0)
(-23.7576 -33.6448 0)
(-12.7152 -26.9844 0)
(-4.5315 -16.6269 0)
(-0.249094 -4.9054 0)
(-0.562537 9.09331 0)
(-4.58949 22.006 0)
(-10.7971 30.2616 0)
(-18.7637 34.7981 0)
(-26.9187 36.423 0)
(-35.2467 35.7213 0)
(-43.2963 32.9846 0)
(-50.7929 28.3081 0)
(-57.4409 21.6887 0)
(-62.8797 13.1431 0)
(-66.6658 2.82574 0)
(-68.283 -8.85419 0)
(-67.178 -21.1131 0)
(-62.8531 -32.7207 0)
(-55.0434 -41.9901 0)
(-43.9787 -46.9553 0)
(-30.7904 -45.8497 0)
(-16.9908 -37.8632 0)
(-6.13514 -24.0215 0)
(-0.45947 -7.39403 0)
(-0.615489 11.5552 0)
(-4.88909 27.5816 0)
(-11.5185 37.6261 0)
(-19.9546 43.0543 0)
(-28.5836 44.9842 0)
(-37.3964 44.2042 0)
(-45.9924 41.1026 0)
(-54.15 35.7904 0)
(-61.6285 28.2207 0)
(-68.1049 18.3252 0)
(-73.1357 6.15257 0)
(-76.1397 -7.98154 0)
(-76.4153 -23.3239 0)
(-73.2122 -38.5446 0)
(-65.9076 -51.6131 0)
(-54.3383 -59.8815 0)
(-39.3455 -60.5578 0)
(-22.5551 -51.7204 0)
(-8.37588 -33.8665 0)
(-0.792785 -10.835 0)
(-0.650506 14.1509 0)
(-5.09596 33.4558 0)
(-11.9976 45.3474 0)
(-20.6887 51.6673 0)
(-29.5201 53.8949 0)
(-38.4973 53.0624 0)
(-47.2895 49.6807 0)
(-55.7516 43.8863 0)
(-63.7311 35.5834 0)
(-70.988 24.5956 0)
(-77.1365 10.8208 0)
(-81.5955 -5.5945 0)
(-83.5834 -24.0354 0)
(-82.1336 -43.2061 0)
(-76.2234 -60.8535 0)
(-65.1375 -73.6658 0)
(-49.1167 -77.5863 0)
(-29.5163 -68.9455 0)
(-11.4646 -46.8572 0)
(-1.32386 -15.6284 0)
(-0.679456 16.8353 0)
(-5.24995 39.5176 0)
(-12.2876 53.2374 0)
(-20.9898 60.3676 0)
(-29.6778 62.8126 0)
(-38.3828 61.8957 0)
(-46.8645 58.2817 0)
(-55.0786 52.1515 0)
(-62.9944 43.3676 0)
(-70.5045 31.64 0)
(-77.3522 16.6903 0)
(-83.0481 -1.56816 0)
(-86.8445 -22.8061 0)
(-87.661 -45.9056 0)
(-84.1221 -68.6235 0)
(-74.8713 -87.175 0)
(-59.2271 -96.1739 0)
(-37.7014 -89.5512 0)
(-15.6228 -63.6883 0)
(-2.17205 -22.3219 0)
(-0.733492 19.601 0)
(-5.45024 45.6984 0)
(-12.5366 61.111 0)
(-20.9929 68.8378 0)
(-29.1216 71.2992 0)
(-37.0039 70.1666 0)
(-44.5186 66.2923 0)
(-51.7475 59.9249 0)
(-58.8101 50.9049 0)
(-65.7711 38.8421 0)
(-72.5709 23.2777 0)
(-78.9448 3.85505 0)
(-84.2878 -19.4553 0)
(-87.5579 -45.9334 0)
(-87.2225 -73.659 0)
(-81.3332 -98.7622 0)
(-68.0664 -114.778 0)
(-46.4421 -112.829 0)
(-21.012 -84.8423 0)
(-3.51973 -31.6428 0)
(-0.880033 22.5291 0)
(-5.8954 52.0249 0)
(-13.0329 68.8125 0)
(-20.9824 76.7211 0)
(-28.0628 78.8275 0)
(-34.463 77.2133 0)
(-40.2274 72.9455 0)
(-45.5927 66.3605 0)
(-50.8495 57.3013 0)
(-56.2618 45.3075 0)
(-62.01 29.767 0)
(-68.1098 10.0653 0)
(-74.2601 -14.2032 0)
(-79.6953 -42.9114 0)
(-82.97 -74.7924 0)
(-81.8028 -106.456 0)
(-73.2557 -131.025 0)
(-54.3492 -136.991 0)
(-27.5616 -110.211 0)
(-5.60657 -44.4981 0)
(-1.25877 25.8753 0)
(-6.94863 58.6851 0)
(-14.248 76.2307 0)
(-21.3906 83.612 0)
(-26.8186 84.7737 0)
(-30.9484 82.2614 0)
(-34.0654 77.3586 0)
(-36.5965 70.4902 0)
(-39.0128 61.5174 0)
(-41.7762 49.9476 0)
(-45.3091 35.0725 0)
(-49.9368 16.0831 0)
(-55.7576 -7.7895 0)
(-62.4778 -37.0503 0)
(-69.0764 -71.3353 0)
(-73.4034 -108.372 0)
(-71.7933 -141.938 0)
(-59.1535 -158.974 0)
(-34.6433 -138.538 0)
(-8.64492 -61.8394 0)
(-2.14851 30.23 0)
(-9.22996 66.0937 0)
(-16.8335 83.257 0)
(-22.6703 88.9823 0)
(-25.5804 88.3592 0)
(-26.4265 84.4007 0)
(-25.846 78.5511 0)
(-24.4963 71.2831 0)
(-23.0255 62.4652 0)
(-22.0629 51.598 0)
(-22.2295 37.9378 0)
(-24.1256 20.5761 0)
(-28.2714 -1.49649 0)
(-34.9304 -29.2962 0)
(-43.7987 -63.4381 0)
(-53.4587 -103.26 0)
(-60.3123 -144.482 0)
(-57.6446 -174.567 0)
(-40.5806 -166.809 0)
(-12.5414 -84.3028 0)
(-4.07249 36.8109 0)
(-13.695 74.8804 0)
(-21.3846 89.5934 0)
(-24.7314 91.9688 0)
(-23.6198 88.4863 0)
(-19.7043 82.4864 0)
(-14.0986 75.4136 0)
(-7.71567 67.6751 0)
(-1.35077 59.1011 0)
(4.26368 49.1836 0)
(8.38955 37.1925 0)
(10.2471 22.2224 0)
(8.99613 3.20042 0)
(3.84853 -21.1393 0)
(-5.74554 -52.1802 0)
(-19.5847 -90.9647 0)
(-35.2457 -136.263 0)
(-45.6103 -178.88 0)
(-42.1511 -189.918 0)
(-16.3457 -111.85 0)
(-7.83536 47.9495 0)
(-21.3003 85.3623 0)
(-27.0994 94.0079 0)
(-24.8693 90.7259 0)
(-16.8746 83.2745 0)
(-5.92527 74.858 0)
(6.37489 66.5744 0)
(18.9504 58.5649 0)
(30.9808 50.5251 0)
(41.7532 41.9154 0)
(50.5429 32.0519 0)
(56.5313 20.1232 0)
(58.7128 5.16442 0)
(55.9555 -14.0389 0)
(47.0082 -39.1363 0)
(30.7357 -72.4196 0)
(7.38847 -116.067 0)
(-17.5759 -166.952 0)
(-34.3831 -200.731 0)
(-17.5237 -143.173 0)
(-13.7386 67.9932 0)
(-30.139 95.1208 0)
(-25.8827 91.357 0)
(-11.1251 80.2971 0)
(8.28155 68.852 0)
(28.8503 58.7581 0)
(49.0545 50.2038 0)
(68.0877 42.8381 0)
(85.4274 36.1378 0)
(100.622 29.5325 0)
(113.148 22.4308 0)
(122.317 14.1994 0)
(127.152 4.11051 0)
(126.442 -8.74223 0)
(118.528 -25.6819 0)
(101.282 -49.2455 0)
(72.7831 -84.0225 0)
(34.1294 -134.785 0)
(-9.77403 -189.799 0)
(-10.272 -170.415 0)
(-13.3717 102.493 0)
(-18.5613 94.8883 0)
(17.1934 70.1622 0)
(53.0453 53.5976 0)
(85.7455 41.7685 0)
(114.679 33.0054 0)
(140.026 26.5013 0)
(162.057 21.5242 0)
(181 17.4376 0)
(196.938 13.7342 0)
(209.729 9.99637 0)
(218.964 5.85075 0)
(223.857 0.920642 0)
(223.474 -5.15694 0)
(216.126 -13.2158 0)
(199.357 -24.8326 0)
(169.472 -44.0632 0)
(122.423 -81.2913 0)
(49.1574 -142.707 0)
(22.8506 -165.606 0)
(107.395 64.3354 0)
(134.018 51.3348 0)
(196.577 32.8624 0)
(241.483 21.7944 0)
(271.674 14.9264 0)
(293.77 10.4157 0)
(310.871 7.43313 0)
(324.382 5.42745 0)
(335.113 3.99482 0)
(343.526 2.8564 0)
(349.773 1.81864 0)
(353.762 0.744145 0)
(355.178 -0.481025 0)
(353.44 -1.86139 0)
(347.474 -3.70287 0)
(335.86 -6.42508 0)
(314.859 -11.0819 0)
(278.648 -21.6216 0)
(197.015 -48.4506 0)
(139.366 -72.1224 0)
)
;

boundaryField
{
    movingWall
    {
        type            calculated;
        value           uniform (432.331 0 0);
    }
    fixedWalls
    {
        type            calculated;
        value           uniform (0 0 0);
    }
    frontAndBack
    {
        type            empty;
    }
}

