/*--------------------------------*- C++ -*----------------------------------*\
  =========                 |
  \\      /  F ield         | OpenFOAM: The Open Source CFD Toolbox
   \\    /   O peration     | Website:  https://openfoam.org
    \\  /    A nd           | Version:  6
     \\/     M anipulation  |
\*---------------------------------------------------------------------------*/
FoamFile
{
    version     2.0;
    format      ascii;
    class       volScalarField;
    location    "650";
    object      alphat;
}
// * * * * * * * * * * * * * * * * * * * * * * * * * * * * * * * * * * * * * //

dimensions      [1 -1 -1 0 0 0 0];

internalField   nonuniform List<scalar> 
16000
(
5.8753509e-06
2.4637302e-05
2.7058436e-05
3.8345638e-05
3.2923924e-05
4.2340603e-05
4.1609814e-05
4.6993325e-05
4.8379241e-05
4.854112e-05
4.9283668e-05
4.7737003e-05
4.7901638e-05
4.6658073e-05
4.6674949e-05
4.6094247e-05
4.6294173e-05
4.6337059e-05
4.6825525e-05
4.7360389e-05
4.8192408e-05
4.9169767e-05
5.0396611e-05
5.1828349e-05
5.3518385e-05
5.5471016e-05
5.7729402e-05
6.0325594e-05
6.3311716e-05
6.6744932e-05
7.0699636e-05
7.5265306e-05
8.0552908e-05
8.669775e-05
9.3866441e-05
0.00010226348
0.00011214037
0.00012380648
0.00013764248
0.00015411635
0.00017380367
0.00019741441
0.00022582142
0.00026009626
0.00030155242
0.0003517954
0.00041277688
0.0004868558
0.00057686057
0.0006861477
0.00081864996
0.00097892589
0.0011722544
0.0012236971
0.0012249588
0.0012251798
0.0012246527
0.0012237065
0.0012225517
0.0012211989
0.0012195313
0.0012175558
0.0012152194
0.0012124396
0.0012091636
0.0012054497
0.0012014733
0.001197618
0.0011940304
0.001190943
0.0011879902
0.0011857958
0.0011831967
0.0011819523
0.0011793336
0.0011804828
0.0011769455
0.0011841474
0.0011740304
0.0011832854
4.8997704e-06
2.4376984e-05
2.4804744e-05
3.5068361e-05
3.0403096e-05
3.8192437e-05
3.832569e-05
4.202897e-05
4.4174138e-05
4.3302204e-05
4.4493137e-05
4.2535179e-05
4.2884585e-05
4.1494966e-05
4.1598659e-05
4.1014466e-05
4.1222807e-05
4.1241809e-05
4.1686031e-05
4.2158856e-05
4.2903064e-05
4.3774492e-05
4.4868903e-05
4.6145495e-05
4.7651376e-05
4.9390577e-05
5.140069e-05
5.3710294e-05
5.6364924e-05
5.9414961e-05
6.2925521e-05
6.697513e-05
7.166111e-05
7.7102001e-05
8.3443753e-05
9.0865326e-05
9.9586486e-05
0.00010987713
0.00012206906
0.00013656975
0.00015387898
0.00017461237
0.00019952572
0.00022954527
0.00026580486
0.00030968988
0.00036288505
0.00042743002
0.00050577966
0.00060086557
0.0007161581
0.00085572488
0.0010243238
0.0012225247
0.0012240093
0.0012243674
0.0012238862
0.00122293
0.0012217623
0.0012204534
0.0012189632
0.0012171478
0.0012149662
0.0012123283
0.0012091699
0.0012055151
0.0012015425
0.0011976278
0.0011940204
0.0011908514
0.0011879443
0.0011855993
0.0011831999
0.0011818235
0.0011794039
0.001179827
0.0011768472
0.0011830127
0.001174067
0.0011829873
4.1897757e-06
2.4116861e-05
2.3024096e-05
3.2268627e-05
2.8400567e-05
3.4655026e-05
3.5835765e-05
3.7641737e-05
4.0579351e-05
3.8509875e-05
4.0103373e-05
3.7726648e-05
3.8232257e-05
3.6795891e-05
3.6974038e-05
3.6409345e-05
3.6624747e-05
3.6638879e-05
3.704903e-05
3.7479692e-05
3.8154711e-05
3.8944454e-05
3.9933042e-05
4.1085931e-05
4.2443431e-05
4.4010593e-05
4.5820056e-05
4.7898026e-05
5.0284733e-05
5.3025315e-05
5.6177608e-05
5.9811572e-05
6.4013761e-05
6.888957e-05
7.4568652e-05
8.1209982e-05
8.9008594e-05
9.8203822e-05
0.00010908936
0.00012202543
0.00013745303
0.00015591462
0.00017807495
0.00020474728
0.00023692533
0.00027582199
0.00032291132
0.0003799779
0.00044917316
0.00053307454
0.00063475026
0.00075782468
0.00090656132
0.0010859887
0.0012230879
0.0012235976
0.0012231691
0.0012221974
0.0012209972
0.001219666
0.0012181861
0.001216513
0.0012145202
0.0012120571
0.0012090474
0.001205486
0.0012015354
0.0011975844
0.0011939513
0.0011907368
0.0011878441
0.0011854209
0.0011831266
0.0011816766
0.0011794341
0.0011793836
0.0011768078
0.001182019
0.0011740537
0.001182104
3.7297349e-06
2.3770976e-05
2.1519505e-05
2.9648958e-05
2.6520376e-05
3.1421693e-05
3.3420819e-05
3.3711912e-05
3.7089382e-05
3.4228364e-05
3.5975887e-05
3.3415785e-05
3.399202e-05
3.2630904e-05
3.282839e-05
3.2318943e-05
3.2525252e-05
3.2550985e-05
3.2928383e-05
3.3329615e-05
3.394565e-05
3.4668705e-05
3.5568021e-05
3.6617116e-05
3.7849341e-05
3.9271328e-05
4.0911343e-05
4.2793873e-05
4.4954822e-05
4.7435125e-05
5.028671e-05
5.3572668e-05
5.7370892e-05
6.1776312e-05
6.6905538e-05
7.2901568e-05
7.9939805e-05
8.82354e-05
9.8052428e-05
0.00010971423
0.00012361572
0.00014024292
0.00016019062
0.00018418553
0.00021311445
0.00024805945
0.00029033507
0.00034153305
0.00040357489
0.00047876815
0.00056987126
0.00068016241
0.00081351893
0.00097453209
0.001168649
0.0012228544
0.0012224887
0.0012214994
0.0012202587
0.0012188921
0.0012173878
0.0012157177
0.0012138283
0.0012115788
0.0012087568
0.0012053281
0.0012014283
0.0011974624
0.0011938123
0.0011905746
0.0011876913
0.0011852248
0.0011830008
0.0011814111
0.0011794315
0.0011791137
0.0011767837
0.0011810108
0.0011740728
0.0011815724
3.3500708e-06
2.3299665e-05
2.0302477e-05
2.722124e-05
2.4795633e-05
2.8468983e-05
3.1150628e-05
3.015285e-05
3.3736573e-05
3.0340656e-05
3.2090944e-05
2.9566417e-05
3.0131523e-05
2.8897335e-05
2.9085113e-05
2.8648875e-05
2.8840211e-05
2.8886345e-05
2.9235179e-05
2.961576e-05
3.0182473e-05
3.0850648e-05
3.1674842e-05
3.2636476e-05
3.3762597e-05
3.5061425e-05
3.6557571e-05
3.82741e-05
4.0243388e-05
4.2502922e-05
4.5099766e-05
4.8091342e-05
5.1548474e-05
5.5557463e-05
6.0224289e-05
6.5679001e-05
7.2081021e-05
7.9625786e-05
8.8553447e-05
9.9158163e-05
0.00011179783
0.00012691333
0.0001450442
0.00016684897
0.00019313037
0.00022486826
0.00026325285
0.00030972601
0.00036603059
0.00043426375
0.00051694072
0.00061706449
0.00073820676
0.00088461024
0.0010613343
0.0012221228
0.0012218354
0.00122083
0.0012195432
0.0012181349
0.0012165963
0.0012149044
0.0012130224
0.0012108788
0.0012082877
0.001205036
0.0012012205
0.001197261
0.0011936057
0.0011903623
0.0011874902
0.0011850071
0.0011828316
0.0011811554
0.0011793817
0.0011788468
0.0011767694
0.0011801119
0.0011740996
0.0011808269
3.0296479e-06
2.0493699e-05
1.9239312e-05
2.4930744e-05
2.32276e-05
2.5740163e-05
2.9007338e-05
2.6911599e-05
3.0526511e-05
2.6848875e-05
2.8480004e-05
2.6149204e-05
2.6650602e-05
2.5572222e-05
2.5733198e-05
2.5377437e-05
2.5551769e-05
2.5622063e-05
2.5946916e-05
2.6312827e-05
2.6838933e-05
2.7462118e-05
2.8223841e-05
2.911248e-05
3.0149861e-05
3.1345495e-05
3.2721062e-05
3.4298434e-05
3.610716e-05
3.8181896e-05
4.0565754e-05
4.3311524e-05
4.6484277e-05
5.0163311e-05
5.4445999e-05
5.9451826e-05
6.5327404e-05
7.2252318e-05
8.0447201e-05
9.01831e-05
0.00010178838
0.00011566773
0.00013231659
0.00015233959
0.00017647244
0.000205614
0.00024085606
0.00028352139
0.00033521091
0.00039785343
0.00047376805
0.00056573311
0.00067706693
0.00081172523
0.00097443756
0.0011708561
0.0012211958
0.0012201786
0.0012188418
0.0012173872
0.001215809
0.0012140866
0.0012121898
0.0012100691
0.0012076241
0.0012045996
0.0012009082
0.001196978
0.0011933314
0.0011900983
0.0011872438
0.0011847642
0.0011826266
0.0011809017
0.0011792851
0.0011785761
0.0011767606
0.0011793781
0.0011741468
0.0011803049
2.7344085e-06
1.9086465e-05
1.8008446e-05
2.2764678e-05
2.1809178e-05
2.3229669e-05
2.6965783e-05
2.3960295e-05
2.7460816e-05
2.3769316e-05
2.5197021e-05
2.3119238e-05
2.3526557e-05
2.261276e-05
2.2738797e-05
2.2461771e-05
2.2619466e-05
2.2713446e-05
2.3018422e-05
2.3373035e-05
2.3865521e-05
2.445113e-05
2.5160574e-05
2.5987802e-05
2.6950571e-05
2.8059267e-05
2.9333294e-05
3.0793472e-05
3.2467049e-05
3.4386376e-05
3.6591308e-05
3.9130776e-05
4.2065195e-05
4.5468098e-05
4.9429791e-05
5.4061207e-05
5.9498479e-05
6.5908326e-05
7.3495513e-05
8.2512541e-05
9.3263898e-05
0.00010612516
0.00012155629
0.00014011885
0.00016249488
0.00018951847
0.00022220304
0.00026177624
0.00030972567
0.00036784546
0.00043829662
0.0005236752
0.00062709165
0.00075226713
0.00090365784
0.0010866119
0.0012205556
0.0012195357
0.0012181462
0.0012166423
0.0012150212
0.0012132638
0.0012113438
0.0012092209
0.001206825
0.001204009
0.0012004885
0.0011966124
0.0011929898
0.0011897818
0.0011869539
0.0011844936
0.0011823892
0.001180648
0.0011791471
0.0011782802
0.0011767497
0.0011787379
0.0011741966
0.0011797881
2.4731737e-06
1.8552883e-05
1.6794776e-05
2.0731707e-05
2.0506308e-05
2.0900771e-05
2.4959638e-05
2.1316719e-05
2.4507187e-05
2.1035094e-05
2.2213627e-05
2.0420527e-05
2.0723904e-05
1.9972217e-05
2.0064241e-05
1.9860825e-05
2.0005581e-05
2.012204e-05
2.0412149e-05
2.0758493e-05
2.1224173e-05
2.1779013e-05
2.2445523e-05
2.3221821e-05
2.4122601e-05
2.5158874e-05
2.6348251e-05
2.771062e-05
2.9271412e-05
3.1061054e-05
3.3116815e-05
3.5484373e-05
3.8220393e-05
4.1393706e-05
4.508883e-05
4.9409765e-05
5.4484143e-05
6.0468272e-05
6.7553892e-05
7.5978866e-05
8.6028243e-05
9.805415e-05
0.00011248794
0.00012985673
0.00015079921
0.0001760973
0.00020670164
0.00024376316
0.00028867832
0.0003431321
0.00040915714
0.00048920008
0.00058619972
0.00070368188
0.00084587625
0.0010178721
0.0012198982
0.0012188905
0.0012174473
0.0012158923
0.0012142264
0.0012124319
0.0012104846
0.0012083503
0.001205974
0.0012032535
0.0011999599
0.0011961655
0.0011925826
0.001189414
0.0011866238
0.0011841961
0.0011821248
0.0011803921
0.0011789766
0.001177983
0.0011767308
0.0011781428
0.0011742532
0.0011793538
2.2479631e-06
1.7966453e-05
1.5676383e-05
1.8803194e-05
1.9291232e-05
1.870565e-05
2.2940042e-05
1.894721e-05
2.1694986e-05
1.8589708e-05
1.9508213e-05
1.8005987e-05
1.8211074e-05
1.7610626e-05
1.767518e-05
1.7538169e-05
1.7675258e-05
1.7812464e-05
1.8092752e-05
1.8433472e-05
1.8878446e-05
1.9408556e-05
2.0040281e-05
2.0774815e-05
2.162461e-05
2.2600983e-05
2.3720273e-05
2.5001498e-05
2.6468661e-05
2.815062e-05
3.0082533e-05
3.2307421e-05
3.4878879e-05
3.7861927e-05
4.1336413e-05
4.5400637e-05
5.017542e-05
5.5808744e-05
6.2481384e-05
7.0420048e-05
7.9893892e-05
9.1236118e-05
0.00010485491
0.00012125012
0.00014102522
0.00016492018
0.00019383534
0.0002288596
0.00027131613
0.00032280179
0.00038524499
0.00046097041
0.00055277593
0.00066402575
0.00079876439
0.00096186582
0.0011591947
0.0012182325
0.0012167361
0.0012151296
0.0012134185
0.001211586
0.00120961
0.0012074602
0.0012050916
0.0012024284
0.0011993212
0.0011956397
0.0011921123
0.0011889971
0.0011862566
0.0011838732
0.001181839
0.0011801338
0.0011787817
0.0011777171
0.0011767016
0.0011775983
0.0011743246
0.0011789256
2.0525665e-06
1.7303341e-05
1.462965e-05
1.6956564e-05
1.814667e-05
1.6718439e-05
2.0885214e-05
1.6815715e-05
1.9080559e-05
1.6396515e-05
1.7069096e-05
1.5843199e-05
1.5964525e-05
1.5498618e-05
1.5544539e-05
1.5465535e-05
1.5600322e-05
1.5756342e-05
1.6031303e-05
1.6368709e-05
1.6798385e-05
1.7309126e-05
1.7913284e-05
1.8614136e-05
1.942263e-05
2.0350159e-05
2.1412123e-05
2.2626793e-05
2.4017035e-05
2.5610458e-05
2.7440527e-05
2.954806e-05
3.1984199e-05
3.4810909e-05
3.8104264e-05
4.1957937e-05
4.6487373e-05
5.1834016e-05
5.816918e-05
6.5711585e-05
7.4717358e-05
8.5504454e-05
9.8462222e-05
0.00011406951
0.00013290104
0.00015566289
0.00018321552
0.00021659758
0.00025707362
0.00030616933
0.00036572873
0.00043797745
0.00052559808
0.0006318219
0.00076054103
0.00091645111
0.0011052151
0.001217551
0.0012160038
0.0012143467
0.0012125913
0.0012107215
0.0012087168
0.0012065502
0.0012041832
0.001201557
0.0011985713
0.0011950393
0.0011915828
0.0011885347
0.001185856
0.0011835277
0.0011815373
0.0011798739
0.0011785697
0.001177481
0.0011766613
0.0011771167
0.0011744143
0.0011785115
1.8829728e-06
1.6532259e-05
1.3656715e-05
1.5178884e-05
1.7044506e-05
1.491765e-05
1.8785058e-05
1.4892533e-05
1.6675291e-05
1.4425794e-05
1.488203e-05
1.390492e-05
1.3961297e-05
1.3610951e-05
1.364755e-05
1.3618258e-05
1.3755638e-05
1.3928718e-05
1.4142424e-05
1.4468999e-05
1.4880825e-05
1.5371101e-05
1.594873e-05
1.6617833e-05
1.7387946e-05
1.8270159e-05
1.9278909e-05
2.0431602e-05
2.1749953e-05
2.3260382e-05
2.4994823e-05
2.699195e-05
2.9300722e-05
3.1980323e-05
3.5103461e-05
3.8759681e-05
4.3059631e-05
4.8139533e-05
5.4523104e-05
6.1746197e-05
7.0375602e-05
8.0717251e-05
9.3144909e-05
0.00010812197
0.00012619964
0.00014805671
0.00017452266
0.00020659533
0.00024549306
0.00029268457
0.00034994622
0.00041942395
0.00050370731
0.00060591992
0.00072982992
0.00087998779
0.0010618909
0.0012168358
0.0012152421
0.0012135366
0.0012117389
0.0012098337
0.001207802
0.0012056191
0.0012032516
0.0012006506
0.001197737
0.0011943701
0.0011909992
0.0011880313
0.0011854264
0.0011831629
0.001181225
0.0011796134
0.0011783473
0.0011772712
0.0011766089
0.0011767101
0.0011745204
0.0011781347
1.735611e-06
1.5637135e-05
1.2746837e-05
1.3459243e-05
1.5941175e-05
1.3281234e-05
1.666076e-05
1.3150522e-05
1.4483681e-05
1.2651146e-05
1.2929583e-05
1.2167594e-05
1.2179155e-05
1.1925895e-05
1.1904931e-05
1.1896821e-05
1.2028882e-05
1.2211093e-05
1.2481075e-05
1.2815714e-05
1.322636e-05
1.3710288e-05
1.4275054e-05
1.4925928e-05
1.5671905e-05
1.6524136e-05
1.7496594e-05
1.8606222e-05
1.9874012e-05
2.132564e-05
2.2992131e-05
2.4910508e-05
2.7128284e-05
2.9702744e-05
3.2704213e-05
3.6219233e-05
4.0354926e-05
4.5244887e-05
5.1048883e-05
5.79648e-05
6.6234703e-05
7.6154326e-05
8.8768092e-05
0.00010325042
0.00012073709
0.00014188466
0.00016749975
0.00019854679
0.00023620866
0.00028190918
0.00033737119
0.00040467757
0.00048634408
0.00058540882
0.00070554148
0.00085117731
0.0010276821
0.0012160771
0.0012144438
0.0012126932
0.0012108564
0.0012089189
0.001206863
0.001204666
0.0012022987
0.0011997203
0.0011968688
0.0011936397
0.0011903678
0.0011874922
0.0011849722
0.0011827828
0.0011809069
0.0011793538
0.0011781216
0.0011770836
0.0011765422
0.0011763811
0.0011746394
0.0011778296
1.6082685e-06
1.4613059e-05
1.1900559e-05
1.1898457e-05
1.4798867e-05
1.1788735e-05
1.4606135e-05
1.1567802e-05
1.2507286e-05
1.1051771e-05
1.1194281e-05
1.0612483e-05
1.0514841e-05
1.0315499e-05
1.0344e-05
1.0389438e-05
1.0543987e-05
1.0750256e-05
1.1031258e-05
1.1373353e-05
1.1784392e-05
1.2264278e-05
1.2819857e-05
1.3457183e-05
1.4184842e-05
1.5014023e-05
1.5958357e-05
1.7034379e-05
1.8262495e-05
1.9667807e-05
2.128082e-05
2.3137044e-05
2.5282997e-05
2.7774543e-05
3.0680262e-05
3.4084368e-05
3.8090753e-05
4.2831225e-05
4.8461254e-05
5.5174231e-05
6.320668e-05
7.2848082e-05
8.4454557e-05
9.8453479e-05
0.00011536923
0.00013696579
0.00016193356
0.00019219909
0.00022891942
0.0002734839
0.00032757408
0.00039322423
0.00047289313
0.00056955289
0.00068679746
0.00082897462
0.0010013511
0.001210297
0.0012136026
0.0012118113
0.0012099397
0.001207974
0.0012058976
0.0012036899
0.0012013249
0.0011987683
0.0011959712
0.0011928569
0.0011896958
0.0011869234
0.0011844982
0.0011823916
0.0011805869
0.0011790966
0.001177898
0.0011769149
0.0011764585
0.0011761167
0.0011747663
0.0011775766
1.4985508e-06
1.3462151e-05
1.1109918e-05
1.0482438e-05
1.3577999e-05
1.0426623e-05
1.2657316e-05
1.0130098e-05
1.0744767e-05
9.6128883e-06
9.5659756e-06
9.0866376e-06
9.0398092e-06
8.9311672e-06
8.988804e-06
9.0772795e-06
9.2526042e-06
9.4792251e-06
9.7710231e-06
1.0120495e-05
1.0533546e-05
1.1011707e-05
1.15615e-05
1.2189574e-05
1.2904167e-05
1.3716494e-05
1.463995e-05
1.5690733e-05
1.6888746e-05
1.8258616e-05
1.9754415e-05
2.1548362e-05
2.3622312e-05
2.6030731e-05
2.8840593e-05
3.2134052e-05
3.621844e-05
4.0845803e-05
4.6344799e-05
5.2905681e-05
6.0760868e-05
7.0193817e-05
8.1556974e-05
9.5268556e-05
0.00011184426
0.00013191423
0.00015623647
0.00018734043
0.00022337386
0.0002671093
0.00032019766
0.00038463731
0.00046284492
0.00055774384
0.00067287238
0.00081251615
0.00098187194
0.0011872342
0.0012127141
0.0012108872
0.0012089858
0.0012069968
0.0012049047
0.0012026905
0.0012003311
0.0011977971
0.0011950495
0.0011920317
0.0011889915
0.0011863316
0.0011840094
0.0011819934
0.0011802684
0.0011788435
0.0011776812
0.0011767635
0.0011763555
0.0011758559
0.0011748947
0.0011773735
1.4051375e-06
1.2198085e-05
1.0365832e-05
9.1958832e-06
1.2240405e-05
9.1799433e-06
1.0843549e-05
8.8221804e-06
9.1873713e-06
8.177056e-06
8.1105455e-06
7.7883516e-06
7.7683884e-06
7.7307855e-06
7.8161539e-06
7.9397369e-06
8.1344378e-06
8.3788346e-06
8.681417e-06
9.0385637e-06
9.4552509e-06
9.9339603e-06
1.0481084e-05
1.1077133e-05
1.1776556e-05
1.2570367e-05
1.3471482e-05
1.4495549e-05
1.5661749e-05
1.6993809e-05
1.8520652e-05
2.0277805e-05
2.2308957e-05
2.4667921e-05
2.7420991e-05
3.0649877e-05
3.4455234e-05
3.8961055e-05
4.4319909e-05
5.0719299e-05
5.8388272e-05
6.8117371e-05
7.9312352e-05
9.2825997e-05
0.00010916613
0.00012895795
0.00015294897
0.00018205418
0.00021935483
0.0002625273
0.00031493465
0.00037855058
0.00045576287
0.0005494615
0.00066314694
0.00080106424
0.0009683654
0.001171298
0.0012117752
0.0012099188
0.0012079933
0.0012059866
0.0012038842
0.0012016687
0.0011993192
0.0011968101
0.0011941096
0.0011911749
0.0011882635
0.0011857233
0.0011835105
0.001181592
0.0011799537
0.0011785963
0.0011774754
0.0011766256
0.0011762383
0.0011756398
0.0011750123
0.0011771929
1.3277313e-06
1.083468e-05
9.6601296e-06
8.0274897e-06
1.0828703e-05
8.0369561e-06
9.1982308e-06
7.5726053e-06
7.6183015e-06
6.9325058e-06
6.8689682e-06
6.6671011e-06
6.6760992e-06
6.6944759e-06
6.8060689e-06
6.9589568e-06
7.1718738e-06
7.4323473e-06
7.7458981e-06
8.1112676e-06
8.5131985e-06
8.9891501e-06
9.5312058e-06
1.0146003e-05
1.0842063e-05
1.1629787e-05
1.2522068e-05
1.3534434e-05
1.4685769e-05
1.5999605e-05
1.7504591e-05
1.9235936e-05
2.1236995e-05
2.3561202e-05
2.6274444e-05
2.9457937e-05
3.3211716e-05
3.7658943e-05
4.2951181e-05
4.9275094e-05
5.6860068e-05
6.5983434e-05
7.6984539e-05
9.0274187e-05
0.00010723394
0.00012685875
0.00015064913
0.00017951768
0.00021455785
0.00025950817
0.00031151156
0.00037463813
0.00045125877
0.00054424377
0.00065707157
0.00079396568
0.00096005643
0.0011615718
0.0012107851
0.0012089056
0.0012069623
0.0012049438
0.001202837
0.0012006258
0.0011982914
0.001195811
0.0011931576
0.0011902977
0.0011875208
0.0011851049
0.0011830061
0.0011811903
0.0011796437
0.0011783557
0.001177284
0.0011765003
0.0011761086
0.0011754583
0.0011751042
0.0011770163
1.2674792e-06
9.3836184e-06
8.970518e-06
6.9648564e-06
9.3771765e-06
6.9675323e-06
8.1741972e-06
6.3670593e-06
6.3211443e-06
5.8603793e-06
5.8134174e-06
5.7025461e-06
5.7414313e-06
5.8049368e-06
5.9412343e-06
6.1193387e-06
6.3496058e-06
6.6250972e-06
6.9314069e-06
7.3011876e-06
7.7253226e-06
8.2076359e-06
8.7537056e-06
9.3704192e-06
1.0066373e-05
1.0851948e-05
1.1740038e-05
1.2746163e-05
1.3888878e-05
1.5191669e-05
1.6683038e-05
1.8398061e-05
2.0379987e-05
2.2682167e-05
2.5370432e-05
2.8525962e-05
3.2248723e-05
3.6661624e-05
4.191571e-05
4.8196888e-05
5.5735704e-05
6.4808337e-05
7.5754789e-05
8.8985441e-05
0.0001049997
0.00012440448
0.00014920748
0.00017797315
0.00021289368
0.00025528813
0.0003096729
0.00037259543
0.00044896954
0.00054165848
0.0006541319
0.00079060905
0.00095621895
0.0011571949
0.001209745
0.001207849
0.0012058942
0.0012038702
0.001201765
0.0011995641
0.0011972505
0.0011948038
0.0011922001
0.0011894115
0.001186772
0.0011844827
0.0011824998
0.0011807901
0.0011793375
0.0011781204
0.0011771068
0.0011763855
0.0011759696
0.0011752993
0.0011751704
0.0011768398
1.2294852e-06
7.8695649e-06
8.2611807e-06
6.0088497e-06
7.9548236e-06
6.5291895e-06
6.5291795e-06
5.292268e-06
5.2466714e-06
4.9377468e-06
4.9183929e-06
4.8785798e-06
4.946858e-06
5.0478847e-06
5.2074193e-06
5.4077468e-06
5.6385218e-06
5.9242411e-06
6.2571407e-06
6.638528e-06
7.0719143e-06
7.5616413e-06
8.1134717e-06
8.7344442e-06
9.4332417e-06
1.0220134e-05
1.1108045e-05
1.2085979e-05
1.3217822e-05
1.4506521e-05
1.5980238e-05
1.7673714e-05
1.9629892e-05
2.1901848e-05
2.4555186e-05
2.767089e-05
3.1348757e-05
3.5711424e-05
4.0909226e-05
4.7437517e-05
5.4963734e-05
6.4024633e-05
7.4963039e-05
8.8189118e-05
0.00010420214
0.00012360995
0.00014714978
0.00017727092
0.00021220545
0.00025462142
0.00030611183
0.00037212119
0.00044853525
0.00054127719
0.00065381768
0.00079038682
0.00095613034
0.0011573086
0.001208658
0.0012067524
0.0012047926
0.0012027693
0.0012006716
0.0011984869
0.0011962
0.0011937927
0.0011912433
0.0011885267
0.0011860254
0.0011838621
0.0011819948
0.0011803917
0.0011790329
0.0011778883
0.0011769404
0.0011762751
0.001175825
0.0011751679
0.0011752196
0.0011766446
1.2169272e-06
7.1724101e-06
7.535021e-06
6.0912011e-06
7.5904162e-06
5.0295862e-06
5.0506637e-06
4.3916559e-06
4.3455804e-06
4.158576e-06
4.1660869e-06
4.1833117e-06
4.2792826e-06
4.4116951e-06
4.5804871e-06
4.7958082e-06
5.0552084e-06
5.3569632e-06
5.7030446e-06
6.0957327e-06
6.5388396e-06
7.0370519e-06
7.596265e-06
8.2235734e-06
8.9141782e-06
9.7010292e-06
1.0586818e-05
1.1586704e-05
1.2719274e-05
1.4007395e-05
1.5479292e-05
1.7169844e-05
1.9122232e-05
2.138988e-05
2.4038891e-05
2.7150893e-05
3.082652e-05
3.518955e-05
4.0391956e-05
4.6619794e-05
5.4100118e-05
6.3571065e-05
7.4539086e-05
8.7805994e-05
0.00010387152
0.0001233455
0.0001469678
0.0001756358
0.00021231012
0.00025487695
0.00030654771
0.00036927176
0.00044958153
0.00054265363
0.00065559659
0.00079266385
0.00095903331
0.0011610101
0.0012075299
0.0012056213
0.0012036629
0.0012016462
0.0011995617
0.0011973984
0.0011951434
0.0011927812
0.0011902923
0.0011876527
0.0011852881
0.0011832482
0.0011814935
0.0011799943
0.0011787263
0.0011776552
0.0011767759
0.0011761566
0.0011756783
0.0011750693
0.0011752308
0.0011764179
1.2269702e-06
7.3625524e-06
6.7492275e-06
6.611594e-06
6.6151991e-06
4.0168497e-06
4.0984552e-06
3.6309782e-06
3.5984474e-06
3.5058763e-06
3.5417043e-06
3.6042777e-06
3.7262554e-06
3.8725123e-06
4.0692061e-06
4.3051764e-06
4.5811675e-06
4.8972682e-06
5.2558318e-06
5.6597777e-06
6.1131613e-06
6.620885e-06
7.1807863e-06
7.8133587e-06
8.5214238e-06
9.3151574e-06
1.0206938e-05
1.1211903e-05
1.2348646e-05
1.3640105e-05
1.5114654e-05
1.6807434e-05
1.8761992e-05
2.1032272e-05
2.3685044e-05
2.6802784e-05
3.0487133e-05
3.4863136e-05
4.008424e-05
4.6338076e-05
5.3853897e-05
6.2911667e-05
7.4408692e-05
8.7750007e-05
0.00010390774
0.00012349476
0.00014725435
0.00017608784
0.00021300946
0.00025582053
0.00030778309
0.00037085648
0.00045170086
0.00054530081
0.00065888687
0.00079674477
0.00096409617
0.0011673047
0.001206368
0.001204463
0.0012025121
0.0012005077
0.0011984413
0.0011963037
0.0011940844
0.0011917711
0.0011893485
0.0011867971
0.0011845658
0.0011826448
0.0011809977
0.0011795964
0.0011784141
0.0011774158
0.001176603
0.0011760229
0.0011755404
0.0011749902
0.0011751808
0.0011761407
1.0180538e-06
7.8291922e-06
5.8693834e-06
4.3081263e-06
4.2636858e-06
3.3356093e-06
3.2742376e-06
3.015673e-06
2.9902948e-06
2.9681141e-06
3.031842e-06
3.1298976e-06
3.2645257e-06
3.4420059e-06
3.6590089e-06
3.912344e-06
4.2030734e-06
4.5324289e-06
4.9031129e-06
5.3184459e-06
5.7826409e-06
6.2949426e-06
6.870732e-06
7.513039e-06
8.230245e-06
9.0324821e-06
9.9320882e-06
1.0944193e-05
1.2087439e-05
1.338489e-05
1.4865139e-05
1.6563672e-05
1.8524513e-05
2.0802239e-05
2.3464412e-05
2.6594456e-05
3.0295198e-05
3.4693162e-05
3.9943452e-05
4.6235002e-05
5.3798806e-05
6.3384637e-05
7.4490924e-05
8.7926733e-05
0.00010420032
0.00012392837
0.00014785863
0.00017689766
0.00021408054
0.00025718781
0.00030950539
0.00037300526
0.000454432
0.00054866734
0.00066302855
0.00080183938
0.00097037202
0.0011750568
0.0012051809
0.0012032861
0.0012013488
0.0011993621
0.0011973185
0.0011952101
0.0011930282
0.0011907634
0.0011884053
0.001185965
0.0011838619
0.0011820546
0.0011805088
0.001179198
0.0011780937
0.0011771637
0.001176415
0.001175873
0.0011753884
0.0011748611
0.0011750599
0.0011758002
7.9558263e-07
6.1182293e-06
4.6049142e-06
3.2350708e-06
3.3070877e-06
2.7032908e-06
2.6389587e-06
2.4938067e-06
2.4985442e-06
2.5267521e-06
2.6190819e-06
2.7386101e-06
2.9022184e-06
3.1013245e-06
3.3356414e-06
3.6041482e-06
3.9083712e-06
4.2502787e-06
4.6328372e-06
5.0596016e-06
5.5315004e-06
6.0588925e-06
6.6454037e-06
7.2979957e-06
8.0249947e-06
8.8364819e-06
9.7447677e-06
1.0764993e-05
1.1915882e-05
1.3220666e-05
1.4708209e-05
1.641439e-05
1.8383771e-05
2.0671618e-05
2.3346305e-05
2.6492214e-05
3.0213367e-05
3.4637842e-05
3.9922904e-05
4.6258475e-05
5.4249698e-05
6.3510584e-05
7.4698006e-05
8.823328e-05
0.00010462805
0.00012450302
0.00014861077
0.00017786318
0.00021527432
0.00025868191
0.00031136014
0.0003752944
0.00045725464
0.00055213012
0.00066727456
0.00080705088
0.00097678324
0.0011829699
0.001203979
0.0012021006
0.0012001828
0.0011982193
0.0011962035
0.001194128
0.0011919853
0.0011897668
0.0011874635
0.0011851595
0.0011831774
0.0011814776
0.0011800271
0.0011787994
0.001177765
0.0011768968
0.0011762048
0.0011756928
0.0011752122
0.0011747291
0.0011748987
0.0011754094
6.2121621e-07
3.401025e-06
3.6573012e-06
2.6309065e-06
2.5536509e-06
2.1862678e-06
2.1386611e-06
2.0738524e-06
2.1085278e-06
2.1763584e-06
2.2939532e-06
2.4382611e-06
2.6225835e-06
2.8392394e-06
3.0883393e-06
3.370258e-06
3.6869063e-06
4.0406855e-06
4.4347044e-06
4.8726084e-06
5.3586904e-06
5.8948954e-06
6.4919534e-06
7.1546799e-06
7.8913443e-06
8.7119841e-06
9.6288968e-06
1.0657257e-05
1.1815889e-05
1.3128207e-05
1.4623361e-05
1.6337642e-05
1.8316152e-05
2.0614835e-05
2.3302838e-05
2.6465419e-05
3.0207499e-05
3.4847746e-05
4.0206679e-05
4.6632266e-05
5.4360919e-05
6.3680543e-05
7.4940341e-05
8.8563655e-05
0.00010506481
0.00012506784
0.00014933036
0.00018033778
0.00021631888
0.0002599764
0.00031295501
0.00037725227
0.00045958452
0.00055498647
0.00067077908
0.0008113601
0.0009821002
0.0011895588
0.0012027731
0.001200917
0.0011990246
0.00119709
0.0011951074
0.0011930702
0.0011909716
0.0011888044
0.0011865606
0.0011843816
0.0011825109
0.0011809101
0.0011795478
0.0011783966
0.0011774269
0.0011766164
0.0011759738
0.0011754843
0.001175019
0.0011745994
0.0011747325
0.0011750577
5.0269273e-07
2.5973701e-06
2.7996435e-06
2.0784525e-06
1.9899301e-06
1.7760475e-06
1.7504851e-06
1.7431108e-06
1.806091e-06
1.9053718e-06
2.0451744e-06
2.2121727e-06
2.4134996e-06
2.6448963e-06
2.9069944e-06
3.2009942e-06
3.5290574e-06
3.8938055e-06
4.2984039e-06
4.7465169e-06
5.2424011e-06
5.7910059e-06
6.3981461e-06
7.0707369e-06
7.8171014e-06
8.6473701e-06
9.5739846e-06
1.0612332e-05
1.1781526e-05
1.3105367e-05
1.4613499e-05
1.6342831e-05
1.8339227e-05
2.065953e-05
2.3373958e-05
2.6569122e-05
3.0351558e-05
3.4851817e-05
4.0229177e-05
4.6678188e-05
5.4436504e-05
6.3793239e-05
7.5099425e-05
8.8778679e-05
0.00010534609
0.00012648572
0.00015101827
0.00018077055
0.00021686224
0.00026065145
0.00031378793
0.00038184873
0.00046068247
0.00055635337
0.00067248655
0.00081350381
0.00098480906
0.001193006
0.0012015737
0.0011997454
0.0011978834
0.0011959828
0.001194038
0.0011920435
0.0011899932
0.0011878808
0.0011856997
0.0011836313
0.0011818592
0.0011803465
0.0011790624
0.0011779789
0.0011770674
0.0011763099
0.0011757097
0.0011752394
0.0011747966
0.0011744371
0.0011745251
0.0011746947
3.8680178e-07
2.0226711e-06
2.1018471e-06
1.6497692e-06
1.5596531e-06
1.4480667e-06
1.4470628e-06
1.4823735e-06
1.5709458e-06
1.6951787e-06
1.8533732e-06
2.0390039e-06
2.2535969e-06
2.4966437e-06
2.7692047e-06
3.0729445e-06
3.4101658e-06
3.7835947e-06
4.1964112e-06
4.652273e-06
5.1554116e-06
5.7107423e-06
6.3240217e-06
7.0020923e-06
7.7532049e-06
8.5874211e-06
9.5171282e-06
1.0557679e-05
1.1728186e-05
1.3052475e-05
1.4560267e-05
1.6288586e-05
1.8283443e-05
2.0601842e-05
2.3314271e-05
2.65078e-05
3.0289059e-05
3.478857e-05
4.0165607e-05
4.6614892e-05
5.4373738e-05
6.4200438e-05
7.5592742e-05
8.9371673e-05
0.00010605416
0.00012626726
0.00015077138
0.00018048895
0.0002165395
0.0002602782
0.00031621049
0.00038107736
0.00045979106
0.00055532953
0.00067132172
0.00081219656
0.00098336911
0.00119146
0.0012003938
0.0011985978
0.0011967707
0.001194908
0.0011930048
0.0011910561
0.0011890567
0.0011870012
0.001184884
0.0011829094
0.0011812209
0.0011797827
0.0011785645
0.001177538
0.0011766765
0.0011759644
0.0011753988
0.0011749452
0.0011745295
0.0011742204
0.0011742597
0.0011743091
2.4465939e-07
1.597859e-06
1.5337333e-06
1.3209657e-06
1.2395088e-06
1.1970353e-06
1.2234274e-06
1.2933875e-06
1.4062334e-06
1.5518865e-06
1.7265871e-06
1.9276156e-06
2.1548375e-06
2.4090371e-06
2.6917508e-06
3.0043602e-06
3.3503447e-06
3.732015e-06
4.1525542e-06
4.615631e-06
5.1255012e-06
5.687084e-06
6.3060613e-06
6.9891914e-06
7.74465e-06
8.5824124e-06
9.5147896e-06
1.055706e-05
1.1728265e-05
1.3052176e-05
1.4558458e-05
1.6284069e-05
1.8274902e-05
2.0587762e-05
2.3381136e-05
2.6586995e-05
3.0382392e-05
3.4897816e-05
4.0292777e-05
4.6762325e-05
5.4543635e-05
6.3924344e-05
7.5253764e-05
8.8955995e-05
0.0001055436
0.00012563907
0.00014999716
0.00018113631
0.00021722484
0.00026099346
0.00031408791
0.00037850866
0.00045668959
0.00055159481
0.0006668381
0.00080683172
0.00097697273
0.0011838615
0.0011992419
0.0011974821
0.0011956935
0.0011938718
0.0011920129
0.0011901122
0.0011881652
0.001186167
0.0011841129
0.0011822129
0.0011805909
0.0011792118
0.0011780455
0.001177064
0.0011762423
0.0011755661
0.0011750264
0.0011745869
0.0011741979
0.0011739264
0.0011739158
0.001173872
3.3574741e-07
1.2844806e-06
1.1263872e-06
1.0587256e-06
1.0137033e-06
1.012326e-06
1.0617537e-06
1.1543434e-06
1.2824233e-06
1.4393791e-06
1.6217117e-06
1.8283005e-06
2.0595068e-06
2.3165001e-06
2.6009878e-06
2.9150592e-06
3.2611644e-06
3.6421406e-06
4.061233e-06
4.5221579e-06
5.0291325e-06
5.5869077e-06
6.200613e-06
6.8770412e-06
7.6243572e-06
8.4524963e-06
9.373682e-06
1.0403075e-05
1.1559555e-05
1.2866692e-05
1.43539e-05
1.6057806e-05
1.8023889e-05
2.0308468e-05
2.2981098e-05
2.6127136e-05
2.9851211e-05
3.428146e-05
3.95748e-05
4.5922727e-05
5.3557706e-05
6.2761899e-05
7.4451543e-05
8.7999895e-05
0.00010439837
0.00012426214
0.00014833749
0.00017753003
0.00021293921
0.00025590054
0.00030803731
0.00037132419
0.00044816527
0.00054149019
0.00065487285
0.00079267941
0.00096025248
0.0011641286
0.0011981129
0.0011963947
0.0011946492
0.0011928727
0.0011910614
0.0011892114
0.0011873188
0.0011853794
0.0011833892
0.001181542
0.0011799671
0.0011786297
0.0011774995
0.001176549
0.0011757548
0.0011751023
0.0011745775
0.0011741458