/*--------------------------------*- C++ -*----------------------------------*\
  =========                 |
  \\      /  F ield         | OpenFOAM: The Open Source CFD Toolbox
   \\    /   O peration     | Website:  https://openfoam.org
    \\  /    A nd           | Version:  6
     \\/     M anipulation  |
\*---------------------------------------------------------------------------*/
FoamFile
{
    version     2.0;
    format      ascii;
    class       volScalarField;
    location    "650";
    object      k;
}
// * * * * * * * * * * * * * * * * * * * * * * * * * * * * * * * * * * * * * //

dimensions      [0 2 -2 0 0 0 0];

internalField   nonuniform List<scalar> 
16000
(
0.12515182
0.031758132
0.021392194
0.017637514
0.015211543
0.014324548
0.013312262
0.012975168
0.012507981
0.012289383
0.012036215
0.011870396
0.011710096
0.011583713
0.011471106
0.011378108
0.011300329
0.011234854
0.011179085
0.011131253
0.011089894
0.011053909
0.011022398
0.010994656
0.010970106
0.010948281
0.010928793
0.010911319
0.01089559
0.010881375
0.01086848
0.010856738
0.010846001
0.01083614
0.010827038
0.01081859
0.010810697
0.010803268
0.010796215
0.010789457
0.010782916
0.010776515
0.010770182
0.010763845
0.010757434
0.010750881
0.010744116
0.01073707
0.010729675
0.01072186
0.010713554
0.010704683
0.01069517
0.010684934
0.010673876
0.010661867
0.010648737
0.010634256
0.010618046
0.010599141
0.010575687
0.010547795
0.010514673
0.010475048
0.010428197
0.010374978
0.010318323
0.010263786
0.010214248
0.01017208
0.010133879
0.010105298
0.010075432
0.010059235
0.010036464
0.01004951
0.010030742
0.010115142
0.01003395
0.010115863
0.10611297
0.03226796
0.020877031
0.017512532
0.015022113
0.014244422
0.013211811
0.012906282
0.01243519
0.012223001
0.011971861
0.011806542
0.011649311
0.011522906
0.011417032
0.011330117
0.011257417
0.011196229
0.011144113
0.011099417
0.011060772
0.011027146
0.010997696
0.010971759
0.010948795
0.010928365
0.010910103
0.010893707
0.010878921
0.010865528
0.010853345
0.010842214
0.010831996
0.010822569
0.010813822
0.010805657
0.010797979
0.010790705
0.010783752
0.010777043
0.010770504
0.010764065
0.010757658
0.010751216
0.010744673
0.010737965
0.010731027
0.010723795
0.010716202
0.010708184
0.01069967
0.010690591
0.010680872
0.010670432
0.01065918
0.010647002
0.010633744
0.010619214
0.010603178
0.010585315
0.01056494
0.010539836
0.010509385
0.010472212
0.010427385
0.010375298
0.010318822
0.01026362
0.010213751
0.010170739
0.010132842
0.010102874
0.01007498
0.010058808
0.010036088
0.010042363
0.010026445
0.010102242
0.010032189
0.010114615
0.091883787
0.032730249
0.020342776
0.017363679
0.01482668
0.014148543
0.01310743
0.012827114
0.012359165
0.012149622
0.011904314
0.011737668
0.011585486
0.011465042
0.011366304
0.011285255
0.011217462
0.011160413
0.011111829
0.011070163
0.011034137
0.011002786
0.010975322
0.010951122
0.01092968
0.010910583
0.01089349
0.010878115
0.010864217
0.010851592
0.010840068
0.010829494
0.010819741
0.010810693
0.010802246
0.010794308
0.01078679
0.010779613
0.010772701
0.010765982
0.010759386
0.01075285
0.010746308
0.0107397
0.010732964
0.010726041
0.01071887
0.010711391
0.010703542
0.01069526
0.010686481
0.010677137
0.010667154
0.010656456
0.010644954
0.010632544
0.010619085
0.010604397
0.01058827
0.010570459
0.010550616
0.010528056
0.010500837
0.010466653
0.010424373
0.010373963
0.010318012
0.010262474
0.010212313
0.010168879
0.010131119
0.010100481
0.010073595
0.01005772
0.010035764
0.010037759
0.010023969
0.010091063
0.010030139
0.010105017
0.082468224
0.032938886
0.019809495
0.017191132
0.014629896
0.0140353
0.013001864
0.012736063
0.012280665
0.01206812
0.011833508
0.011664369
0.01152281
0.011410758
0.011318898
0.011243495
0.011180435
0.011127373
0.011082192
0.011043444
0.011009938
0.010980772
0.010955211
0.010932672
0.010912679
0.010894848
0.010878857
0.010864438
0.010851365
0.010839447
0.010828519
0.010818442
0.010809092
0.010800362
0.010792154
0.010784382
0.010776963
0.010769823
0.010762893
0.010756104
0.010749394
0.010742702
0.010735969
0.010729139
0.010722156
0.010714963
0.010707507
0.010699729
0.010691573
0.010682979
0.010673887
0.01066423
0.010653939
0.010642938
0.010631142
0.010618453
0.010604743
0.01058984
0.010573544
0.010555632
0.010535825
0.010513695
0.010488422
0.010457854
0.010418749
0.010370639
0.010315682
0.010260125
0.010209852
0.010166266
0.010128671
0.010097695
0.010071571
0.010054404
0.010035306
0.010035319
0.010022064
0.010078812
0.010028411
0.010098622
0.07421245
0.03278243
0.01928834
0.016993204
0.014433092
0.013903839
0.012895517
0.012632606
0.012199632
0.011978211
0.011759166
0.011595513
0.011464168
0.011360157
0.011274916
0.01120494
0.011146435
0.01109721
0.011055302
0.011019356
0.010988269
0.010961196
0.010937452
0.010916492
0.010897873
0.010881233
0.010866272
0.010852738
0.01084042
0.010829138
0.010818737
0.010809087
0.010800071
0.01079159
0.010783551
0.010775875
0.010768486
0.010761316
0.010754299
0.010747374
0.010740484
0.010733572
0.010726586
0.010719474
0.010712184
0.010704666
0.010696868
0.010688739
0.010680224
0.010671269
0.010661814
0.010651798
0.010641153
0.010629807
0.010617676
0.010604665
0.010590656
0.01057549
0.010558973
0.010540893
0.010520998
0.010498937
0.010474154
0.01044556
0.010410318
0.010365204
0.01031178
0.010256538
0.010206358
0.010162868
0.010125533
0.010094523
0.010069019
0.010051094
0.010034316
0.010032697
0.010020639
0.010067606
0.01002696
0.010088602
0.06697215
0.032106222
0.018791463
0.016768166
0.014238017
0.013752981
0.012789017
0.012515961
0.012115956
0.011885248
0.011682721
0.011531182
0.011409632
0.011313316
0.011234428
0.011169658
0.011115527
0.011069981
0.01103121
0.010997947
0.010969168
0.010944088
0.010922068
0.0109026
0.010885268
0.010869736
0.010855723
0.010842994
0.010831351
0.010820625
0.010810672
0.010801368
0.010792607
0.010784295
0.010776348
0.010768692
0.010761257
0.010753981
0.010746806
0.010739676
0.010732537
0.010725341
0.010718039
0.010710585
0.010702931
0.010695033
0.010686843
0.010678313
0.010669393
0.010660031
0.010650172
0.010639756
0.010628719
0.010616989
0.010604487
0.01059112
0.010576776
0.010561307
0.010544528
0.010526234
0.01050619
0.010484084
0.010459463
0.010431576
0.010398906
0.010357569
0.010306298
0.010251723
0.010201861
0.010158694
0.010121739
0.010090938
0.010065981
0.010047664
0.01003273
0.010029766
0.010019434
0.010058441
0.010025651
0.010081342
0.060624804
0.031046893
0.018323448
0.016513737
0.014046557
0.01358171
0.012682913
0.012385619
0.012028874
0.011798274
0.011611512
0.011471485
0.0113593
0.011270335
0.01119753
0.011137742
0.011087796
0.011045768
0.011009993
0.010979286
0.0109527
0.010929505
0.010909107
0.010891032
0.010874893
0.010860376
0.010847219
0.010835203
0.010824143
0.010813882
0.010804286
0.010795239
0.010786643
0.010778412
0.010770469
0.010762747
0.010755183
0.010747722
0.01074031
0.0107329
0.010725443
0.010717895
0.010710214
0.010702359
0.010694286
0.010685956
0.010677325
0.010668348
0.01065898
0.010649172
0.010638871
0.010628019
0.010616556
0.010604412
0.010591509
0.010577756
0.010563047
0.010547245
0.01053017
0.010511627
0.010491394
0.010469183
0.010444599
0.01041704
0.010385451
0.010347609
0.010299213
0.010245686
0.010196376
0.01015375
0.010117322
0.010086931
0.010062497
0.010044141
0.010030564
0.010026142
0.010018253
0.010050425
0.010024315
0.010073543
0.05506039
0.029971386
0.017870743
0.016228377
0.013860534
0.013389596
0.01257757
0.012257686
0.011936527
0.011717352
0.01154559
0.011416499
0.011313248
0.011231296
0.011164299
0.011109269
0.011063317
0.01102464
0.010991712
0.010963426
0.01093891
0.010917483
0.010898595
0.010881803
0.01086675
0.010853143
0.010840737
0.010829329
0.010818747
0.010808847
0.010799503
0.010790611
0.010782079
0.010773831
0.010765796
0.010757915
0.010750133
0.010742401
0.010734673
0.010726906
0.010719059
0.010711094
0.010702973
0.01069466
0.010686117
0.010677307
0.010668191
0.010658729
0.010648877
0.010638589
0.010627815
0.0106165
0.010604584
0.010592001
0.010578673
0.010564514
0.010549419
0.010533259
0.010515866
0.010497049
0.010476598
0.010454247
0.010429638
0.010402261
0.010371296
0.010335207
0.010290541
0.01023848
0.010189956
0.01014808
0.010112339
0.010082532
0.010058637
0.010040511
0.010027959
0.010022242
0.010016954
0.010042775
0.01002272
0.010066418
0.050175808
0.028984013
0.01743081
0.01591171
0.01368124
0.01317645
0.012471472
0.012137982
0.011844189
0.01164256
0.011485023
0.011366315
0.011271562
0.011196291
0.011134824
0.011084324
0.011042167
0.01100667
0.010976431
0.010950424
0.010927842
0.010908052
0.010890548
0.010874918
0.010860829
0.010848009
0.010836233
0.010825313
0.01081509
0.010805432
0.010796223
0.01078737
0.010778791
0.010770416
0.010762185
0.010754046
0.010745952
0.010737862
0.010729734
0.010721536
0.01071323
0.010704784
0.010696166
0.010687344
0.010678284
0.010668954
0.010659318
0.010649338
0.010638973
0.01062818
0.01061691
0.010605111
0.010592724
0.010579684
0.010565917
0.010551336
0.010535841
0.010519309
0.010501583
0.010482476
0.010461791
0.010439276
0.010414608
0.01038734
0.010356805
0.010321873
0.010280302
0.010230175
0.010182668
0.01014174
0.010106854
0.010077788
0.010054491
0.010036803
0.010025032
0.010018622
0.010015504
0.010035592
0.010020992
0.010059137
0.045879788
0.028063209
0.01700602
0.015562739
0.013509604
0.012975433
0.01236205
0.012027165
0.011759083
0.011573973
0.011429884
0.011321027
0.011234336
0.011165413
0.011109194
0.011062991
0.011024425
0.010991923
0.010964206
0.01094032
0.010919521
0.010901225
0.010884961
0.010870351
0.010857085
0.010844913
0.010833628
0.010823056
0.010813055
0.010803504
0.0107943
0.010785359
0.010776609
0.010767992
0.010759455
0.010750955
0.010742453
0.010733916
0.01072531
0.010716608
0.010707779
0.010698795
0.01068963
0.010680255
0.010670642
0.010660759
0.010650575
0.010640054
0.010629157
0.010617842
0.010606063
0.010593768
0.010580899
0.010567394
0.010553179
0.010538171
0.010522271
0.010505361
0.010487294
0.010467891
0.010446964
0.010424277
0.010399532
0.010372333
0.010342115
0.010308009
0.010268525
0.010220873
0.010174601
0.010134811
0.010100947
0.010072759
0.010050146
0.010033049
0.010021883
0.010015264
0.010013904
0.010029046
0.010019163
0.010051867
0.042093653
0.027187963
0.016597613
0.015180123
0.013344196
0.012787857
0.01224611
0.011925213
0.011681206
0.011511662
0.011380252
0.011280731
0.011201667
0.011138761
0.011087502
0.011045354
0.011010162
0.01098046
0.010955079
0.010933138
0.010913953
0.010896982
0.010881795
0.01086804
0.010855434
0.010843749
0.010832793
0.010822413
0.010812479
0.010802884
0.01079354
0.010784372
0.010775323
0.010766341
0.010757385
0.01074842
0.010739418
0.01073035
0.010721192
0.010711921
0.010702513
0.010692944
0.010683193
0.010673233
0.010663039
0.010652583
0.010641834
0.010630759
0.010619321
0.010607478
0.010595185
0.010582391
0.010569041
0.01055507
0.010540409
0.010524974
0.010508671
0.010491386
0.01047298
0.010453284
0.010432116
0.010409258
0.010384433
0.010357284
0.010327327
0.010293843
0.010255666
0.010210703
0.010165867
0.010127392
0.010094706
0.010067523
0.010045698
0.010029296
0.010018618
0.010012156
0.010012181
0.010023365
0.010017449
0.010045255
0.038749129
0.02633622
0.016207449
0.014762714
0.013182938
0.012614455
0.012125319
0.011832095
0.011610568
0.011455697
0.011336214
0.011245526
0.011173654
0.011116431
0.011069834
0.011031487
0.010999435
0.010972317
0.010949065
0.010928871
0.010911104
0.010895265
0.01088096
0.01086787
0.010855735
0.010844349
0.010833541
0.010823173
0.010813133
0.010803331
0.010793691
0.010784153
0.010774669
0.0107652
0.010755715
0.010746189
0.010736599
0.010726927
0.010717154
0.010707262
0.010697231
0.010687044
0.01067668
0.010666115
0.010655327
0.010644289
0.010632972
0.010621343
0.010609365
0.010596998
0.010584197
0.010570912
0.010557087
0.01054266
0.010527561
0.01051171
0.010495015
0.010477365
0.010458631
0.010438651
0.010417254
0.010394235
0.010369338
0.010342241
0.010312523
0.010279592
0.010242538
0.010199821
0.010156599
0.010119597
0.010088229
0.010062166
0.010041236
0.010025597
0.010015346
0.010009273
0.010010327
0.010018647
0.010015832
0.010039688
0.035786307
0.025484297
0.015837344
0.014380439
0.013022629
0.012455964
0.012015232
0.011747765
0.011547182
0.011406147
0.011297857
0.01121551
0.011150393
0.011098509
0.011056263
0.011021442
0.010992274
0.0109675
0.010946144
0.010927465
0.010910886
0.010895952
0.010882305
0.010869657
0.010857774
0.010846474
0.010835607
0.010825055
0.010814725
0.010804541
0.010794445
0.01078439
0.01077434
0.01076427
0.010754156
0.010743981
0.010733732
0.010723397
0.010712961
0.010702411
0.010691733
0.010680909
0.010669922
0.010658749
0.010647369
0.010635755
0.010623878
0.010611706
0.010599202
0.010586326
0.010573033
0.010559273
0.010544991
0.010530126
0.010514607
0.010498357
0.010481287
0.010463291
0.010444246
0.010424001
0.010402394
0.010379232
0.010354281
0.010327249
0.010297766
0.010265338
0.010229259
0.010188404
0.010146946
0.010111552
0.010081622
0.01005678
0.010036846
0.010022008
0.010012161
0.010006593
0.010008285
0.010014699
0.010014331
0.010034889
0.033153936
0.024607471
0.015486426
0.014032253
0.012858693
0.012311953
0.011915647
0.011672204
0.011491096
0.011363097
0.011265282
0.011190783
0.011131975
0.011085071
0.011046849
0.011015253
0.010988677
0.010965965
0.010946229
0.010928791
0.01091313
0.010898833
0.010885581
0.010873118
0.010861239
0.010849787
0.010838638
0.010827694
0.010816879
0.01080614
0.010795432
0.010784722
0.010773989
0.010763216
0.010752391
0.010741503
0.010730544
0.010719507
0.010708383
0.010697161
0.010685828
0.010674369
0.010662767
0.010650998
0.010639042
0.010626872
0.010614458
0.010601767
0.010588762
0.010575403
0.010561644
0.010547435
0.010532722
0.010517442
0.010501529
0.010484905
0.010467485
0.010449169
0.010429838
0.010409353
0.010387562
0.010364285
0.010339307
0.010312361
0.010283122
0.010251173
0.010215954
0.010176647
0.010137074
0.010103395
0.010074997
0.010051463
0.010032613
0.010018593
0.01000915
0.010004133
0.010006042
0.010010596
0.010012884
0.010030901
0.03080764
0.023678158
0.0151535
0.013716431
0.012684634
0.012181982
0.011826388
0.011605391
0.011442364
0.011326626
0.011238579
0.011171428
0.011118486
0.011076171
0.011041604
0.011012884
0.01098856
0.010967576
0.01094913
0.010932609
0.010917547
0.010903575
0.010890416
0.01087785
0.010865703
0.010853847
0.010842183
0.010830635
0.010819151
0.010807693
0.010796232
0.010784753
0.010773242
0.010761693
0.0107501
0.01073846
0.010726768
0.010715019
0.010703206
0.010691321
0.01067935
0.010667278
0.010655086
0.010642752
0.010630252
0.01061756
0.010604644
0.010591469
0.010577999
0.010564191
0.01055
0.010535376
0.010520264
0.010504603
0.010488328
0.010471362
0.010453624
0.010435018
0.010415434
0.01039474
0.010372797
0.010349439
0.010324466
0.01029764
0.010268668
0.010237192
0.010202758
0.010164758
0.010127155
0.010095266
0.010068466
0.010046307
0.010028611
0.01001542
0.010006407
0.010001909
0.010003769
0.010007017
0.010011338
0.01002745
0.0287094
0.022666374
0.014836627
0.013432269
0.012519763
0.012065627
0.011747317
0.011547308
0.011401046
0.011296801
0.01121785
0.011157526
0.011109957
0.01107179
0.011040449
0.011014192
0.010991715
0.01097206
0.010954513
0.010938527
0.010923694
0.010909697
0.010896298
0.010883317
0.010870619
0.010858104
0.010845699
0.010833355
0.010821037
0.010808725
0.010796406
0.010784075
0.010771727
0.010759364
0.010746984
0.010734586
0.010722168
0.010709726
0.010697252
0.010684736
0.010672166
0.010659522
0.010646786
0.010633932
0.010620935
0.010607766
0.010594393
0.01058078
0.010566888
0.010552675
0.010538094
0.010523095
0.010507625
0.010491622
0.010475022
0.010457753
0.010439734
0.010420875
0.010401074
0.010380209
0.010358151
0.010334748
0.010309822
0.010283155
0.010254484
0.010223495
0.010189808
0.010152952
0.010117366
0.010087306
0.010062138
0.0100414
0.010024897
0.010012548
0.01000402
0.0099999634
0.010001499
0.010003832
0.010009522
0.010024314
0.026827343
0.021540104
0.014532659
0.013178265
0.012372237
0.011962577
0.011678372
0.011497908
0.01136717
0.011273711
0.011203151
0.01114908
0.011106326
0.011071788
0.011043164
0.011018874
0.010997758
0.01097896
0.010961854
0.010945966
0.010930949
0.010916544
0.010902558
0.010888854
0.010875332
0.010861924
0.010848585
0.010835287
0.010822014
0.010808759
0.010795521
0.010782302
0.010769105
0.010755933
0.010742785
0.010729663
0.010716561
0.010703474
0.010690392
0.010677303
0.01066419
0.010651035
0.010637813
0.010624498
0.010611062
0.010597473
0.010583697
0.010569698
0.010555436
0.010540867
0.010525943
0.010510616
0.010494832
0.010478531
0.01046165
0.010444119
0.010425861
0.010406792
0.010386815
0.010365819
0.010343687
0.010320283
0.010295445
0.01026898
0.010240654
0.010210186
0.010177244
0.010141438
0.010107882
0.010079651
0.010056117
0.010036815
0.010021514
0.010010012
0.010002036
0.0099983561
0.0099993675
0.010000979
0.010007541
0.010021443
0.025135832
0.020266644
0.014235068
0.012952725
0.012241367
0.011872553
0.011619567
0.011457246
0.011340862
0.011257406
0.011194462
0.011145971
0.011107375
0.011075837
0.011049315
0.011026395
0.011006063
0.010987572
0.01097039
0.010954125
0.010938495
0.010923298
0.010908393
0.010893684
0.010879108
0.010864626
0.010850215
0.010835867
0.010821579
0.010807353
0.010793195
0.01077911
0.010765101
0.01075117
0.010737317
0.010723538
0.010709825
0.01069617
0.010682557
0.010668971
0.010655392
0.010641798
0.010628161
0.010614453
0.010600644
0.010586698
0.010572581
0.010558254
0.010543677
0.010528805
0.010513592
0.010497987
0.010481938
0.010465387
0.010448272
0.010430526
0.010412075
0.010392841
0.010372733
0.010351651
0.010329488
0.010306124
0.010281417
0.010255198
0.010227263
0.010197363
0.010165199
0.010130419
0.010098868
0.010072429
0.010050496
0.01003261
0.01001849
0.010007833
0.010000464
0.0099971045
0.0099975205
0.0099986235
0.010005712
0.01001864
0.023616001
0.019022256
0.013931599
0.012754194
0.012126418
0.011795084
0.01157042
0.011425354
0.011322149
0.011247796
0.011191579
0.011147853
0.011112613
0.011083307
0.011058147
0.011035897
0.011015689
0.010996904
0.010979105
0.010961985
0.010945332
0.010929004
0.010912906
0.010896983
0.010881201
0.010865545
0.01085001
0.010834597
0.010819312
0.010804159
0.010789143
0.010774269
0.010759535
0.010744941
0.01073048
0.010716143
0.010701919
0.010687791
0.010673742
0.010659751
0.010645793
0.010631842
0.010617869
0.010603844
0.010589731
0.010575496
0.010561102
0.010546509
0.010531675
0.010516558
0.010501109
0.01048528
0.010469018
0.010452267
0.010434969
0.010417057
0.010398464
0.010379114
0.010358924
0.010337802
0.010315654
0.010292372
0.010267835
0.0102419
0.010214397
0.010185113
0.010153783
0.010120073
0.010090474
0.010065759
0.010045357
0.010028825
0.010015831
0.010006009
0.0099992583
0.0099961417
0.0099960305
0.0099968862
0.010003889
0.01001576
0.022251101
0.017967981
0.013617276
0.012581878
0.012027263
0.011729515
0.011531215
0.01140229
0.011310904
0.011244538
0.011193956
0.011153983
0.011121128
0.011093141
0.011068489
0.011046135
0.011025364
0.011005682
0.010986758
0.010968367
0.010950365
0.010932663
0.010915209
0.010897974
0.010880947
0.010864127
0.010847515
0.010831115
0.01081493
0.010798962
0.010783212
0.010767676
0.010752347
0.010737217
0.010722273
0.0107075
0.010692879
0.010678389
0.010664008
0.010649709
0.010635464
0.010621245
0.010607018
0.010592751
0.010578408
0.010563953
0.010549347
0.01053455
0.01051952
0.010504214
0.010488586
0.010472587
0.010456166
0.010439269
0.01042184
0.010403816
0.010385132
0.010365718
0.010345497
0.010324386
0.010302298
0.010279141
0.01025481
0.010229187
0.010202136
0.010173492
0.010143054
0.010110551
0.010082824
0.010059744
0.010040773
0.010025492
0.010013538
0.010004516
0.009998347
0.0099953982
0.0099949378
0.0099957158
0.010001924
0.010012612
0.021019041
0.017067824
0.013337836
0.012430593
0.011942035
0.011675767
0.011501789
0.011387478
0.011306386
0.011246683
0.011200446
0.011163033
0.011131446
0.011103763
0.01107873
0.011055502
0.011033525
0.011012434
0.010991993
0.010972055
0.010952531
0.01093337
0.010914544
0.010896044
0.010877864
0.010860004
0.010842461
0.010825233
0.010808317
0.010791705
0.010775389
0.010759355
0.010743588
0.010728072
0.010712785
0.010697707
0.010682813
0.010668076
0.010653468
0.010638961
0.010624524
0.010610122
0.010595723
0.01058129
0.010566789
0.010552181
0.010537428
0.010522489
0.010507323
0.010491887
0.010476135
0.010460021
0.010443496
0.010426507
0.010409001
0.010390918
0.010372199
0.010352776
0.010332579
0.010311531
0.010289555
0.010266567
0.010242477
0.010217185
0.010190581
0.010162545
0.010132944
0.010101971
0.010076017
0.01005447
0.01003682
0.010022666
0.010011631
0.010003335
0.0099977062
0.0099949045
0.0099940751
0.0099944166
0.0099997262
0.010008843
0.019900757
0.016275394
0.013090031
0.012294926
0.011869397
0.011634036
0.01148159
0.011380072
0.011307386
0.011252702
0.011209267
0.011173044
0.011141518
0.011113131
0.011086886
0.011062139
0.011038485
0.01101567
0.010993536
0.010971989
0.010950974
0.010930455
0.010910415
0.01089084
0.010871719
0.010853042
0.010834795
0.010816965
0.010799534
0.010782485
0.010765796
0.010749446
0.010733411
0.010717664
0.01070218
0.010686929
0.010671884
0.010657012
0.010642283
0.010627665
0.010613122
0.010598622
0.010584127
0.010569603
0.010555012
0.010540317
0.010525479
0.010510459
0.010495215
0.010479706
0.010463887
0.010447714
0.010431139
0.010414113
0.010396585
0.010378499
0.010359799
0.010340424
0.010320307
0.010299379
0.01027757
0.010254805
0.010231
0.010206069
0.010179913
0.010152428
0.010123497
0.010094419
0.010070114
0.010049991
0.01003356
0.01002042
0.010010189
0.010002518
0.009997349
0.0099946586
0.0099935394
0.0099935702
0.0099978805
0.010004988
0.018885788
0.0155603
0.012873693
0.012178195
0.011810605
0.011603344
0.011469233
0.011378174
0.011311641
0.011260056
0.01121775
0.011181336
0.011148783
0.01111887
0.011090839
0.01106422
0.011038724
0.01101417
0.010990446
0.010967479
0.010945218
0.010923627
0.010902674
0.010882331
0.010862571
0.010843367
0.010824691
0.010806514
0.010788806
0.010771537
0.010754676
0.010738192
0.010722053
0.010706227
0.010690682
0.010675385
0.010660302
0.010645401
0.010630647
0.010616006
0.010601442
0.01058692
0.010572403
0.010557856
0.010543241
0.010528522
0.010513661
0.010498618
0.010483354
0.010467827
0.010451997
0.010435819
0.010419249
0.010402241
0.010384746
0.010366713
0.010348089
0.010328817
0.010308838
0.010288089
0.010266505
0.01024402
0.01022056
0.010196048
0.010170399
0.010143522
0.010115317
0.01008795
0.010065137
0.010046305
0.010030979
0.010018756
0.010009248
0.010002142
0.0099973628
0.009994748
0.009993481
0.0099934704
0.0099970029
0.01000267
0.017967969
0.01490325
0.012686306
0.012080476
0.011763508
0.011580947
0.011461684
0.011378355
0.011315592
0.011265191
0.011222512
0.011184818
0.011150524
0.011118687
0.011088736
0.011060313
0.011033191
0.011007217
0.010982282
0.010958306
0.010935221
0.010912969
0.010891498
0.010870758
0.010850702
0.010831286
0.010812466
0.0107942
0.010776447
0.010759167
0.010742321
0.010725872
0.010709781
0.010694014
0.010678533
0.010663303
0.010648287
0.010633451
0.01061876
0.010604178
0.010589668
0.010575196
0.010560725
0.01054622
0.010531645
0.010516963
0.010502137
0.010487129
0.0104719
0.010456413
0.010440626
0.010424499
0.010407989
0.010391054
0.010373647
0.010355721
0.010337228
0.010318116
0.01029833
0.010277813
0.010256509
0.010234357
0.010211294
0.010187252
0.010162157
0.010135931
0.010108491
0.010082612
0.010061096
0.010043387
0.010029021
0.010017592
0.010008717
0.010002113
0.0099976651
0.0099951129
0.0099937808
0.009993783
0.0099966755
0.010001088
0.017146959
0.014345127
0.012526364
0.011998803
0.011725018
0.011562776
0.011454429
0.011375933
0.0113147
0.011263932
0.011219908
0.011180461
0.01114434
0.011110783
0.011079312
0.011049606
0.01102144
0.010994648
0.010969096
0.010944674
0.010921288
0.010898854
0.010877296
0.010856545
0.010836538
0.010817216
0.010798523
0.010780408
0.010762822
0.01074572
0.010729058
0.010712794
0.010696887
0.0106813
0.010665993
0.01065093
0.010636073
0.010621389
0.01060684
0.010592391
0.010578007
0.010563652
0.010549293
0.010534893
0.010520418
0.010505831
0.010491098
0.010476181
0.010461044
0.010445651
0.010429963
0.010413941
0.010397546
0.010380737
0.010363472
0.010345707
0.010327398
0.010308497
0.010288956
0.010268722
0.010247746
0.010225974
0.01020335
0.010179815
0.010155306
0.010129758
0.0101031
0.010078456
0.010058013
0.010041233
0.010027658
0.010016881
0.010008532
0.010002344
0.0099981593
0.0099956661
0.0099943391
0.0099943783
0.0099967507
0.010000175
0.016434732
0.013892713
0.01239177
0.011928595
0.011689282
0.011542486
0.011441354
0.011365417
0.011304412
0.011252771
0.011207464
0.01116671
0.01112945
0.011094996
0.011062871
0.011032731
0.011004318
0.010977433
0.010951911
0.010927614
0.010904425
0.010882243
0.010860975
0.010840541
0.010820866
0.010801883
0.010783532
0.010765755
0.0107485
0.01073172
0.010715368
0.010699402
0.01068378
0.010668464
0.010653415
0.010638597
0.010623973
0.010609508
0.010595167
0.010580914
0.010566715
0.010552536
0.010538344
0.010524105
0.010509784
0.010495348
0.010480761
0.01046599
0.010450999
0.010435754
0.010420218
0.010404354
0.010388126
0.010371496
0.010354425
0.010336872
0.010318796
0.010300156
0.010280905
0.010260998
0.01024039
0.010219034
0.01019688
0.010173878
0.010149972
0.010125106
0.010099218
0.010075521
0.010055901
0.01003983
0.010026854
0.010016568
0.010008617
0.010002741
0.0099987412
0.0099962886
0.0099949872
0.0099950325
0.0099969503
0.0099995883
0.015733214
0.013489929
0.012261248
0.011853269
0.011641859
0.011508074
0.011413123
0.011339964
0.01128008
0.011228809
0.011183538
0.011142688
0.011105384
0.011071122
0.011039367
0.011009722
0.010981886
0.010955625
0.010930751
0.010907109
0.010884574
0.010863037
0.010842404
0.010822589
0.010803512
0.010785104
0.010767302
0.010750048
0.010733291
0.010716982
0.010701077
0.010685534
0.010670313
0.010655376
0.010640685
0.010626207
0.010611905
0.010597746
0.010583695
0.010569718
0.010555782
0.010541857
0.010527908
0.010513903
0.01049981
0.010485595
0.010471226
0.01045667
0.010441893
0.010426863
0.010411545
0.010395905
0.010379908
0.010363518
0.0103467
0.010329415
0.010311627
0.010293296
0.010274381
0.010254841
0.010234636
0.010213725
0.010192066
0.010169613
0.010146321
0.010122143
0.010097029
0.010073943
0.010054854
0.010039237
0.010026639
0.010016656
0.010008947
0.010003252
0.0099993368
0.0099968815
0.0099956074
0.009995684
0.0099973024
0.0099994221
0.014476754
0.012837179
0.01200404
0.011693167
0.011523584
0.011412984
0.011332609
0.011269619
0.011217565
0.011172849
0.011133383
0.01109787
0.011065346
0.011035057
0.011006636
0.010979806
0.010954357
0.010930122
0.010906964
0.010884772
0.010863448
0.010842911
0.010823202
0.010804258
0.010785999
0.010768356
0.010751268
0.01073468
0.010718543
0.010702812
0.010687445
0.010672403
0.010657649
0.010643149
0.010628869
0.010614776
0.010600839
0.010587027
0.010573306
0.010559647
0.010546017
0.010532387
0.010518724
0.010504997
0.010491176
0.010477229
0.010463124
0.010448831
0.010434317
0.010419551
0.0104045
0.010389131
0.010373412
0.010357309
0.010340786
0.010323811
0.010306345
0.010288354
0.010269799
0.010250642
0.010230846
0.010210373
0.010189184
0.010167239
0.010144499
0.01012092
0.01009646
0.010073667
0.01005483
0.01003942
0.010026978
0.010017105
0.010009463
0.010003779
0.0099997968
0.0099972328
0.0099958944
0.009995823
0.0099969319
0.0099985032
0.014029667
0.012621094
0.011860484
0.011583537
0.01143311
0.01133528
0.011263849
0.011207554
0.0111606
0.011119878
0.011083591
0.011050648
0.011020346
0.010992215
0.010965926
0.010941228
0.010917924
0.01089585
0.010874868
0.010854859
0.01083572
0.010817354
0.010799578
0.010782323
0.010765547
0.010749214
0.010733287
0.010717734
0.010702522
0.01068762
0.010673
0.010658631
0.010644488
0.010630542
0.010616766
0.010603135
0.010589633
0.01057625
0.010562953
0.010549709
0.010536488
0.010523258
0.010509988
0.01049665
0.010483211
0.010469643
0.010455914
0.010441994
0.010427853
0.01041346
0.010398784
0.010383794
0.010368458
0.010352742
0.010336616
0.010320044
0.010302992
0.010285426
0.01026731
0.010248606
0.010229278
0.010209291
0.010188607
0.010167189
0.010144997
0.010121992
0.010098132
0.010075055
0.010056007
0.010040441
0.010027878
0.010017908
0.010010181
0.010004404
0.010000306
0.0099976354
0.0099962199
0.0099959843
0.0099967501
0.0099981223
0.013593663
0.012399982
0.011682945
0.011443802
0.011315819
0.011235026
0.011176207
0.011129839
0.011090833
0.011056644
0.011025826
0.010997541
0.01097126
0.010946627
0.01092339
0.010901356
0.010880377
0.010860333
0.010841126
0.010822673
0.010804903
0.010787756
0.010771177
0.01075512
0.010739545
0.010724414
0.01070969
0.010695337
0.010681322
0.010667612
0.010654175
0.01064098
0.010627996
0.010615194
0.010602545
0.01059002
0.010577578
0.010565172
0.010552778
0.010540376
0.010527941
0.010515449
0.010502876
0.010490198
0.010477389
0.010464422
0.010451273
0.010437914
0.010424318
0.010410457
0.010396303
0.010381828
0.010367001
0.010351794
0.010336174
0.010320111
0.010303572
0.010286525
0.010268934
0.010250765
0.010231983
0.010212552
0.010192438
0.010171604
0.010150012
0.010127624
0.010104399
0.010080365
0.010060503
0.010044241
0.010031082
0.0100206
0.010012429
0.010006254
0.010001795
0.0099988127
0.0099971196
0.0099965625
0.0099969592
0.0099981201
55.241147
100.12494
59.288036
39.902864
27.565648
19.21182
13.56691
9.7102558
7.0105303
5.0798831
3.6784955
2.6613187
1.9171127
1.3782662
0.98185555
0.69570974
0.48837399
0.34077477
0.23692951
0.1643129
0.11395945
0.079410448
0.055985459
0.040298431
0.029936978
0.023183926
0.018846325
0.016094955
0.014369164
0.013296054
0.012631285
0.012217856
0.011956875
0.011787243
0.011671974
0.011589119
0.011525894
0.011474957
0.011432118
0.011395006
0.011362197
0.011332815
0.011306314
0.01128223
0.011260201
0.011239859
0.011220412
0.011198065
0.011165834
0.011122381
0.011071651
0.011018145
0.010965517
0.010915505
0.010868909
0.010826228
0.010788967
0.010756956
0.010728068
0.010701985
0.010674026
0.010646775
0.010611268