/*--------------------------------*- C++ -*----------------------------------*\
  =========                 |
  \\      /  F ield         | OpenFOAM: The Open Source CFD Toolbox
   \\    /   O peration     | Website:  https://openfoam.org
    \\  /    A nd           | Version:  6
     \\/     M anipulation  |
\*---------------------------------------------------------------------------*/
FoamFile
{
    version     2.0;
    format      ascii;
    class       volScalarField;
    location    "650";
    object      nut;
}
// * * * * * * * * * * * * * * * * * * * * * * * * * * * * * * * * * * * * * //

dimensions      [0 2 -1 0 0 0 0];

internalField   nonuniform List<scalar> 
16000
(
5.0807762e-06
2.1208116e-05
2.3324512e-05
3.3016888e-05
2.8359128e-05
3.6447631e-05
3.5819454e-05
4.0436216e-05
4.1623224e-05
4.1747593e-05
4.2377004e-05
4.1033708e-05
4.1164251e-05
4.0082814e-05
4.0085405e-05
3.9573915e-05
3.973295e-05
3.9756601e-05
4.0162368e-05
4.0607327e-05
4.1306564e-05
4.2129653e-05
4.3165754e-05
4.4376453e-05
4.580733e-05
4.7461853e-05
4.9376756e-05
5.1579221e-05
5.4113567e-05
5.7028372e-05
6.0386887e-05
6.4265186e-05
6.8757614e-05
7.397921e-05
8.0071628e-05
8.7208718e-05
9.5604285e-05
0.00010552131
0.00011728339
0.00013128833
0.00014802537
0.000168098
0.00019224817
0.00022138675
0.00025663032
0.00029934375
0.00035118632
0.00041416374
0.00049068109
0.00058359292
0.00069624431
0.00083251332
0.00099689181
0.0010406183
0.0010416861
0.0010418839
0.00104146
0.0010406935
0.0010397632
0.0010386773
0.001037336
0.0010357445
0.0010338576
0.0010316033
0.0010289391
0.001025909
0.0010226726
0.0010195371
0.0010166637
0.0010141853
0.0010119118
0.0010101584
0.0010083126
0.0010072099
0.0010057094
0.0010061852
0.0010048291
0.0010091902
0.0010041709
0.0010081006
4.2353833e-06
2.0975204e-05
2.137411e-05
3.0182455e-05
2.6177292e-05
3.2862222e-05
3.2977713e-05
3.614739e-05
3.798695e-05
3.7222935e-05
3.8237766e-05
3.654238e-05
3.6832073e-05
3.5626506e-05
3.5704253e-05
3.5190808e-05
3.5357684e-05
3.5361633e-05
3.5730024e-05
3.6122406e-05
3.6746873e-05
3.7479677e-05
3.8402744e-05
3.948096e-05
4.0754499e-05
4.2226632e-05
4.392933e-05
4.5886821e-05
4.81378e-05
5.0725062e-05
5.3703942e-05
5.714117e-05
6.1119453e-05
6.5739529e-05
7.112543e-05
7.7429237e-05
8.4837705e-05
9.3580182e-05
0.00010393861
0.00011625925
0.00013096679
0.00014858439
0.00016975431
0.00019526376
0.00022607636
0.00026336968
0.00030857583
0.00036342879
0.0004300158
0.00051082981
0.00060882238
0.00072745368
0.00087077196
0.0010392668
0.0010405486
0.0010408866
0.0010405243
0.0010397708
0.0010388495
0.0010378197
0.0010366465
0.0010352072
0.0010334664
0.0010313467
0.0010287939
0.0010258266
0.0010226002
0.0010194278
0.001016536
0.0010140104
0.0010117536
0.0010099224
0.0010081867
0.0010070849
0.0010055868
0.0010056813
0.0010044835
0.0010083606
0.0010039609
0.001007909
3.6196524e-06
2.0739847e-05
1.9829411e-05
2.7756841e-05
2.4439221e-05
2.9800485e-05
3.0816376e-05
3.2353424e-05
3.4872839e-05
3.3081004e-05
3.4441196e-05
3.2388113e-05
3.281218e-05
3.1568126e-05
3.1710316e-05
3.1214752e-05
3.1388281e-05
3.1388872e-05
3.1728606e-05
3.2085455e-05
3.2651111e-05
3.3314401e-05
3.4147223e-05
3.5119872e-05
3.6266692e-05
3.7591849e-05
3.9123077e-05
4.0882588e-05
4.290455e-05
4.5227284e-05
4.7899911e-05
5.0981854e-05
5.4546632e-05
5.8683771e-05
6.35034e-05
6.9140557e-05
7.576091e-05
8.3567758e-05
9.2810575e-05
0.00010379535
0.00011689671
0.0001325755
0.00015139647
0.00017405062
0.00020138234
0.00023442236
0.00027442351
0.00032290273
0.00038168904
0.00045297401
0.00053936694
0.00064395074
0.00077035271
0.000922852
0.0010394036
0.0010398966
0.0010396041
0.001038861
0.0010379342
0.0010369059
0.0010357606
0.0010344599
0.0010328959
0.0010309399
0.0010285269
0.0010256519
0.0010224544
0.0010192631
0.0010163546
0.0010138051
0.0010115555
0.0010096862
0.0010080065
0.0010069206
0.0010054647
0.0010053178
0.001004238
0.0010076258
0.0010037349
0.001007255
3.2199e-06
2.0427977e-05
1.8520831e-05
2.5484486e-05
2.2804422e-05
2.6999065e-05
2.8717057e-05
2.8952029e-05
3.1847056e-05
2.9377809e-05
3.086927e-05
2.8661361e-05
2.9146086e-05
2.7968385e-05
2.8127602e-05
2.7680554e-05
2.7846807e-05
2.7858091e-05
2.817023e-05
2.8502383e-05
2.9017902e-05
2.9624447e-05
3.0381126e-05
3.1265178e-05
3.2304985e-05
3.3506078e-05
3.4892457e-05
3.6484872e-05
3.8313796e-05
4.0413965e-05
4.2829461e-05
4.5613839e-05
4.883323e-05
5.2568227e-05
5.6917834e-05
6.2003461e-05
6.7974031e-05
7.5012224e-05
8.3342273e-05
9.323874e-05
0.00010503699
0.00011914978
0.00013608232
0.0001564519
0.0001810119
0.00021068171
0.0002465784
0.00029005481
0.0003427443
0.00040660877
0.00048399389
0.00057768789
0.0006909893
0.00082780489
0.00099277071
0.0010389082
0.0010386973
0.0010379658
0.0010370294
0.001035994
0.0010348492
0.0010335706
0.0010321122
0.0010303541
0.0010281152
0.0010253665
0.0010222234
0.0010190304
0.001016115
0.0010135562
0.0010113152
0.0010094262
0.0010077885
0.0010066293
0.001005333
0.0010050737
0.0010040228
0.0010068302
0.001003528
0.0010067889
2.8896046e-06
2.0006019e-05
1.7458487e-05
2.3376465e-05
2.1301934e-05
2.443868e-05
2.674054e-05
2.5869668e-05
2.8938644e-05
2.6013827e-05
2.7506336e-05
2.5331957e-05
2.5807065e-05
2.474004e-05
2.4891333e-05
2.4508131e-05
2.4662045e-05
2.4691497e-05
2.4979605e-05
2.5294531e-05
2.5768159e-05
2.6328032e-05
2.7020655e-05
2.7830062e-05
2.8779237e-05
2.9875083e-05
3.1138475e-05
3.2588957e-05
3.4253989e-05
3.6165364e-05
3.836301e-05
4.0895646e-05
4.3823368e-05
4.7219403e-05
5.1173685e-05
5.5796574e-05
6.1223365e-05
6.7619924e-05
7.5190083e-05
8.418354e-05
9.4904114e-05
0.00010772612
0.0001231077
0.00014160809
0.00016390911
0.00019084315
0.00022342146
0.00026286932
0.00031066807
0.00036860055
0.00043880543
0.00052383666
0.00062673256
0.00075110305
0.00090125386
0.0010379128
0.0010377989
0.0010370822
0.0010361332
0.001035087
0.0010339357
0.0010326591
0.0010312259
0.0010295749
0.0010275478
0.0010249634
0.0010219043
0.0010187277
0.0010158164
0.0010132621
0.0010110346
0.0010091428
0.0010075389
0.0010063363
0.0010051695
0.0010048177
0.0010038333
0.0010060925
0.0010033384
0.0010061287
2.6104755e-06
1.7578791e-05
1.6527055e-05
2.1385979e-05
1.9932852e-05
2.2070904e-05
2.4871759e-05
2.3061267e-05
2.6153194e-05
2.2991311e-05
2.4380177e-05
2.2375051e-05
2.2795468e-05
2.1863749e-05
2.1992475e-05
2.1679227e-05
2.1819045e-05
2.1869797e-05
2.2137766e-05
2.2440522e-05
2.2879681e-05
2.3401299e-05
2.4040654e-05
2.4787755e-05
2.5661118e-05
2.666876e-05
2.7829053e-05
2.9160523e-05
3.0688219e-05
3.2441517e-05
3.445697e-05
3.6779342e-05
3.9463815e-05
4.2577639e-05
4.6203398e-05
5.0442438e-05
5.5419121e-05
6.1285794e-05
6.8229644e-05
7.6480657e-05
8.6317502e-05
9.8083642e-05
0.00011219967
0.00012917891
0.00014964614
0.00017436479
0.00020426233
0.0002404627
0.00028432643
0.00033749309
0.00040193441
0.00048001311
0.00057455177
0.00068891588
0.00082713023
0.00099400574
0.0010369042
0.0010362077
0.0010352442
0.0010341844
0.001033023
0.001031742
0.0010303158
0.0010287017
0.0010268147
0.0010244376
0.0010214964
0.0010183555
0.0010154607
0.0010129231
0.0010107157
0.0010088346
0.0010072604
0.0010060349
0.0010049708
0.001004543
0.0010036554
0.0010054693
0.0010031591
0.0010056303
2.3531703e-06
1.6351536e-05
1.5450613e-05
1.9502626e-05
1.8691265e-05
1.9891501e-05
2.3089674e-05
2.0503475e-05
2.3493097e-05
2.0324555e-05
2.1537718e-05
1.9752456e-05
2.0092294e-05
1.9303164e-05
1.9402403e-05
1.9157461e-05
1.9283494e-05
1.9355047e-05
1.9606361e-05
1.9899775e-05
2.0310412e-05
2.0800079e-05
2.1394858e-05
2.2089532e-05
2.2899145e-05
2.3832462e-05
2.4905919e-05
2.6137141e-05
2.7549212e-05
2.9169541e-05
3.10319e-05
3.3177755e-05
3.565831e-05
3.8535892e-05
4.188705e-05
4.5805827e-05
5.0407641e-05
5.583386e-05
6.2258137e-05
6.9894637e-05
7.9001674e-05
8.9897918e-05
0.00010297373
0.00011870575
0.00013767306
0.00016058395
0.00018829919
0.00022186173
0.00026253569
0.00031184598
0.00037162978
0.00044409461
0.00053188605
0.00063816984
0.00076673788
0.00092214205
0.0010360073
0.0010353395
0.0010343598
0.0010332844
0.0010321106
0.0010308218
0.0010293955
0.0010277974
0.0010259679
0.0010237821
0.0010209985
0.0010179142
0.0010150485
0.0010125397
0.0010103605
0.0010085011
0.0010069552
0.0010057267
0.0010047382
0.0010042284
0.0010034783
0.0010049112
0.0010029814
0.0010051089
2.1253371e-06
1.5871683e-05
1.4388727e-05
1.7734477e-05
1.7548206e-05
1.7869535e-05
2.1338184e-05
1.821188e-05
2.093172e-05
1.7956429e-05
1.895512e-05
1.7416407e-05
1.766743e-05
1.7018463e-05
1.7089068e-05
1.6907871e-05
1.7023272e-05
1.7114495e-05
1.7353405e-05
1.7640006e-05
1.8027914e-05
1.849141e-05
1.9049571e-05
1.9700751e-05
2.0457381e-05
2.1328763e-05
2.2329801e-05
2.3477327e-05
2.4792874e-05
2.6302204e-05
2.8036881e-05
3.0035592e-05
3.2346334e-05
3.5027416e-05
3.8150442e-05
4.1803533e-05
4.6094846e-05
5.1156863e-05
5.7152124e-05
6.4282301e-05
7.2789136e-05
8.297132e-05
9.5194822e-05
0.00010990696
0.00012764989
0.00014908748
0.00017502706
0.0002064463
0.0002445317
0.00029071531
0.00034672501
0.00041464113
0.00049696309
0.00059669025
0.00071742155
0.0008634883
0.0010351012
0.0010344749
0.0010334783
0.0010323857
0.0010311978
0.001029899
0.0010284691
0.0010268787
0.0010250813
0.0010229903
0.0010204114
0.0010174067
0.001014583
0.0010121144
0.0010099722
0.0010081443
0.0010066276
0.0010054112
0.0010044799
0.0010038976
0.0010032947
0.0010043748
0.0010027924
0.0010046318
1.928703e-06
1.5344926e-05
1.3408646e-05
1.6057475e-05
1.6480058e-05
1.5964546e-05
1.9576333e-05
1.6157761e-05
1.8495049e-05
1.5838651e-05
1.661416e-05
1.5326712e-05
1.5493995e-05
1.4975554e-05
1.5023175e-05
1.4899385e-05
1.5008642e-05
1.5117957e-05
1.5348737e-05
1.5630728e-05
1.6001082e-05
1.644353e-05
1.6972011e-05
1.7587503e-05
1.8300533e-05
1.9120662e-05
2.0061713e-05
2.1139774e-05
2.2375155e-05
2.3792279e-05
2.5420904e-05
2.7297447e-05
2.9467277e-05
3.1985446e-05
3.4919563e-05
3.835288e-05
4.2387732e-05
4.7149492e-05
5.2791344e-05
5.9505427e-05
6.7519937e-05
7.711743e-05
8.864413e-05
0.00010252412
0.00011926958
0.00013950866
0.00016400585
0.00019368601
0.0002296733
0.00027332471
0.00032627941
0.00039051392
0.00046840764
0.00056282228
0.00067719902
0.00081568563
0.00098327406
0.0010336113
0.0010325976
0.0010314869
0.0010302838
0.0010289737
0.0010275381
0.0010259513
0.0010241752
0.0010221457
0.0010197362
0.0010168368
0.0010140679
0.0010116505
0.0010095546
0.0010077668
0.0010062827
0.0010050904
0.0010042028
0.0010035823
0.0010031032
0.0010038664
0.0010025997
0.001004152
1.7578788e-06
1.4751374e-05
1.2490214e-05
1.4452727e-05
1.5472131e-05
1.4240062e-05
1.7786503e-05
1.4310281e-05
1.6231734e-05
1.3939888e-05
1.4504931e-05
1.3455658e-05
1.3551854e-05
1.3149333e-05
1.3181557e-05
1.3107831e-05
1.3215494e-05
1.3341161e-05
1.3567601e-05
1.38469e-05
1.420428e-05
1.4630222e-05
1.5135157e-05
1.5721841e-05
1.6399522e-05
1.7177829e-05
1.8069781e-05
1.9090831e-05
2.0260314e-05
2.1601585e-05
2.3142952e-05
2.491895e-05
2.6972848e-05
2.935708e-05
3.2136031e-05
3.5388993e-05
3.9213705e-05
4.3729949e-05
4.9082843e-05
5.5457685e-05
6.3071564e-05
7.2194035e-05
8.3155275e-05
9.6361468e-05
0.00011230029
0.00013157105
0.00015490428
0.00018318208
0.00021747868
0.00025909051
0.00030958491
0.00037085405
0.00044517918
0.00053530876
0.00064455414
0.00077691114
0.00093719973
0.0010327463
0.0010317163
0.001030587
0.0010293682
0.0010280462
0.0010266038
0.0010250182
0.0010232571
0.0010212707
0.0010189746
0.0010162105
0.0010135083
0.0010111527
0.0010091123
0.0010073726
0.0010059259
0.0010047663
0.0010039129
0.0010032819
0.0010029044
0.001003396
0.0010024053
0.0010036785
1.6093584e-06
1.4064905e-05
1.1635327e-05
1.2909686e-05
1.4500603e-05
1.2677736e-05
1.5961293e-05
1.2644057e-05
1.4151762e-05
1.2234717e-05
1.261521e-05
1.1779932e-05
1.1821299e-05
1.1518181e-05
1.1542963e-05
1.1512068e-05
1.1622268e-05
1.1762704e-05
1.1937583e-05
1.2207836e-05
1.2550119e-05
1.2958672e-05
1.3441001e-05
1.4000585e-05
1.4645479e-05
1.5385054e-05
1.6231513e-05
1.7199569e-05
1.8307577e-05
1.9577874e-05
2.1037458e-05
2.2719036e-05
2.4664005e-05
2.6922422e-05
2.9555791e-05
3.2639876e-05
3.6268314e-05
4.0556416e-05
4.5946191e-05
5.204748e-05
5.9339001e-05
6.8080053e-05
7.8587541e-05
9.1254449e-05
0.00010654846
0.00012504562
0.00014745011
0.00017460928
0.00020755802
0.00024754427
0.00029607779
0.00035498288
0.00042646157
0.00051317064
0.00061831579
0.00074576913
0.00090020945
0.0010318779
0.0010308333
0.0010296854
0.0010284508
0.0010271168
0.0010256674
0.001024082
0.0010223326
0.001020378
0.0010181518
0.0010155349
0.0010129106
0.0010106265
0.0010086506
0.001006966
0.0010055627
0.001004442
0.0010036167
0.0010029964
0.0010027002
0.0010029768
0.0010022217
0.0010032471
1.4800404e-06
1.327278e-05
1.0834913e-05
1.1419619e-05
1.3528736e-05
1.125874e-05
1.4120015e-05
1.1135898e-05
1.2259028e-05
1.0700549e-05
1.0929953e-05
1.0279337e-05
1.028318e-05
1.0063431e-05
1.0040144e-05
1.0027848e-05
1.0133937e-05
1.0282412e-05
1.0504958e-05
1.0782073e-05
1.1123308e-05
1.1526368e-05
1.1997626e-05
1.2541535e-05
1.3165697e-05
1.3879533e-05
1.4694849e-05
1.5625962e-05
1.669061e-05
1.7910488e-05
1.9311814e-05
2.0925882e-05
2.2792847e-05
2.4961137e-05
2.7490214e-05
3.0453271e-05
3.3940925e-05
3.8066217e-05
4.2964397e-05
4.8803031e-05
5.5787169e-05
6.4167416e-05
7.4825882e-05
8.7069151e-05
0.00010185732
0.00011974751
0.00014142441
0.00016770697
0.00019959988
0.00023831288
0.00028531015
0.00034236234
0.00041160862
0.00049563294
0.00059755712
0.00072115506
0.00087099332
0.0010310037
0.0010299481
0.001028782
0.0010275322
0.0010261867
0.0010247307
0.0010231454
0.0010214065
0.0010194798
0.0010173133
0.001014819
0.0010122824
0.0010100788
0.0010081752
0.0010065523
0.0010051988
0.001004121
0.0010033208
0.0010027247
0.0010024908
0.0010026148
0.0010020479
0.001002879
1.3679933e-06
1.2371797e-05
1.0089367e-05
1.0068317e-05
1.2524942e-05
9.9655719e-06
1.234326e-05
9.7671005e-06
1.0554699e-05
9.3195512e-06
9.4339985e-06
8.937754e-06
8.8501352e-06
8.6770752e-06
8.6960813e-06
8.7295071e-06
8.8548569e-06
9.0238281e-06
9.255746e-06
9.5391457e-06
9.880627e-06
1.0280127e-05
1.0743423e-05
1.1275634e-05
1.1884019e-05
1.2578029e-05
1.3369178e-05
1.4271435e-05
1.5302034e-05
1.6482174e-05
1.7837622e-05
1.9398382e-05
2.1203748e-05
2.3300926e-05
2.5747881e-05
2.8615809e-05
3.1992573e-05
3.5989653e-05
4.0738634e-05
4.6403238e-05
5.3183781e-05
6.1325526e-05
7.1130302e-05
8.2960501e-05
9.7260912e-05
0.00011552259
0.00013664563
0.00016225992
0.00019334814
0.00023109069
0.00027691662
0.00033255521
0.00040009713
0.00048207012
0.00058153147
0.00070218052
0.0008484994
0.0010259103
0.0010290606
0.0010278773
0.0010266133
0.0010252573
0.0010237955
0.001022211
0.0010204824
0.001018581
0.0010164659
0.0010140727
0.0010116324
0.0010095169
0.0010076925
0.0010061371
0.0010048392
0.0010038069
0.0010030308
0.0010024663
0.0010022734
0.0010022996
0.0010018851
0.0010025585
1.2711085e-06
1.136501e-05
9.3918901e-06
8.843672e-06
1.1456619e-05
8.7866599e-06
1.0662217e-05
8.525442e-06
9.0373187e-06
8.079003e-06
8.0343173e-06
7.6264343e-06
7.5823233e-06
7.4865595e-06
7.5305619e-06
7.6006226e-06
7.7436776e-06
7.9299088e-06
8.1709444e-06
8.460513e-06
8.8035844e-06
9.2014762e-06
9.6596947e-06
1.0183866e-05
1.0780955e-05
1.1460434e-05
1.2233615e-05
1.3114178e-05
1.4118925e-05
1.5268646e-05
1.652515e-05
1.8032761e-05
1.977667e-05
2.1802882e-05
2.4167983e-05
2.6941408e-05
3.0381629e-05
3.4281625e-05
3.8918135e-05
4.4452195e-05
5.1080617e-05
5.9043535e-05
6.863962e-05
8.0223483e-05
9.4232519e-05
0.00011120136
0.00013177342
0.00015808799
0.00018858895
0.00022562314
0.00027059357
0.00032519897
0.00039149415
0.00047196536
0.00056962251
0.00068811192
0.00083185608
0.0010062126
0.0010281716
0.0010269725
0.0010256957
0.0010243305
0.0010228645
0.0010212821
0.0010195643
0.0010176867
0.0010156168
0.0010133074
0.0010109702
0.0010089489
0.0010072091
0.0010057264
0.0010044893
0.0010035038
0.0010027525
0.0010022225
0.0010020478
0.0010019795
0.0010017298
0.0010022876
1.1881907e-06
1.026539e-05
8.7347533e-06
7.7325619e-06
1.0292921e-05
7.7092614e-06
9.1018857e-06
7.3979126e-06
7.6990021e-06
6.8467337e-06
6.7863141e-06
6.512065e-06
6.4911733e-06
6.4557849e-06
6.5234604e-06
6.6233006e-06
6.7827832e-06
6.9840179e-06
7.2341097e-06
7.5300675e-06
7.8760869e-06
8.274295e-06
8.7300922e-06
9.2273326e-06
9.8114758e-06
1.0475162e-05
1.1229299e-05
1.2087097e-05
1.3064748e-05
1.4182275e-05
1.5464088e-05
1.6940173e-05
1.8647412e-05
2.0631243e-05
2.294766e-05
2.5665699e-05
2.8870441e-05
3.2666729e-05
3.7183627e-05
4.257982e-05
4.9049238e-05
5.7258217e-05
6.6709905e-05
7.8123921e-05
9.1930975e-05
0.00010866149
0.00012894995
0.00015357324
0.00018513783
0.00022169105
0.00026608007
0.00031998265
0.00038542906
0.00046487714
0.00056130458
0.00067832319
0.00082031721
0.00099260427
0.0010272829
0.0010260696
0.0010247816
0.0010234093
0.0010219409
0.0010203623
0.0010186566
0.0010168026
0.0010147739
0.001012535
0.0010103057
0.0010083831
0.0010067317
0.0010053258
0.0010041538
0.001003216
0.0010024914
0.0010019947
0.0010018241
0.001001693
0.0010015736
0.0010020508
1.118894e-06
9.0861044e-06
8.1110322e-06
6.725266e-06
9.0713972e-06
6.7233997e-06
7.6903459e-06
6.3246272e-06
6.3581244e-06
5.7808292e-06
5.7236844e-06
5.5514739e-06
5.5554188e-06
5.5674584e-06
5.6574051e-06
5.7820047e-06
5.9568543e-06
6.1715986e-06
6.4308655e-06
6.7336589e-06
7.0673807e-06
7.4632064e-06
7.9146587e-06
8.4273589e-06
9.0085097e-06
9.6669002e-06
1.0413414e-05
1.1261157e-05
1.2226064e-05
1.3327987e-05
1.4591097e-05
1.60451e-05
1.7726585e-05
1.968066e-05
2.1962961e-05
2.4642096e-05
2.7802606e-05
3.1548621e-05
3.6008344e-05
4.1339734e-05
4.7736991e-05
5.5435037e-05
6.4721454e-05
7.5944536e-05
9.0270484e-05
0.00010685784
0.00012697456
0.00015139545
0.00018104927
0.0002190995
0.00026314412
0.00031662985
0.00038157263
0.0004604136
0.00055611174
0.00067226052
0.00081322573
0.00098430823
0.0010263968
0.0010251714
0.0010238744
0.0010224969
0.0010210283
0.0010194559
0.0010177642
0.0010159348
0.0010139452
0.0010117678
0.0010096495
0.0010078278
0.0010062672
0.0010049408
0.0010038364
0.0010029476
0.0010022531
0.001001786
0.0010016044
0.001001433
0.0010014069
0.0010018352
1.0640706e-06
7.8386981e-06
7.5020617e-06
5.8111442e-06
7.8222608e-06
5.8037212e-06
6.8041943e-06
5.294192e-06
5.2518419e-06
4.8647724e-06
4.8222396e-06
4.7269684e-06
4.7563631e-06
4.8064953e-06
4.9173136e-06
5.0631291e-06
5.2525515e-06
5.4798733e-06
5.7332395e-06
6.0397264e-06
6.3918789e-06
6.7929588e-06
7.2476956e-06
7.76192e-06
8.3428982e-06
8.9993976e-06
9.7423006e-06
1.05847e-05
1.1542253e-05
1.2634762e-05
1.388627e-05
1.5326363e-05
1.6991531e-05
1.8926805e-05
2.1187764e-05
2.3842979e-05
2.6976925e-05
3.0693517e-05
3.5120517e-05
4.0415247e-05
4.6772877e-05
5.4427369e-05
6.366686e-05
7.4839302e-05
8.8368302e-05
0.00010476885
0.00012573738
0.00015007066
0.00017962281
0.00021551459
0.00026156924
0.00031488257
0.0003796173
0.00045820868
0.00055360829
0.00066940604
0.00080996668
0.00098059555
0.0010255167
0.0010242815
0.0010229777
0.0010215975
0.0010201311
0.0010185673
0.0010168923
0.0010150894
0.001013139
0.0010110182
0.0010090117
0.0010072913
0.0010058218
0.001004576
0.0010035401
0.0010027009
0.0010020408
0.0010016001
0.0010013968
0.0010011962
0.0010012354
0.001001638
1.0278196e-06
6.5455885e-06
6.8781045e-06
4.9906306e-06
6.6044964e-06
5.4126702e-06
5.4084394e-06
4.3789336e-06
4.3376173e-06
4.078697e-06
4.0598407e-06
4.0244331e-06
4.0787027e-06
4.1603735e-06
4.2907288e-06
4.4551722e-06
4.6452367e-06
4.881159e-06
5.1566208e-06
5.472788e-06
5.8326582e-06
6.2399274e-06
6.6994803e-06
7.2172731e-06
7.8006423e-06
8.4582619e-06
9.201034e-06
1.0020066e-05
1.0968564e-05
1.2049313e-05
1.3286059e-05
1.4708103e-05
1.6351673e-05
1.8261557e-05
2.049314e-05
2.3114823e-05
2.6210934e-05
2.9885158e-05
3.4264663e-05
3.976618e-05
4.611309e-05
5.3757632e-05
6.2990342e-05
7.415903e-05
8.7687234e-05
0.00010409077
0.00012399552
0.00014947206
0.00017903748
0.00021494936
0.00025856178
0.00031448577
0.00037925844
0.00045789978
0.00055336243
0.00066924564
0.00080992855
0.00098073967
0.0010246474
0.0010234047
0.0010220967
0.0010207161
0.0010192544
0.0010177018
0.0010160461
0.0010142725
0.0010123634
0.001010298
0.0010084022
0.0010067814
0.0010054013
0.0010042356
0.0010032672
0.0010024779
0.0010018556
0.0010014385
0.0010012098
0.0010009921
0.0010010768
0.0010014478
1.0124216e-06
5.9365944e-06
6.2417646e-06
5.0330771e-06
6.2688624e-06
4.1474772e-06
4.1612509e-06
3.6141923e-06
3.573321e-06
3.4168101e-06
3.4208692e-06
3.4333053e-06
3.5108868e-06
3.6188343e-06
3.7571545e-06
3.9342073e-06
4.1480555e-06
4.397363e-06
4.6838442e-06
5.009477e-06
5.3775121e-06
5.791933e-06
6.2577347e-06
6.7809192e-06
7.3576937e-06
8.0154356e-06
8.7566031e-06
9.5939825e-06
1.0543246e-05
1.1623673e-05
1.2859062e-05
1.4278828e-05
1.5919395e-05
1.7825847e-05
2.0053989e-05
2.2672769e-05
2.5767226e-05
2.944202e-05
3.3825715e-05
3.907579e-05
4.5384528e-05
5.3373794e-05
6.2632309e-05
7.3836501e-05
8.7410368e-05
0.0001038715
0.00012384806
0.00014810222
0.00017913835
0.00021518201
0.0002589521
0.00031210609
0.00038017934
0.00045910938
0.00055492383
0.00067124204
0.00081247072
0.00098397676
0.0010237944
0.001022547
0.0010212373
0.0010198587
0.0010184041
0.0010168649
0.0010152309
0.0010134896
0.0010116252
0.0010096179
0.0010078302
0.0010063054
0.0010050112
0.0010039222
0.0010030187
0.001002279
0.0010016956
0.0010012979
0.0010010478
0.0010008276
0.0010009231
0.0010012564
1.0152549e-06
6.0610039e-06
5.559681e-06
5.4324885e-06
5.4314609e-06
3.2926621e-06
3.3566458e-06
2.9706167e-06
2.9418167e-06
2.8642757e-06
2.8922932e-06
2.9426097e-06
3.0419708e-06
3.1616963e-06
3.3232104e-06
3.5174674e-06
3.7451669e-06
4.0064793e-06
4.3034397e-06
4.638557e-06
5.0152842e-06
5.4377837e-06
5.9044249e-06
6.4322162e-06
7.0236754e-06
7.6873945e-06
8.433818e-06
9.2757117e-06
1.0228754e-05
1.1312282e-05
1.2550221e-05
1.3972204e-05
1.5614967e-05
1.7524036e-05
1.9755786e-05
2.2379887e-05
2.5482245e-05
2.9168607e-05
3.3568805e-05
3.8841683e-05
4.518142e-05
5.2825268e-05
6.2529828e-05
7.3798798e-05
8.7452937e-05
0.00010401249
0.00012410865
0.00014850705
0.00017975774
0.00021601439
0.00026003909
0.00031349797
0.00038203533
0.00046142558
0.00055780041
0.00067480701
0.00081688966
0.00098946538
0.0010229643
0.0010217152
0.0010204064
0.0010190325
0.001017587
0.001016063
0.0010144521
0.0010127446
0.0010109282
0.0010089871
0.0010073034
0.0010058698
0.0010046562
0.0010036385
0.0010027953
0.0010021035
0.0010015571
0.0010011748
0.0010009134
0.0010006999
0.0010007658
0.0010010529
8.3735472e-07
6.4067571e-06
4.8044687e-06
3.5169026e-06
3.4780913e-06
2.7168005e-06
2.664489e-06
2.451863e-06
2.4298595e-06
2.4108959e-06
2.4623314e-06
2.5421698e-06
2.6523122e-06
2.7978979e-06
2.9763146e-06
3.1850583e-06
3.4250996e-06
3.6975534e-06
4.0047443e-06
4.3495123e-06
4.7354407e-06
5.1620525e-06
5.6421127e-06
6.1782926e-06
6.7776757e-06
7.4488175e-06
8.2021287e-06
9.0503692e-06
1.000926e-05
1.1098244e-05
1.2341432e-05
1.3768754e-05
1.5417351e-05
1.7333291e-05
1.9573628e-05
2.2208848e-05
2.5325881e-05
2.9031746e-05
3.3457712e-05
3.8763767e-05
4.5145618e-05
5.3235176e-05
6.2614362e-05
7.3965984e-05
8.7721422e-05
0.0001044043
0.00012464969
0.00014922785
0.00018070705
0.00021722292
0.00026155833
0.00031539043
0.00038443618
0.00046438185
0.00056143377
0.00067927192
0.00082238408
0.0009962446
0.0010221648
0.001020917
0.0010196122
0.0010182455
0.0010168114
0.0010153037
0.0010137159
0.0010120406
0.0010102696
0.001008413
0.0010068279
0.0010054803
0.0010043414
0.0010033882
0.0010025988
0.0010019509
0.0010014393
0.0010010714
0.0010007974
0.0010005701
0.0010005997
0.0010008174
6.4988399e-07
4.9721453e-06
3.7426329e-06
2.6224608e-06
2.6785773e-06
2.1865246e-06
2.1330097e-06
2.0144825e-06
2.0178797e-06
2.0407198e-06
2.1159634e-06
2.2137669e-06
2.3478665e-06
2.5114035e-06
2.7042544e-06
2.9256988e-06
3.1770912e-06
3.460151e-06
3.77742e-06
4.1319308e-06
4.52458e-06
4.9639882e-06
5.453296e-06
5.9983945e-06
6.6063221e-06
7.2855926e-06
8.0465953e-06
8.9021021e-06
9.8679024e-06
1.0963586e-05
1.2213495e-05
1.3647896e-05
1.5304395e-05
1.7229651e-05
1.9481419e-05
2.2131018e-05
2.5266412e-05
2.899597e-05
3.3452823e-05
3.8797855e-05
4.5540939e-05
5.3360767e-05
6.2811591e-05
7.4250962e-05
8.811326e-05
0.00010492563
0.00012532744
0.00015009363
0.00018177553
0.00021855632
0.00026320978
0.00031742481
0.0003869414
0.00046745063
0.00056519132
0.00068387733
0.00082804136
0.0010032163
0.0010214044
0.0010201611
0.0010188636
0.0010175073
0.0010160871
0.0010145978
0.0010130334
0.0010113874
0.0010096527
0.0010079012
0.0010064082
0.0010051407
0.001004071
0.0010031763
0.0010024343
0.0010018249
0.0010013436
0.001000988
0.0010007056
0.001000471
0.0010004577
0.0010005798
5.0339297e-07
2.7426622e-06
2.948841e-06
2.1162205e-06
2.0526503e-06
1.7555984e-06
1.7168564e-06
1.6646935e-06
1.693091e-06
1.7486382e-06
1.8448061e-06
1.9631124e-06
2.1143734e-06
2.2925122e-06
2.4977364e-06
2.730465e-06
2.9923662e-06
3.2855132e-06
3.612564e-06
3.976625e-06
4.3813453e-06
4.8284662e-06
5.3269367e-06
5.8808938e-06
6.4973297e-06
7.1847238e-06
7.9534568e-06
8.816332e-06
9.7892266e-06
1.0891889e-05
1.2148911e-05
1.3590913e-05
1.5255969e-05
1.7191327e-05
1.9455417e-05
2.2120324e-05
2.5274811e-05
2.9186924e-05
3.3707999e-05
3.9131254e-05
4.5657121e-05
5.3529803e-05
6.3045622e-05
7.4563969e-05
8.8521628e-05
0.00010544875
0.00012598915
0.00015224642
0.00018273292
0.00021973813
0.00026466117
0.00031920163
0.00038905601
0.00047003657
0.00056835635
0.00068775959
0.0008328194
0.0010091217
0.0010206924
0.0010194572
0.0010181704
0.0010168279
0.0010154253
0.0010139579
0.0010124204
0.0010108072
0.0010091122
0.001007456
0.0010060465
0.0010048518
0.0010038452
0.0010030035
0.0010023046
0.0010017303
0.0010012754
0.0010009298
0.0010006466
0.0010004192
0.0010003743
0.0010004308
4.0367125e-07
2.0770027e-06
2.2383519e-06
1.6585703e-06
1.5874105e-06
1.4162778e-06
1.3963661e-06
1.3913843e-06
1.4431856e-06
1.5245654e-06
1.6390488e-06
1.776058e-06
1.9414409e-06
2.131898e-06
2.3480596e-06
2.5910135e-06
2.8626309e-06
3.1651632e-06
3.5013141e-06
3.8742053e-06
4.2874561e-06
4.7452685e-06
5.2525722e-06
5.8152221e-06
6.4402571e-06
7.1362367e-06
7.9136655e-06
8.7855286e-06
9.7679538e-06
1.0881021e-05
1.2149749e-05
1.3605292e-05
1.5286387e-05
1.7241059e-05
1.9528673e-05
2.2222494e-05
2.5412687e-05
2.9209806e-05
3.3748808e-05
3.9194625e-05
4.5748827e-05
5.3656729e-05
6.321632e-05
7.4787366e-05
8.8807465e-05
0.00010670117
0.00012747925
0.00015268849
0.00018328123
0.00022041287
0.00026548721
0.0003232344
0.00039015352
0.00047139109
0.00057003384
0.00068984738
0.00083543415
0.001012419
0.0010200387
0.0010188147
0.0010175419
0.0010162166
0.0010148347
0.0010133922
0.0010118846
0.0010103069
0.001008654
0.0010070809
0.0010057443
0.0010046133
0.0010036616
0.0010028663
0.0010022055
0.0010016626
0.0010012306
0.0010008941
0.0010006141
0.0010003961
0.0010003261
0.0010003256
3.0779375e-07
1.6035927e-06
1.6662572e-06
1.306409e-06
1.2354979e-06
1.1477768e-06
1.1484099e-06
1.1782849e-06
1.2510784e-06
1.3528878e-06
1.4825267e-06
1.6349037e-06
1.8113697e-06
2.0116371e-06
2.2366792e-06
2.4879575e-06
2.7674559e-06
3.0775099e-06
3.4208345e-06
3.800546e-06
4.2202428e-06
4.684099e-06
5.1969969e-06
5.7647326e-06
6.3942865e-06
7.0941635e-06
7.8748266e-06
8.7492382e-06
9.7335303e-06
1.0847817e-05
1.211719e-05
1.357292e-05
1.5253885e-05
1.7208273e-05
1.9495708e-05
2.2189876e-05
2.5381072e-05
2.917988e-05
3.3721324e-05
3.917056e-05
4.5728961e-05
5.4036849e-05
6.3674503e-05
7.5336077e-05
8.9460908e-05
0.0001065821
0.00012734631
0.00015253819
0.00018311027
0.00022021588
0.00026767662
0.00032274477
0.00038958972
0.00047074755
0.00056930916
0.00068904726
0.00083457505
0.0010115334
0.001019454
0.0010182444
0.0010169886
0.0010156831
0.0010143247
0.0010129095
0.0010114338
0.0010098934
0.001008284
0.00100678
0.0010055039
0.0010044258
0.0010035198
0.0010027629
0.001002134
0.0010016176
0.0010012044
0.0010008762
0.0010006028
0.0010003945
0.0010003048
0.0010002604
1.9282683e-07
1.2558586e-06
1.206068e-06
1.03911e-06
9.7649273e-07
9.4476165e-07
9.6782368e-07
1.0257652e-06
1.1182972e-06
1.2375857e-06
1.3808082e-06
1.5459241e-06
1.7329498e-06
1.9426286e-06
2.1763124e-06
2.4352289e-06
2.7223127e-06
3.0395621e-06
3.3896935e-06
3.7758314e-06
4.2015933e-06
4.6711563e-06
5.1893416e-06
5.7618767e-06
6.3956823e-06
7.0991943e-06
7.8828169e-06
8.7594562e-06
9.7451951e-06
1.086011e-05
1.2129263e-05
1.3583887e-05
1.5262783e-05
1.7214002e-05
1.957086e-05
2.2277355e-05
2.5482719e-05
2.9297574e-05
3.3857222e-05
3.9327185e-05
4.5908817e-05
5.3846423e-05
6.3436812e-05
7.5040464e-05
8.9093208e-05
0.0001061245
0.00012677648
0.00015318378
0.00018380437
0.00022095459
0.00026603581
0.00032075176
0.00038717564
0.0004678326
0.00056580166
0.00068484261
0.00082955479
0.0010055635
0.00101895
0.0010177576
0.0010165212
0.0010152381
0.0010139051
0.001012519
0.0010110765
0.0010095739
0.0010080075
0.0010065567
0.0010053274
0.0010042899
0.0010034188
0.0010026912
0.0010020869
0.0010015909
0.0010011917
0.0010008702
0.0010006036
0.0010004022
0.0010002949
0.0010002161
2.6220427e-07
1.0032982e-06
8.8123825e-07
8.3006079e-07
7.9695198e-07
7.9826309e-07
8.3992469e-07
9.1614695e-07
1.0211163e-06
1.149761e-06
1.2994447e-06
1.4693922e-06
1.6600068e-06
1.8723349e-06
2.1078598e-06
2.3683791e-06
2.6559907e-06
2.9731163e-06
3.322521e-06
3.7073666e-06
4.1312386e-06
4.5981762e-06
5.1125469e-06
5.680106e-06
6.3077663e-06
7.0039334e-06
7.7789435e-06
8.6456114e-06
9.6198951e-06
1.0721716e-05
1.1975941e-05
1.3413549e-05
1.5073016e-05
1.7002019e-05
1.9259469e-05
2.19177e-05
2.5065422e-05
2.8811339e-05
3.3288633e-05
3.8659903e-05
4.512262e-05
5.2916577e-05
6.2817034e-05
7.4298366e-05
8.8200315e-05
0.00010504636
0.00012547173
0.00015024745
0.00018030976
0.00021679617
0.00026108952
0.00031487227
0.00038019307
0.00045954871
0.00055598544
0.00067322518
0.00081582263
0.00098935083
0.0010185396
0.0010173669
0.0010161524
0.0010148934
0.0010135875
0.0010122317
0.0010108233
0.0010093592
0.0010078363
0.0010064201
0.0010052211
0.0010042101
0.0010033614
0.0010026525
0.0010020638
0.0010015805
0.001001189