/*--------------------------------*- C++ -*----------------------------------*\
  =========                 |
  \\      /  F ield         | OpenFOAM: The Open Source CFD Toolbox
   \\    /   O peration     | Website:  https://openfoam.org
    \\  /    A nd           | Version:  6
     \\/     M anipulation  |
\*---------------------------------------------------------------------------*/
FoamFile
{
    version     2.0;
    format      ascii;
    class       volScalarField;
    location    "650";
    object      omega;
}
// * * * * * * * * * * * * * * * * * * * * * * * * * * * * * * * * * * * * * //

dimensions      [0 0 -1 0 0 0 0];

internalField   nonuniform List<scalar> 
16000
(
1424.5753
1497.4518
768.91851
496.20613
333.71321
257.22399
192.55684
159.70744
129.14757
110.48803
93.593271
81.513904
70.964121
62.666709
55.54258
49.676156
44.678989
40.454679
36.819762
33.689691
30.968545
28.595013
26.511801
24.676607
23.052994
21.612032
20.329218
19.18439
18.16054
17.243431
16.421058
15.683272
15.021375
14.427841
13.896125
13.420478
12.995785
12.617453
12.28131
11.983517
11.720528
11.489114
11.286256
11.109115
10.955047
10.8216
10.706486
10.6076
10.523039
10.451117
10.390403
10.339795
10.298738
10.267871
10.246729
10.233258
10.224817
10.218432
10.211985
10.20446
10.195044
10.183781
10.17033
10.154144
10.134902
10.112961
10.089567
10.067104
10.046831
10.029804
10.014588
10.003676
9.9923698
9.9872279
9.9794865
9.9877329
9.9825352
10.023028
9.9922735
10.034577
1331.2758
1538.386
770.90903
503.63856
335.65629
261.04828
194.21009
161.83046
130.36907
111.65854
94.36859
82.127162
71.381164
62.938431
55.748135
49.843901
44.812496
40.563246
36.907879
33.761901
31.028146
28.644785
26.553901
24.712714
23.084442
21.63987
20.354279
19.207316
18.181812
17.263387
16.439922
15.701192
15.03845
14.444125
13.911643
13.435239
13.00979
12.630699
12.293802
11.99526
11.731513
11.499342
11.295735
11.117862
10.963077
10.828939
10.713162
10.613637
10.528452
10.455896
10.394495
10.343042
10.3007
10.267269
10.243808
10.228781
10.219601
10.213033
10.206655
10.199571
10.191459
10.181378
10.169063
10.15392
10.135542
10.114086
10.090769
10.06802
10.047604
10.030211
10.015128
10.003615
9.9931689
9.9880441
9.9803304
9.985632
9.9816928
10.018481
9.9926099
10.035246
1088.5405
1578.1335
770.7701
510.25774
336.91921
264.37783
195.52175
163.62252
131.36614
112.57191
94.950885
82.519957
71.614513
63.097714
55.861473
49.927359
44.870626
40.603175
36.933992
33.777642
31.0364
28.647706
26.553265
24.709777
23.080202
21.635073
20.349496
19.202955
18.178156
17.260594
16.438051
15.700241
15.038383
14.444868
13.913107
13.437325
13.012395
12.633725
12.297162
11.99888
11.7353
11.503215
11.299628
11.121718
10.966844
10.832577
10.71664
10.616925
10.53152
10.458701
10.396972
10.345075
10.302048
10.267372
10.241406
10.224616
10.214547
10.207715
10.201292
10.194232
10.186346
10.177345
10.166404
10.152535
10.135245
10.114507
10.091415
10.068523
10.047982
10.030409
10.015386
10.003585
9.9935818
9.9885933
9.9812196
9.984663
9.9816675
10.014693
9.9928173
10.032233
1114.7419
1612.4399
769.0278
516.00672
337.60813
267.13693
196.5487
165.01473
132.14422
113.17096
95.32011
82.663757
71.696043
63.14527
55.878067
49.922181
44.849875
40.571377
36.895513
33.734711
30.991453
28.602241
26.508605
24.666745
23.039428
21.596971
20.314349
19.170918
18.149292
17.234867
16.41534
15.680378
15.021183
14.430123
13.900599
13.426837
13.003718
12.626653
12.291512
11.994494
11.731997
11.500831
11.29802
11.120758
10.966406
10.832556
10.716948
10.617479
10.532243
10.459514
10.397782
10.345765
10.302433
10.267086
10.23956
10.220781
10.209657
10.202494
10.195993
10.188893
10.181025
10.172208
10.162095
10.149768
10.133834
10.114081
10.091416
10.068518
10.04793
10.030293
10.015346
10.003401
9.9937354
9.9881898
9.9820719
9.9846597
9.9819085
10.01044
9.9931552
10.030526
1138.7026
1638.6284
766.05746
520.77404
337.74545
269.24311
197.29512
165.94542
132.68961
113.40639
95.448049
82.661747
71.657339
63.080251
55.796751
49.827568
44.749347
40.467175
36.791795
33.632601
30.892856
28.508012
26.419621
24.58338
22.961932
21.525424
20.24874
19.111145
18.095194
17.18621
16.371819
15.641656
14.986923
14.399978
13.874219
13.403887
12.983875
12.609606
12.276974
11.982224
11.721727
11.492309
11.291024
11.115086
10.961862
10.828969
10.714169
10.61537
10.530682
10.458378
10.39695
10.345102
10.301771
10.266169
10.237902
10.217299
10.204921
10.197349
10.190748
10.183581
10.175679
10.166895
10.156993
10.145508
10.131226
10.112755
10.09075
10.067988
10.047443
10.029852
10.015021
10.003067
9.9936775
9.9878079
9.9827108
9.9845941
9.9823731
10.006641
9.9935975
10.027149
1160.3853
1652.8598
762.35267
524.42354
337.37049
270.59065
197.77297
166.33285
132.98327
113.31083
95.325094
82.511064
71.495445
62.900322
55.615201
49.641727
44.567371
40.289216
36.621647
33.470325
30.739767
28.364334
26.285741
24.459219
22.847346
21.420148
20.152459
19.023486
18.015763
17.11457
16.307476
15.584092
14.935649
14.354499
13.834052
13.36857
12.952972
12.582694
12.253656
11.96218
11.704595
11.477751
11.278736
11.104796
10.953297
10.821893
10.708371
10.61066
10.526886
10.455337
10.394505
10.343093
10.300024
10.26446
10.235872
10.214209
10.200341
10.192268
10.185547
10.178295
10.170335
10.161536
10.151706
10.140525
10.127344
10.110493
10.089412
10.066939
10.046535
10.029087
10.014427
10.00257
9.993425
9.9873909
9.9831057
9.9844069
9.9829427
10.003728
9.9940778
10.024899
1179.8145
1652.6188
758.17151
526.76751
336.53992
271.05483
197.99771
166.08458
132.99078
113.01653
95.052964
82.21234
71.209714
62.605638
55.333053
49.364665
44.303787
40.037485
36.385057
33.247979
30.532313
28.171395
26.10719
24.294543
22.69599
21.281499
20.02589
18.908349
17.911424
17.020384
16.22276
15.508141
14.86781
14.294131
13.780531
13.321305
12.91141
12.5463
12.221915
11.934692
11.680909
11.457439
11.261409
11.090113
10.940914
10.811503
10.699709
10.603477
10.520968
10.450479
10.390516
10.339788
10.297212
10.261925
10.233327
10.211182
10.19592
10.187233
10.180375
10.173024
10.16499
10.156152
10.146342
10.135305
10.122589
10.107237
10.087393
10.065373
10.04521
10.028002
10.013576
10.001904
9.9929937
9.9869483
9.9832613
9.9839264
9.9835272
10.001307
9.994518
10.02234
1197.0811
1648.3111
753.00503
527.62118
335.33333
270.51133
197.98739
165.45189
132.64681
112.52932
94.632889
81.768279
70.800583
62.197325
54.950533
48.996904
43.958812
39.712289
36.082283
32.965864
30.270822
27.929553
25.88437
24.08979
22.508333
21.109978
19.869559
18.76628
17.782735
16.904219
16.118241
15.41437
14.783969
14.219425
13.71419
13.262603
12.859675
12.500887
12.182173
11.900152
11.651029
11.4317
11.239336
11.071302
10.924946
10.798005
10.68836
10.593976
10.513055
10.443913
10.385072
10.335253
10.293376
10.258569
10.230186
10.207869
10.191679
10.182228
10.175217
10.167759
10.15964
10.150749
10.140935
10.12998
10.117535
10.102938
10.084698
10.063311
10.043492
10.026613
10.012492
10.001081
9.9924119
9.9864718
9.9832351
9.9833309
9.9840596
9.9990313
9.9948107
10.020008
1212.3208
1645.1852
746.80379
526.82647
333.83548
268.82136
197.7198
164.55631
132.01259
111.85772
94.066541
81.182771
70.269198
61.677362
54.468589
48.539604
43.533304
39.314469
35.714128
32.624798
29.956108
27.639643
25.618124
23.845831
22.285266
20.906489
19.684383
18.598193
17.630605
16.766976
15.994813
15.30365
14.684969
14.131191
13.635804
13.193196
12.798452
12.447101
12.135019
11.859099
11.615445
11.400978
11.21291
11.048711
10.905701
10.781666
10.674556
10.582352
10.503312
10.435775
10.378284
10.329576
10.288581
10.254427
10.226446
10.204217
10.187659
10.177239
10.170063
10.162491
10.154281
10.145328
10.135496
10.124594
10.112337
10.09824
10.081335
10.060783
10.041406
10.024944
10.011201
10.000118
9.9917156
9.9859708
9.9830756
9.9828604
9.9845204
9.9969401
9.995008
10.017544
1225.7015
1642.875
739.73178
524.14353
332.1235
266.71905
197.1274
163.4267
131.22221
111.00956
93.354678
80.459489
69.616555
61.047558
53.888188
47.993966
43.028235
38.84501
35.281578
32.225813
29.589236
27.30276
25.309573
23.563815
22.027959
20.672217
19.47155
18.405278
17.456203
16.609802
15.853601
15.177072
14.571859
14.030433
13.546326
13.113977
12.728572
12.385727
12.081153
11.812169
11.574734
11.365793
11.182587
11.022745
10.883534
10.762792
10.658559
10.568829
10.491928
10.426222
10.37028
10.32286
10.282908
10.249554
10.222123
10.200148
10.18344
10.172257
10.164901
10.157213
10.148909
10.139892
10.130035
10.119169
10.107055
10.093317
10.077313
10.057831
10.038991
10.023028
10.009735
9.9990407
9.990941
9.9854557
9.9828211
9.9825015
9.9849047
9.9951028
9.9951212
10.015027
1237.4212
1640.9146
731.90594
519.23721
330.21937
264.27189
196.09397
162.08134
130.27632
109.99332
92.498447
79.602318
68.844017
60.309926
53.21063
47.361433
42.444922
38.305173
34.785978
31.770299
29.171638
26.920362
24.960207
23.245278
21.737961
20.408717
19.232617
18.189073
17.261034
16.434154
15.696031
15.036004
14.445943
13.918388
13.446921
13.026034
12.651025
12.317711
12.021409
11.760115
11.529573
11.326758
11.148895
10.99387
10.858855
10.741732
10.640674
10.553662
10.479114
10.415431
10.361207
10.315225
10.276449
10.244021
10.217262
10.195677
10.178992
10.167275
10.159722
10.15192
10.143525
10.134444
10.124561
10.113725
10.101729
10.088264
10.072826
10.054507
10.036293
10.020905
10.008129
9.9978782
9.990125
9.9849426
9.9825143
9.9822451
9.9852191
9.9936158
9.9952426
10.012743
1247.7414
1638.6861
723.5073
511.66536
328.11826
261.54257
194.58575
160.54042
129.17545
108.81795
91.499493
78.615159
67.953239
59.466479
52.437352
46.643573
41.78494
37.696431
34.222276
31.253004
28.698293
26.487812
24.56585
22.886551
21.412087
20.113249
18.965246
17.947593
17.043405
16.238586
15.520905
14.879439
14.306378
13.794356
13.33702
12.9289
12.565398
12.242786
11.956739
11.703787
11.48072
11.284564
11.112421
10.962601
10.832119
10.718872
10.621231
10.537129
10.465105
10.403595
10.351222
10.306799
10.269308
10.237907
10.21192
10.190839
10.174328
10.162296
10.154523
10.146611
10.138129
10.12899
10.119086
10.108281
10.096395
10.083173
10.068223
10.050878
10.033365
10.018621
10.006424
9.9966647
9.9893035
9.9844508
9.9821976
9.9820742
9.9854557
9.9925182
9.9953629
10.010867
1256.9434
1635.3097
714.71957
503.54716
325.74852
258.59497
192.9783
158.82027
127.91702
107.48968
90.358039
77.500136
66.94497
58.518273
51.557363
45.826514
41.034051
37.006735
33.591473
30.676766
28.173179
26.009704
24.131396
22.49269
21.055378
19.790751
18.674221
17.685429
16.807666
16.02716
15.33207
14.710961
14.15648
13.661387
13.219424
12.825149
12.473922
12.16257
11.886641
11.642768
11.427825
11.238975
11.0738
10.929493
10.803823
10.694623
10.600594
10.519531
10.450149
10.390918
10.340495
10.297719
10.261596
10.231298
10.206161
10.185672
10.169462
10.157334
10.149302
10.141289
10.132729
10.12354
10.113622
10.102854
10.091076
10.078078
10.063553
10.047015
10.03027
10.016228
10.004661
9.9954368
9.9885097
9.984
9.9819069
9.9819747
9.9855838
9.9917224
9.9954889
10.00928
1265.3241
1629.6386
705.68789
494.97271
322.9502
255.46825
191.263
156.93868
126.50001
106.01488
89.075395
76.259418
65.793899
57.436623
50.563687
44.911146
40.197397
36.242509
32.8958
30.044051
27.599032
25.488895
23.659715
22.066655
20.670786
19.44413
18.362385
17.405346
16.556451
15.802282
15.131859
14.532744
13.99826
13.521327
13.09584
12.716418
12.378092
12.078646
11.813375
11.579037
11.372574
11.191133
11.032668
10.894247
10.773771
10.669421
10.579149
10.501189
10.43451
10.377618
10.329201
10.288129
10.253429
10.224289
10.200054
10.180219
10.164405
10.152375
10.144063
10.135961
10.127334
10.118106
10.108188
10.097466
10.085801
10.073015
10.058867
10.043001
10.027075
10.013782
10.002885
9.9942319
9.9877749
9.9836124
9.9816756
9.9819486
9.9855934
9.9908191
9.9955933
10.008007
1273.1871
1619.9604
696.55102
485.98333
319.3992
252.19839
189.42282
154.9107
124.92289
104.39719
87.607056
74.835251
64.488643
56.224004
49.456288
43.898362
39.276759
35.406066
32.138113
29.357958
26.979315
24.928995
23.154336
21.612088
20.261903
19.07687
18.033102
17.110596
16.292871
15.566652
14.920537
14.344943
13.831774
13.374145
12.966159
12.602726
12.27942
11.992365
11.738137
11.513657
11.315995
11.142063
10.990497
10.858088
10.742758
10.64298
10.556713
10.482445
10.418467
10.363922
10.317524
10.278177
10.244929
10.216977
10.193677
10.174532
10.15916
10.147298
10.138818
10.130639
10.121958
10.112707
10.102802
10.092141
10.080599
10.068023
10.054218
10.038921
10.023851
10.01134
10.001141
9.9930862
9.9871267
9.9833132
9.9815393
9.9819976
9.9855547
9.9901037
9.9956085
10.006929
1280.8106
1603.709
687.42142
476.61946
315.70631
248.81618
187.42934
152.7459
123.18407
102.54048
85.920958
73.229867
63.025389
54.87874
48.235333
42.789531
38.27468
34.500565
31.322313
28.62254
26.318547
24.334698
22.619614
21.129509
19.82893
18.68894
17.686202
16.80099
16.016867
15.321052
14.702414
14.151623
13.660815
13.223316
12.833423
12.486215
12.177413
11.903264
11.660482
11.446191
11.257817
11.092559
10.947997
10.821709
10.711473
10.616259
10.533875
10.463094
10.402312
10.350065
10.305653
10.268015
10.236217
10.209465
10.187113
10.168679
10.15378
10.142137
10.13358
10.12534
10.116623
10.107364
10.097489
10.086905
10.075501
10.063142
10.049664
10.034864
10.020672
10.008957
9.9994698
9.9920318
9.9865848
9.9831221
9.9815306
9.9821353
9.9854781
9.9895171
9.99546
10.005951
1288.4254
1576.9448
678.37934
466.85534
312.15767
245.34976
185.25018
150.3751
121.1103
100.42647
84.004623
71.435526
61.400085
53.399434
46.901935
41.58719
37.19524
33.530579
30.453983
27.843123
25.616323
23.705416
22.056303
20.625791
19.379076
18.287512
17.328621
16.483188
15.734549
15.070653
14.480705
13.955677
13.487982
13.0712
12.699855
12.369228
12.075205
11.814164
11.582905
11.378667
11.199326
11.042056
10.904667
10.784807
10.680448
10.58978
10.511105
10.443637
10.385837
10.336302
10.293787
10.257796
10.227415
10.201853
10.180446
10.162728
10.148321
10.136935
10.128372
10.120088
10.111351
10.102103
10.092276
10.081788
10.07054
10.058411
10.045259
10.030916
10.017606
10.006689
9.9979119
9.9910952
9.9861619
9.9830487
9.9816649
9.9823832
9.9854196
9.9890299
9.9951935
10.005055
1296.1828
1533.3745
669.31322
456.59495
308.64718
241.79606
183.42386
147.66162
118.68027
98.03306
81.843304
69.442247
59.60838
51.785473
45.458907
40.295671
36.044955
32.502493
29.530799
27.019349
24.881967
23.051247
21.473926
20.10764
18.918664
17.878327
16.965427
16.161943
15.450196
14.819289
14.258825
13.760134
13.315951
12.920149
12.567514
12.253562
11.974383
11.726509
11.506799
11.312324
11.141857
10.992314
10.861885
10.748183
10.649217
10.563294
10.488856
10.424465
10.369449
10.322438
10.282144
10.247683
10.218646
10.194245
10.173765
10.156754
10.142842
10.131737
10.123222
10.114914
10.106175
10.096955
10.087194
10.07682
10.065747
10.05387
10.041057
10.027159
10.014722
10.004584
9.9965019
9.9902959
9.9858638
9.9830962
9.9819407
9.9827443
9.9854398
9.9887136
9.9949488
10.004156
1303.9044
1476.5864
659.58119
445.64712
305.00532
239.45861
181.06845
144.48287
115.86355
95.320988
79.416085
67.238211
57.646212
50.038106
43.912357
38.921809
34.818069
31.413911
28.565928
26.164619
24.125126
22.381278
20.880961
19.582649
18.454914
17.467881
16.601876
15.839157
15.165152
14.567839
14.037272
13.565181
13.144658
12.769896
12.435972
12.138667
11.874312
11.639674
11.431858
11.248241
11.086421
10.944127
10.820362
10.712605
10.618814
10.537393
10.466881
10.40596
10.353445
10.308812
10.270554
10.237861
10.210027
10.186744
10.167157
10.150832
10.13741
10.126598
10.118169
10.109855
10.101133
10.091958
10.082279
10.072036
10.061156
10.049549
10.0371
10.023666
10.012077
10.002688
9.9952686
9.989644
9.9856872
9.9832576
9.9823326
9.9831846
9.9855672
9.9886198
9.9946631
10.003192
1311.4663
1428.6936
649.21742
439.78377
303.28645
235.45889
177.62944
140.78975
112.60642
92.263208
76.705736
64.818809
55.516749
48.164879
42.254614
37.461577
33.533782
30.284729
27.573186
25.291731
23.357531
21.706196
20.287365
19.058924
17.991511
17.059501
16.242098
15.522336
14.886318
14.322616
13.821795
13.376037
12.978826
12.624703
12.309051
12.027921
11.777888
11.55593
11.35933
11.185624
11.03261
10.898263
10.780666
10.678575
10.589701
10.512532
10.445686
10.387908
10.338074
10.295673
10.259303
10.228194
10.201676
10.179449
10.160709
10.145039
10.132089
10.121571
10.113253
10.104955
10.09627
10.087158
10.077575
10.067473
10.056794
10.045467
10.033407
10.020496
10.00972
10.001039
9.9942374
9.989147
9.9856251
9.9835161
9.9828032
9.9836691
9.9858167
9.9887248
9.9942709
10.002081
1318.4172
1405.0336
641.00769
441.72345
303.20703
230.04243
173.56181
136.4801
108.8506
88.834617
73.704321
62.18976
53.234435
46.162101
40.510661
35.943906
32.212777
29.133876
26.569626
24.415861
22.592565
21.037475
19.699363
18.54343
17.539368
16.662795
15.893972
15.216845
14.618293
14.087553
13.61576
13.195585
12.820932
12.486702
12.188594
11.922936
11.686556
11.476654
11.290699
11.126303
10.981397
10.854129
10.743302
10.646531
10.562268
10.489089
10.425683
10.370858
10.323551
10.283231
10.248622
10.218992
10.193703
10.172459
10.154508
10.139451
10.126947
10.116716
10.108525
10.100264
10.091635
10.082605
10.073134
10.06318
10.052699
10.041638
10.029941
10.017693
10.007685
9.9996683
9.9934344
9.988822
9.9856804
9.9838573
9.983337
9.9842072
9.986112
9.9887217
9.9937327
10.000669
1323.301
1410.8257
633.60436
436.04231
298.66846
224.07976
168.55037
131.60993
104.5803
85.040688
70.427078
59.374865
50.799152
44.068633
38.71294
34.398229
30.881374
27.984523
25.575349
23.554256
21.845279
20.385461
19.131443
18.048141
17.106958
16.284947
15.563584
14.927831
14.365424
13.866324
13.422276
13.026464
12.673224
12.357823
12.076263
11.82514
11.601519
11.402855
11.226936
11.071305
10.933932
10.813884
10.708721
10.616855
10.536836
10.467326
10.407092
10.354991
10.310059
10.271643
10.238647
10.210377
10.18622
10.165872
10.148642
10.134146
10.122056
10.112096
10.104037
10.095836
10.087288
10.07836
10.069019
10.059226
10.048941
10.03812
10.026712
10.015286
10.005993
9.9985909
9.9928786
9.9886938
9.98588
9.9842978
9.9839344
9.9847938
9.9864931
9.988865
9.9933062
9.9991911
1323.8595
1422.5529
624.33159
425.66118
292.62378
216.95599
162.53553
126.03376
99.772584
80.877087
66.891048
56.37972
48.267808
41.929176
36.901567
32.859826
29.570302
26.863122
24.612616
22.724595
21.12751
19.766369
18.595172
17.582734
16.702373
15.932735
15.256607
14.660044
14.131691
13.662263
13.244138
12.871025
12.5377
12.239788
11.973581
11.735893
11.52394
11.335251
11.168666
11.02136
10.891496
10.77736
10.677342
10.589914
10.51371
10.447484
10.390116
10.340401
10.297778
10.26106
10.229504
10.202456
10.17934
10.15979
10.143202
10.129207
10.117489
10.107778
10.099848
10.091732
10.083288
10.074487
10.065299
10.055692
10.045629
10.035071
10.023977
10.013291
10.004644
9.9977972
9.9925561
9.9887546
9.9862331
9.984865
9.9846283
9.9854631
9.9870232
9.9892824
9.9932622
9.9983627
1317.3789
1377.5759
615.27448
414.21402
284.61462
208.54998
155.51016
119.79249
94.5052
76.437913
63.195635
53.303294
45.71593
39.806376
35.128701
31.372358
28.316469
25.801423
23.709552
21.952959
20.465066
19.194792
18.102481
17.157008
16.33371
15.612876
14.978643
14.41817
13.921015
13.478648
13.084072
12.731523
12.416218
12.134155
11.881943
11.656661
11.455741
11.276944
11.118247
10.977803
10.853906
10.744978
10.649564
10.566087
10.493231
10.429778
10.375105
10.327778
10.286894
10.251638
10.221307
10.195284
10.173178
10.154314
10.138279
10.124717
10.113321
10.10383
10.096019
10.08801
10.079692
10.07104
10.062027
10.052625
10.042802
10.032527
10.021762
10.01172
10.003632
9.997267
9.9924326
9.9889603
9.9866917
9.9855108
9.9853769
9.9861846
9.9876473
9.9898258
9.9934169
9.9978323
1300.9482
1324.094
606.2791
400.41186
274.86853
199.0472
147.64046
113.06202
88.967063
71.900001
59.497842
50.277148
43.247157
37.782361
33.46018
29.988865
27.162325
24.833493
22.893712
21.262067
19.877423
18.692969
17.672406
16.787258
16.014953
15.337445
14.740196
14.211428
13.741554
13.322738
12.948552
12.613698
12.313789
12.045157
11.80471
11.589808
11.397943
11.227028
11.075165
10.940605
10.821716
10.716968
10.625632
10.545725
10.475996
10.415309
10.362627
10.317009
10.277613
10.243596
10.214275
10.189278
10.167857
10.149555
10.133973
10.120766
10.109635
10.100324
10.092615
10.084732
10.07656
10.068075
10.059254
10.050073
10.040505
10.030522
10.020093
10.010584
10.002957
9.9969885
9.9924866
9.9892814
9.987219
9.9861896
9.9861316
9.9869154
9.9883183
9.9904366
9.9937051
9.9975712
1268.9283
1270.7579
598.6734
384.05882
262.90529
188.17614
138.79733
105.82022
83.203962
67.326928
55.860654
47.355758
40.892251
35.875361
31.908567
28.720982
26.115627
23.963936
22.16703
20.651423
19.361677
18.255368
17.299592
16.468499
15.741571
15.102373
14.537638
14.036594
13.590456
13.192027
12.83539
12.515657
12.22876
11.971285
11.740329
11.534288
11.350164
11.186017
11.040078
10.910716
10.796415
10.695751
10.607388
10.530079
10.462549
10.403706
10.352546
10.308153
10.270041
10.237138
10.208788
10.184416
10.163512
10.145633
10.130391
10.117448
10.106515
10.097339
10.089705
10.081967
10.073956
10.065653
10.057036
10.048086
10.038778
10.029088
10.018991
10.009889
10.002614
9.9969446
9.9926914
9.989684
9.9877735
9.9868525
9.9868401
9.9875978
9.9889581
9.9910138
9.9940033
9.9974281
1218.9986
1204.0711
587.21106
364.51162
247.74976
176.12566
129.72952
99.005692
78.130847
63.509842
52.938882
45.070886
39.073251
34.411612
30.718672
27.744151
25.31309
23.30049
21.615326
20.190131
18.974081
17.928279
17.022511
16.232972
15.540765
14.93074
14.390652
13.910543
13.482279
13.099191
12.755788
12.447533
12.170651
11.921974
11.698811
11.498756
11.31976
11.159987
11.01776
10.891528
10.779836
10.681314
10.594668
10.519271
10.453387
10.395969
10.346051
10.30275
10.265271
10.232897
10.20499
10.180986
10.160386
10.142753
10.127706
10.114913
10.104085
10.094974
10.087365
10.079786
10.071951
10.06384
10.055438
10.046724
10.03768
10.028286
10.018521
10.009679
10.002628
9.9971483
9.9930477
9.9901574
9.9883334
9.9874671
9.9874618
9.9881818
9.9895102
9.9915269
9.9943219
9.9974438
1161.4813
1125.0956
561.71492
340.92563
227.0761
159.74362
117.62091
90.084677
71.551859
58.615066
49.264815
42.299162
36.968559
32.789872
29.45312
26.745437
24.517065
22.660395
21.096578
19.766805
18.626476
17.641275
16.784148
16.034039
15.374067
14.790593
14.27252
13.810771
13.397887
13.027722
12.695197
12.396094
12.126892
11.884622
11.667567
11.472711
11.298131
11.142104
11.00306
10.879538
10.770158
10.673617
10.588679
10.514177
10.44902
10.392187
10.342741
10.299822
10.262649
10.230523
10.202815
10.17897
10.158496
10.140961
10.125989
10.11325
10.102458
10.093365
10.085757
10.078344
10.070684
10.062762
10.054561
10.046066
10.037258
10.028121
10.018636
10.009917
10.002969
9.9975698
9.993527
9.9906713
9.9888605
9.9879798
9.9879216
9.9885664
9.989834
9.9917473
9.9942733
9.9971013
1123.9015
1167.5065
572.97957
344.35023
227.45307
158.93833
116.58929
89.315163
71.079833
58.369009
49.169297
42.29314
37.014277
32.869743
29.553618
26.856616
24.63185
22.773884
21.205504
19.869112
18.720999
17.727433
16.862319
16.104759
15.437966
14.848316
14.32469
13.857968
13.440643
13.066521
12.730477
12.428251
12.156288
11.911593
11.69162
11.494165
11.317246
11.159046
11.017975
10.892569
10.781451
10.683315
10.596928
10.521121
10.454797
10.396931
10.346578
10.302867
10.265009
10.232292
10.204079
10.179803
10.158963
10.141118
10.125883
10.112921
10.101938
10.092681
10.084929
10.077708
10.070249
10.062534
10.054549
10.046279
10.037707
10.028815
10.019588
10.010739
10.003693
9.9982186
9.9941143
9.9912062
9.9893471
9.9884127
9.9882891
9.98887
9.9900846
9.9919039
9.9942541
9.9969661
1159.7285
1235.3454
594.28006
359.81123
237.00332
165.63956
121.25465
92.702031
73.598148
60.294745
50.670914
43.481981
37.966252
33.63935
30.180645
27.371064
25.056764
23.127219
21.501377
20.11871
18.933253
17.909548
17.019824
16.241985
15.558322
14.954519
14.418915
13.941963
13.515814
13.133997
12.791159
12.482859
12.205394
11.955653
11.730999
11.529165
11.348194
11.186361
11.042031
10.913689
10.799925
10.699411
10.610892
10.533182
10.465168
10.405809
10.354143
10.309284
10.270429
10.236848
10.207892
10.182979
10.161596
10.143292
10.12767
10.114383
10.103132
10.093654
10.085722
10.07873
10.071502
10.064026
10.056285
10.048266
10.039952
10.031327
10.022374
10.013107
10.005703
9.9999206
9.9955517
9.9924152
9.9903567
9.9892431
9.988957
9.9893972
9.9904863
9.9921615
9.9943473
9.9969652
30372.217
33136.858
18994.17
13098.298
9458.0743
6871.4313
5003.8838
3665.1775
2703.7078
2011.169
1504.6103
1133.3441
856.40231
653.55716
496.08224
378.4532
286.53453
217.71244
166.74348
129.26503
101.42607
80.961066
65.828022
54.608075
46.24267
39.90366
35.049678
31.265037
28.256061
25.79715
23.738995
21.988732
20.479939
19.165673
18.012093
16.994385
16.093809
15.295772
14.588554
13.962614
13.409709
12.922617
12.495026
12.121191
11.795851
11.514157
11.271596
11.063935
10.887502
10.739402
10.617659
10.519449
10.440381
10.377662
10.329394
10.293627
10.268487
10.25104
10.237772
10.226838
10.215496
10.204578
10.190232
10.176517
10.155156
10.137569
10.107225
10.08847
10.047702
10.032106
10.002424
9.9969068
9.9707407
9.9776327
9.9486727
9.9782529
9.9488328
9.9998683
9.9611483
9.9994161
33500.953
28480.77
21637.717
16304.818
12023.193
8720.9506
6302.4686
4561.4411
3319.9012
2432.7518
1793.9274
1329.3445
989.37091
738.74414
553.42177
416.0032
313.9802
238.40234
182.39021
140.90887
110.07907
87.318335
70.484797
58.039143
48.796134
41.813599
36.488321
32.363677
29.112737
26.483528
24.295322
22.443278
20.854221
19.475536
18.269498
17.208532
16.271958
15.443772
14.711184
14.063885
13.492982
12.990748
12.550418
12.165941
11.831737
11.542708
11.294121
11.081509
10.900967
10.749375
10.624809
10.523865
10.442345
10.377654
10.327836
10.291465
10.266323
10.249102
10.236156
10.225615
10.214606
10.204062
10.189974
10.17661
10.155396
10.13807
10.10775
10.089123
10.048794
10.033419
10.003362
9.998123
9.9716521
9.9787637
9.9497956
9.9790854
9.9501436
10.000888
9.9623549
10.000863
36902.771
20235.691
12950.911
8167.8236
4461.9873
2139.5578
975.28406
472.06004
270.77202
185.47803
145.19054
120.50174
104.07948
90.86456
80.552755
72.060585
64.609923
58.705627
53.160926
48.719446
44.466317
40.984245
37.723561
34.934072
32.409452
30.045581
27.954668
26.078372
24.369611
22.803197
21.37483
20.086661
18.926985
17.882766
16.943099
16.09836
15.340077
14.66062
14.053153
13.511867
13.030943
12.605197
12.229972
11.900754
11.613403
11.363957
11.148665
10.963886
10.806597
10.674553
10.56672
10.478488
10.406805
10.350016
10.30682
10.276527
10.256032
10.242025
10.230894
10.221549
10.210876
10.200881
10.186465
10.173615
10.151498
10.135099
10.103485
10.086613
10.045026
10.032749
10.001294
9.9985904
9.9705765
9.9799394
9.9492628
9.9808443
9.950192
10.002758
9.9627465
10.002399
34160.324
23639.847
13702.136
7471.4945
3371.4883
1308.9709
522.21466
270.41018
190.17876
151.80318
129.6907
111.30377
98.240523
86.385475
77.231579
69.449076
62.419914
57.033078
51.64444
47.519353
43.333049
40.090857
36.828645
34.235364
31.678334
29.470399
27.384628
25.588492
23.893444
22.367416
20.992168
19.752425
18.635698
17.629706
16.723834
15.908863
15.176751
14.520265
13.933042
13.409345
12.943737
12.531332
12.167653
11.848478
11.569793
11.327791
11.118861
10.939486
10.786798
10.658692
10.553869
10.467399
10.397129
10.341521
10.300139
10.271463
10.252197
10.239077
10.228551
10.219636
10.209251
10.199477
10.185213
10.172465
10.150438
10.134075
10.10259
10.085932
10.045012
10.033496
10.001626
9.9997722
9.9711654
9.9813412
9.950184
9.9823632
9.9512087
10.004532
9.9637425
10.004016
36184.294
23176.044
13201.465
6978.5086
3054.0906
1144.7471
461.56264
251.28754
182.64322
146.70824
125.59477
107.64898
95.145415
83.702699
75.222973
67.438593
61.085174
55.377088
50.547446
46.222957
42.467062
39.072606
36.097702
33.393535
30.984781
28.802139
26.83756
25.040835
23.418121
21.952862
20.631103
19.438971
18.363693
17.393859
16.519551
15.732179
15.024243
14.388952
13.820333
13.312913
12.861537
12.461578
12.108752
11.799002
11.528472
11.293491
11.090574
10.916318
10.768
10.64364
10.541465
10.456591
10.387646
10.333525
10.294025
10.266862
10.248752
10.236425
10.226475
10.217905
10.207823
10.198171
10.184123
10.171344
10.149534
10.133012
10.101874
10.085062
10.044933
10.033376
10.001936
9.9997267
9.9718534
9.9816981
9.9510831
9.983174
9.9521993
10.005944
9.9647189
10.005461
36772.471
22782.651
12756.483
6397.471
2548.9605
882.77312
371.05745
223.3263
173.22664
140.82143
121.7078
104.08967
92.264403
81.040985
73.018733
65.423155
59.344136
53.80353
49.173162
44.995198
41.369895
38.122812
35.241399
32.649508
30.32119
28.216436
26.31016
24.579434
23.011065
21.594003
20.31575
19.162196
18.121146
17.181691
16.334365
15.570969
14.884325
14.267932
13.716063
13.22341
12.785041
12.396524
12.053723
11.752718
11.48978
11.261354
11.064067
10.894611
10.750402
10.629569
10.529584
10.446153
10.378445
10.326359
10.288632
10.262857
10.245793
10.234175
10.224724
10.216448
10.206613
10.197054
10.183176
10.170353
10.148719
10.132043
10.101207
10.08437
10.045023
10.033742
10.002433
10.000375
9.9725777
9.9826198
9.9520194
9.9841921
9.9532186
10.007437
9.9657078
10.006922
37738.4
22450.371
12265.686
5846.751
2209.5877
741.65482
329.80365
211.77141
168.2205
137.64908
119.00405
101.69115
90.152565
79.045842
71.292908
63.815508
57.954682
52.547272
48.069655
44.000464
40.488208
37.324563
34.529783
32.007485
29.747634
27.703444
25.853962
24.171092
22.647909
21.272409
20.031616
18.911681
17.900736
16.988202
16.164925
15.423003
14.755522
14.156215
13.619554
13.140361
12.71391
12.335921
12.002381
11.709483
11.453604
11.231293
11.039267
10.874308
10.733956
10.616412
10.518125
10.436016
10.370151
10.320042
10.283941
10.259422
10.243293
10.232292
10.223269
10.215227
10.205596
10.196087
10.182354
10.169452
10.147988
10.131123
10.100618
10.083737
10.04508
10.033725
10.002775
10.000318
9.973305
9.983289
9.95296
9.9850953
9.9542405
10.008884
9.9666969
10.008356
38527.389