/*--------------------------------*- C++ -*----------------------------------*\
  =========                 |
  \\      /  F ield         | OpenFOAM: The Open Source CFD Toolbox
   \\    /   O peration     | Website:  https://openfoam.org
    \\  /    A nd           | Version:  6
     \\/     M anipulation  |
\*---------------------------------------------------------------------------*/
FoamFile
{
    version     2.0;
    format      ascii;
    class       volScalarField;
    location    "650";
    object      p;
}
// * * * * * * * * * * * * * * * * * * * * * * * * * * * * * * * * * * * * * //

dimensions      [1 -1 -2 0 0 0 0];

internalField   nonuniform List<scalar> 
16000
(
99068.575
99126.838
99130.84
99186.972
99199.151
99250.393
99271.753
99318.618
99347.806
99392.085
99427.175
99470.621
99509.965
99553.8
99596.228
99641.113
99685.843
99732.004
99778.486
99825.858
99873.636
99921.961
99970.588
100019.48
100068.48
100117.46
100166.29
100214.82
100262.89
100310.36
100357.05
100402.83
100447.51
100490.95
100532.99
100573.48
100612.28
100649.25
100684.28
100717.25
100748.07
100776.64
100802.91
100826.81
100848.31
100867.37
100884
100898.18
100909.94
100919.29
100926.29
100930.97
100933.38
100933.6
100931.69
100927.71
100921.75
100913.89
100904.19
100892.75
100879.63
100864.94
100848.69
100831.1
100811.91
100791.85
100769.67
100747.86
100721.91
100700.19
100667.4
100651.08
100603.09
100608.31
100516.86
100584.04
100383.25
100610.74
100186.78
100665.4
99118.972
99181.407
99185.378
99246.012
99258.52
99313.925
99336.335
99386.842
99417.778
99465.264
99502.598
99548.978
99590.837
99637.452
99682.493
99730.05
99777.369
99826.08
99875.032
99924.782
99974.83
100025.29
100075.91
100126.61
100177.23
100227.62
100277.62
100327.07
100375.8
100423.63
100470.4
100515.93
100560.06
100602.62
100643.45
100682.42
100719.38
100754.22
100786.82
100817.09
100844.97
100870.38
100893.28
100913.66
100931.5
100946.8
100959.59
100969.9
100977.78
100983.28
100986.48
100987.43
100986.21
100982.92
100977.64
100970.44
100961.43
100950.67
100938.26
100924.29
100908.82
100891.95
100873.72
100854.24
100833.47
100811.69
100788.48
100764.77
100738.82
100714.07
100683.84
100660.96
100620.68
100610.95
100540.66
100576.62
100416.14
100592.33
100218.29
100651.72
99190.635
99258.165
99262.155
99327.665
99340.918
99400.563
99424.546
99478.682
99511.848
99562.541
99602.495
99651.847
99696.486
99745.939
99793.76
99844.036
99894.024
99945.295
99996.718
100048.79
100101.03
100153.49
100205.92
100258.21
100310.18
100361.65
100412.45
100462.39
100511.28
100558.94
100605.19
100649.84
100692.72
100733.67
100772.55
100809.2
100843.51
100875.37
100904.7
100931.43
100955.51
100976.92
100995.63
101011.67
101025.06
101035.84
101044.07
101049.81
101053.15
101054.17
101052.96
101049.63
101044.27
101036.99
101027.88
101017.05
101004.59
100990.59
100975.15
100958.34
100940.24
100920.93
100900.47
100878.93
100856.32
100832.75
100808.12
100782.75
100755.99
100729.22
100699.54
100672.83
100636.71
100617.1
100560.14
100575.06
100443.19
100578.49
100245.68
100640.57
99285.082
99358.105
99362.137
99433.057
99447.155
99511.511
99537.282
99595.429
99631.121
99685.342
99728.233
99780.838
99828.55
99881.086
99931.926
99985.116
100037.94
100091.89
100145.87
100200.3
100254.69
100309.08
100363.17
100416.85
100469.88
100522.09
100573.27
100623.21
100671.71
100718.58
100763.61
100806.63
100847.47
100885.95
100921.95
100955.35
100986.03
101013.93
101038.97
101061.14
101080.41
101096.8
101110.34
101121.08
101129.09
101134.45
101137.25
101137.6
101135.62
101131.43
101125.14
101116.89
101106.78
101094.95
101081.52
101066.58
101050.25
101032.62
101013.78
100993.83
100972.82
100950.84
100927.93
100904.15
100879.53
100854.12
100827.9
100800.98
100773.11
100744.8
100714.87
100685.82
100651.77
100626.23
100577.36
100577.2
100467.56
100570.65
100273.34
100641.02
99401.789
99481.039
99485.31
99562.38
99577.644
99647.266
99675.262
99737.821
99776.505
99834.574
99880.82
99936.955
99988.072
100043.92
100098.01
100154.27
100210.07
100266.76
100323.3
100380.03
100436.47
100492.59
100548.09
100602.81
100656.5
100708.96
100759.94
100809.24
100856.63
100901.91
100944.87
100985.34
101023.15
101058.16
101090.24
101119.31
101145.28
101168.11
101187.79
101204.32
101217.74
101228.11
101235.5
101240
101241.75
101240.85
101237.44
101231.68
101223.71
101213.69
101201.75
101188.05
101172.74
101155.94
101137.78
101118.39
101097.88
101076.34
101053.87
101030.55
101006.44
100981.61
100956.1
100929.96
100903.21
100875.89
100847.97
100819.49
100790.36
100760.73
100730.12
100699.47
100666.18
100636.73
100593.46
100581.41
100489.82
100567.22
100299.51
100644.25
99543.519
99630.009
99634.59
99718.445
99735.04
99810.36
99840.918
99908.184
99950.25
100012.41
100062.37
100122.25
100177.06
100236.4
100293.93
100353.37
100412.21
100471.66
100530.7
100589.61
100647.89
100705.46
100762
100817.31
100871.11
100923.16
100973.23
101021.06
101066.44
101109.16
101149.01
101185.83
101219.47
101249.81
101276.76
101300.27
101320.3
101336.86
101349.98
101359.72
101366.17
101369.44
101369.66
101366.98
101361.57
101353.59
101343.22
101330.65
101316.06
101299.63
101281.54
101261.94
101241
101218.87
101195.68
101171.56
101146.62
101120.96
101094.67
101067.81
101040.46
101012.67
100984.47
100955.89
100926.96
100897.67
100868.03
100838.02
100807.59
100776.76
100745.32
100713.53
100680.4
100648.45
100608.95
100587.82
100511.16
100567.07
100325.86
100651.12
99711.589
99806.379
99811.113
99902.453
99920.581
100002.03
100035.56
100107.85
100153.75
100220.27
100274.34
100338.23
100397.01
100460.04
100521.19
100583.91
100645.82
100707.97
100769.4
100830.25
100890.05
100948.65
101005.69
101060.94
101114.1
101164.92
101213.11
101258.44
101300.68
101339.62
101375.09
101406.94
101435.06
101459.36
101479.81
101496.39
101509.13
101518.1
101523.4
101525.14
101523.48
101518.58
101510.65
101499.87
101486.47
101470.66
101452.65
101432.68
101410.94
101387.65
101362.99
101337.16
101310.3
101282.59
101254.16
101225.14
101195.62
101165.72
101135.51
101105.05
101074.4
101043.6
101012.67
100981.64
100950.51
100919.27
100887.91
100856.4
100824.69
100792.75
100760.45
100727.8
100694.49
100661.04
100624.19
100596.48
100532.13
100568.93
100352.34
100661.42
99905.96
100010.14
100015.11
100114.86
100134.95
100223.15
100260.26
100338.01
100388.36
100459.63
100518.32
100586.52
100649.64
100716.58
100781.53
100847.59
100912.56
100977.29
101040.85
101103.29
101164.12
101223.13
101279.94
101334.26
101385.8
101434.25
101479.35
101520.86
101558.56
101592.27
101621.84
101647.16
101668.18
101684.88
101697.26
101705.41
101709.4
101709.4
101705.55
101698.06
101687.15
101673.06
101656.02
101636.31
101614.17
101589.87
101563.67
101535.81
101506.51
101476.02
101444.52
101412.22
101379.27
101345.84
101312.07
101278.06
101243.93
101209.76
101175.62
101141.56
101107.62
101073.83
101040.22
101006.77
100973.49
100940.35
100907.33
100874.38
100841.46
100808.5
100775.4
100742.1
100708.5
100674.26
100639.16
100606.93
100553.02
100572.8
100380.43
100674.2
100127.44
100242.43
100247.85
100357.09
100379.71
100475.37
100516.83
100600.55
100656.07
100732.52
100796.36
100869.23
100937.03
101008.07
101076.92
101146.31
101214.19
101281.21
101346.48
101409.94
101471.07
101529.6
101585.13
101637.36
101685.94
101730.59
101771.05
101807.09
101838.53
101865.22
101887.09
101904.08
101916.22
101923.55
101926.19
101924.27
101918
101907.59
101893.29
101875.38
101854.14
101829.89
101802.92
101773.55
101742.06
101708.77
101673.95
101637.86
101600.76
101562.86
101524.39
101485.54
101446.46
101407.3
101368.2
101329.26
101290.57
101252.2
101214.21
101176.63
101139.5
101102.83
101066.62
101030.85
100995.52
100960.58
100926
100891.72
100857.69
100823.83
100790.04
100756.27
100722.37
100687.89
100653.86
100618.77
100573.75
100578.5
100410.21
100688.19
100377.87
100505.34
100511.44
100631.37
100657.2
100761.05
100807.7
100897.94
100959.38
101041.44
101110.98
101188.83
101261.58
101336.83
101409.56
101482.11
101552.56
101621.35
101687.62
101751.21
101811.57
101868.37
101921.21
101969.74
102013.64
102052.63
102086.49
102115.03
102138.13
102155.72
102167.8
102174.41
102175.68
102171.75
102162.84
102149.2
102131.12
102108.92
102082.92
102053.49
102020.99
101985.77
101948.19
101908.61
101867.35
101824.73
101781.05
101736.58
101691.58
101646.27
101600.85
101555.51
101510.39
101465.63
101421.35
101377.63
101334.54
101292.14
101250.47
101209.56
101169.4
101130.01
101091.36
101053.43
101016.19
100979.6
100943.6
100908.13
100873.14
100838.52
100804.19
100770.09
100736.01
100701.68
100668.3
100631.81
100594.17
100586.01
100441.47
100702.25
100659.48
100801.26
100808.25
100940.12
100969.94
101082.76
101135.58
101232.89
101301.07
101389.2
101464.96
101548.05
101625.91
101705.34
101781.75
101857.02
101929.4
101999.1
102065.29
102127.68
102185.74
102239.07
102287.28
102330.02
102367.01
102398.01
102422.86
102441.45
102453.76
102459.83
102459.78
102453.77
102442.05
102424.89
102402.62
102375.63
102344.29
102309.01
102270.23
102228.37
102183.85
102137.07
102088.44
102038.33
101987.08
101935.03
101882.47
101829.68
101776.88
101724.31
101672.14
101620.53
101569.62
101519.52
101470.32
101422.08
101374.87
101328.71
101283.62
101239.61
101196.66
101154.77
101113.91
101074.02
101035.08
100997.02
100959.79
100923.32
100887.52
100852.31
100817.61
100783.35
100749.25
100715.37
100682.38
100645.68
100613.9
100594.91
100472.97
100715.26
100973.5
101132.01
101140.4
101285.76
101320.7
101443.39
101503.59
101608.62
101684.44
101779.09
101861.51
101950.01
102032.96
102116.28
102195.82
102273.01
102346.22
102415.47
102479.93
102539.23
102592.82
102640.32
102681.34
102715.59
102742.85
102762.98
102775.92
102781.7
102780.44
102772.32
102757.61
102736.62
102709.76
102677.43
102640.11
102598.26
102552.41
102503.03
102450.63
102395.7
102338.69
102280.05
102220.2
102159.51
102098.33
102036.99
101975.77
101914.91
101854.64
101795.15
101736.59
101679.09
101622.77
101567.71
101513.97
101461.6
101410.62
101361.04
101312.87
101266.08
101220.65
101176.56
101133.74
101092.16
101051.76
101012.46
100974.22
100936.94
100900.54
100864.94
100830.06
100795.8
100761.9
100728.67
100695.98
100660.04
100632.72
100604.71
100504.28
100727.73
101323.57
101501.45
101511.8
101672.26
101713.6
101847.03
101915.88
102029.23
102113.49
102215.02
102304.32
102398.12
102485.77
102572.28
102653.89
102731.61
102803.91
102870.63
102930.96
102984.48
103030.67
103069.19
103099.72
103122.09
103136.19
103142.03
103139.73
103129.49
103111.62
103086.49
103054.55
103016.29
102972.25
102923.02
102869.17
102811.3
102750
102685.83
102619.35
102551.06
102481.47
102411
102340.09
102269.08
102198.32
102128.1
102058.66
101990.23
101922.99
101857.1
101792.68
101729.82
101668.61
101609.08
101551.29
101495.24
101440.94
101388.37
101337.51
101288.32
101240.77
101194.8
101150.36
101107.37
101065.79
101025.52
100986.5
100948.65
100911.88
100876.11
100841.25
100807.18
100773.72
100741.3
100708.96
100674.6
100650.68
100615.43
100534.93
100739.51
101713.13
101913.45
101926.53
102103.84
102153.15
102298.18
102377.09
102499.29
102592.64
102701.19
102797.29
102895.84
102987.26
103075.59
103157.46
103233.47
103302.21
103363.37
103416.19
103460.27
103495.18
103520.69
103536.63
103543
103539.91
103527.6
103506.39
103476.74
103439.17
103394.27
103342.68
103285.09
103222.2
103154.71
103083.31
103008.69
102931.47
102852.29
102771.7
102690.22
102608.33
102526.47
102445
102364.27
102284.55
102206.11
102129.15
102053.85
101980.34
101908.73
101839.11
101771.54
101706.05
101642.66
101581.39
101522.2
101465.08
101410
101356.91
101305.75
101256.47
101209
101163.27
101119.22
101076.75
101035.8
100996.28
100958.11
100921.21
100885.48
100850.86
100817.19
100784.41
100752.89
100721.11
100689.01
100667.44
100626.88
100564.68
100750.14
102146.09
102372.53
102389.44
102585.43
102644.58
102802.02
102892.6
103024.18
103126.92
103242.18
103344.37
103446.4
103539.75
103627.54
103706.75
103777.65
103838.94
103890.27
103930.99
103960.83
103979.52
103987.06
103983.53
103969.2
103944.48
103909.88
103866.03
103813.64
103753.49
103686.41
103613.22
103534.77
103451.89
103365.39
103276.02
103184.5
103091.49
102997.61
102903.41
102809.37
102715.93
102623.47
102532.31
102442.74
102354.98
102269.23
102185.64
102104.33
102025.39
101948.88
101874.85
101803.3
101734.25
101667.67
101603.53
101541.81
101482.43
101425.36
101370.52
101317.85
101267.26
101218.69
101172.05
101127.27
101084.25
101042.91
101003.17
100964.95
100928.16
100892.72
100858.55
100825.49
100793.62
100763.09
100732.15
100702.71
100682.43
100638.75
100593.41
100758.69
102627.7
102884.48
102906.63
103122.9
103193.98
103364.49
103468.22
103609.61
103721.57
103842.31
103948.87
104051.97
104144.11
104227.58
104299.71
104360.53
104408.96
104444.7
104467.38
104476.94
104473.47
104457.27
104428.82
104388.76
104337.85
104276.96
104207.03
104129.06
104044.07
103953.08
103857.07
103757.02
103653.82
103548.31
103441.28
103333.43
103225.4
103117.74
103010.94
102905.44
102801.59
102699.7
102600.03
102502.77
102408.1
102316.13
102226.97
102140.66
102057.26
101976.76
101899.17
101824.46
101752.6
101683.53
101617.21
101553.56
101492.51
101433.99
101377.91
101324.19
101272.74
101223.48
101176.31
101131.15
101087.9
101046.49
101006.82
100968.82
100932.39
100897.47
100863.96
100831.74
100800.98
100771.5
100741.77
100715.22
100695.48
100650.89
100620.73
100764.7
103163.53
103455.75
103485.61
103724.17
103810.76
103995.32
104111.58
104260.21
104380.62
104504.84
104612.6
104712.77
104798.75
104872.17
104930.81
104974.64
105002.95
105015.73
105013.02
104995.19
104962.83
104916.71
104857.78
104787.12
104705.91
104615.37
104516.75
104411.29
104300.19
104184.61
104065.61
103944.21
103821.3
103697.7
103574.14
103451.25
103329.59
103209.62
103091.74
102976.28
102863.52
102753.67
102646.89
102543.31
102443.02
102346.06
102252.48
102162.28
102075.43
101991.9
101911.65
101834.62
101760.73
101689.9
101622.07
101557.13
101494.99
101435.56
101378.75
101324.45
101272.58
101223.03
101175.71
101130.52
101087.38
101046.19
101006.88
100969.35
100933.53
100899.35
100866.71
100835.54
100806.03
100777.69
100749.56
100725.89
100705.94
100662.4
100645.9
100768.17
103761.02
104095.08
104137.01
104398.68
104502.87
104699.07
104828.19
104984.14
105108.91
105232.23
105335.51
105425.98
105498.09
105553.04
105589.24
105606.92
105605.96
105586.9
105550.42
105497.52
105429.4
105347.43
105253.08
105147.89
105033.4
104911.14
104782.58
104649.11
104512.02
104372.48
104231.55
104090.18
103949.18
103809.28
103671.08
103535.11
103401.77
103271.43
103144.37
103020.79
102900.86
102784.71
102672.39
102563.97
102459.44
102358.8
102262.01
102169.03
102079.78
101994.19
101912.18
101833.65
101758.51
101686.64
101617.96
101552.34
101489.68
101429.88
101372.82
101318.4
101266.52
101217.08
101169.96
101125.09
101082.37
101041.7
101003
100966.2
100931.22
100897.99
100866.4
100836.47
100808.3
100781.22
100755.05
100733.95
100713.25
100672.66
100667.75
100768.76
104445.2
104824.18
104879.98
105161.07
105278.85
105484.03
105624.49
105783.5
105907.36
106022
106111.72
106182.2
106229.34
106254.33
106256.57
106236.91
106196.15
106135.63
106056.88
105961.67
105851.87
105729.44
105596.33
105454.44
105305.56
105151.4
104993.48
104833.2
104671.79
104510.34
104349.78
104190.89
104034.35
103880.7
103730.4
103583.8
103441.17
103302.72
103168.6
103038.91
102913.71
102793.01
102676.79
102565.03
102457.67
102354.63
102255.83
102161.17
102070.54
101983.83
101900.92
101821.69
101746.03
101673.8
101604.89
101539.18
101476.54
101416.85
101360.01
101305.9
101254.41
101205.43
101158.87
101114.62
101072.6
101032.72
100994.89
100959.04
100925.1
100893
100862.64
100834.09
100807.35
100781.67
100757.6
100738.53
100717.25
100681.43
100685.3
100766.12
105216.79
105639
105704.83
106000.26
106146.18
106370.85
106510.5
106660.88
106771.75
106864.21
106926.15
106962.02
106969.51
106950.35
106905.27
106836.18
106745.02
106634.15
106506.02
106363.14
106208
106042.98
105870.33
105692.1
105510.14
105326.09
105141.39
104957.27
104774.75
104594.72
104417.88
104244.81
104075.95
103911.65
103752.18
103597.71
103448.37
103304.22
103165.28
103031.54
102902.95
102779.45
102660.93
102547.31
102438.46
102334.26
102234.57
102139.26
102048.2
101961.24
101878.24
101799.05
101723.55
101651.58
101583.03
101517.74
101455.61
101396.5
101340.29
101286.87
101236.13
101187.95
101142.24
101098.9
101057.85
101018.99
100982.24
100947.55
100914.83
100884.01
100855.04
100827.99
100802.74
100778.62
100756.66
100739.42
100718.8
100687.66
100697.2
100759.76
106077.17
106543.41
106638.32
106971.5
107122.1
107332.23
107469.09
107596.34
107679.17
107732.5
107748.76
107732.36
107683.33
107604.74
107499.06
107369.56
107219.46
107052.1
106870.69
106678.27
106477.65
106271.33
106061.55
105850.24
105639.05
105429.35
105222.28
105018.78
104819.57
104625.23
104436.19
104252.78
104075.2
103903.6
103738.06
103578.57
103425.13
103277.66
103136.08
103000.27
102870.1
102745.43
102626.11
102511.98
102402.87
102298.64
102199.1
102104.09
102013.45
101927.02
101844.65
101766.16
101691.42
101620.28
101552.59
101488.21
101427.02
101368.88
101313.68
101261.3
101211.61
101164.53
101119.94
101077.76
101037.89
101000.26
100964.78
100931.4
100900.04
100870.64
100843.17
100817.7
100794
100771.57
100751.78
100736.38
100716.62
100688.91
100703.27
100750.84
107068.47
107591.35
107711.8
108037.26
108193.16
108380.52
108488.77
108570.53
108599.6
108589.52
108536.97
108447.82
108324.83
108172.84
107996.1
107799.15
107586.16
107361.08
107127.4
106888.23
106646.24
106403.67
106162.41
105923.97
105689.57
105460.16
105236.46
105019.03
104808.23
104604.33
104407.47
104217.72
104035.09
103859.51
103690.89
103529.12
103374.03
103225.46
103083.23
102947.16
102817.04
102692.68
102573.89
102460.46
102352.2
102248.92
102150.43
102056.55
101967.09
101881.88
101800.75
101723.54
101650.09
101580.25
101513.87
101450.81
101390.94
101334.12
101280.24
101229.18
101180.83
101135.08
101091.84
101051.01
101012.52
100976.27
100942.21
100910.27
100880.38
100852.49
100826.58
100802.71
100780.57
100759.88
100742.18
100728.16
100709.39
100686.29
100702.77
100737.44
108229.79
108779.83
108912.16
109215.11
109343.98
109476.54
109522.66
109526.52
109471.61
109371.6
109228.06
109048.92
108839.66
108606.69
108355.5
108091.26
107818.4
107540.74
107261.46
106983.15
106707.89
106437.32
106172.68
105914.9
105664.64
105422.36
105188.33
104962.72
104745.55
104536.79
104336.34
104144.06
103959.77
103783.25
103614.29
103452.65
103298.1
103150.38
103009.26
102874.49
102745.83
102623.05
102505.93
102394.23
102287.75
102186.27
102089.6
101997.53
101909.88
101826.47
101747.13
101671.68
101599.96
101531.83
101467.14
101405.74
101347.5
101292.29
101240
101190.51
101143.71
101099.5
101057.79
101018.49
100981.51
100946.78
100914.24
100883.83
100855.48
100829.15
100804.85
100782.56
100761.98
100743.08
100727.3
100714.36
100697.07
100678.89
100694.95
100718.06
109548.07
110082.01
110194.9
110436.89
110502.17
110540.46
110486.43
110378.57
110211.22
109999.78
109750.64
109473.62
109175.96
108864.65
108545.29
108222.62
107900.35
107581.43
107268.09
106962.01
106664.35
106375.94
106097.31
105828.73
105570.33
105322.1
105083.93
104855.63
104636.98
104427.7
104227.5
104036.09
103853.15
103678.37
103511.44
103352.05
103199.9
103054.71
102916.19
102784.06
102658.06
102537.94
102423.46
102314.37
102210.46
102111.51
102017.3
101927.65
101842.36
101761.24
101684.13
101610.86
101541.27
101475.2
101412.51
101353.06
101296.72
101243.38
101192.9
101145.19
101100.13
101057.63
101017.59
100979.94
100944.59
100911.48
100880.53
100851.71
100824.94
100800.18
100777.47
100756.73
100737.7
100720.55
100706.44
100694.42
100678.98
100665.35
100679.46
100693.22
110898.9
111422.79
111492.75
111621.89
111572.7
111466.92
111270.98
111020.79
110721.55
110389.98
110035.35
109667.49
109293.33
108918.69
108547.77
108183.75
107828.87
107484.66
107152.09
106831.72
106523.8
106228.38
105945.32
105674.38
105415.25
105167.55
104930.91
104704.89
104489.09
104283.08
104086.47
103898.85
103719.83
103549.04
103386.12
103230.74
103082.56
102941.27
102806.57
102678.18
102555.82
102439.23
102328.17
102222.4
102121.69
102025.83
101934.62
101847.85
101765.35
101686.92
101612.4
101541.63
101474.45
101410.71
101350.28
101293.01
101238.79
101187.48
101138.99
101093.21
101050.02
101009.34
100971.08
100935.17
100901.52
100870.07
100840.76
100813.54
100788.34
100765.15
100743.97
100724.71
100707.18
100691.66
100678.96
100667.78
100654.36
100644.52
100655.85
100662.43
112412.73
112771.9
112725.79
112644.6
112413.03
112117.12
111754.53
111355.8
110931.81
110496.81
110058.99
109625.34
109200.3
108787.08
108387.64
108003.13
107634.14
107280.8
106942.96
106620.32
106312.42
106018.74
105738.73
105471.81
105217.37
104974.85
104743.68
104523.33
104313.28
104113.04
103922.15
103740.16
103566.66
103401.25
103243.57
103093.25
102949.97
102813.42
102683.28
102559.28
102441.15
102328.63
102221.47
102119.46
102022.36
101929.97
101842.08
101758.51
101679.08
101603.6
101531.92
101463.88
101399.33
101338.12
101280.13
101225.21
101173.26
101124.14
101077.77
101034.03
100992.83
100954.07
100917.67
100883.56
100851.66
100821.92
100794.26
100768.65
100745.02
100723.37
100703.67
100685.83
100669.73
100655.71
100644.21
100633.85
100622.44
100615.57
100623.9
100625.52
113773.3
113748.22
113500.23
113158.69
112726.63
112252.44
111751.09
111242.84
110737.23
110242.56
109763.17
109301.93
108860.05
108438.06
108035.91
107653.19
107289.23
106943.24
106614.37
106301.77
106004.6
105722.04
105453.25
105197.47
104953.99
104722.15
104501.35
104290.99
104090.56
103899.56
103717.51
103543.99
103378.59
103220.91
103070.6
102927.31
102790.73
102660.55
102536.48
102418.24
102305.6
102198.31
102096.13
101998.86
101906.28
101818.19
101734.41
101654.76
101579.07
101507.17
101438.9
101374.13
101312.7
101254.48
101199.35
101147.18
101097.86
101051.27
101007.32
100965.9
100926.93
100890.31
100855.97
100823.84
100793.84
100765.91
100740
100716.06
100694.04
100673.93
100655.68
100639.21
100624.48
100611.78
100601.26
100591.66
100582.01
100577.49
100583.73
100580.91
114221.89
113900.55
113457.62
112937.28
112384.95
111825.44
111272.78
110736.36
110220.46
109727.54
109258.2
108812.4
108389.46
107988.38
107607.93
107246.92
106904.17
106578.59
106269.12
105974.78
105694.67
105428
105174.08
104932.2
104701.72
104482.03
104272.58
104072.84
103882.33
103700.6
103527.23
103361.82
103204
103053.42
102909.75
102772.67
102641.91
102517.2
102398.3
102284.96
102176.96
102074.06
101976.07
101882.77
101793.96
101709.48
101629.14
101552.76
101480.2
101411.29
101345.89
101283.86
101225.05
101169.36
101116.64
101066.79
101019.7
100975.25
100933.36
100893.92
100856.85
100822.06
100789.47
100759.02
100730.64
100704.26
100679.83
100657.3
100636.63
100617.79
100600.74
100585.4
100571.79
100560.06
100550.22
100541.5
100533.62
100529.57
100531.71
100529.41
112868.58
112606.59
112218.62
111744.77
111251.9
110753.47
110264.83
109791.23
109335.89
108900.02
108483.78
108086.82
107708.48
107348.05
107004.71
106677.65
106366.04
106069.07
105785.99
105516.06
105258.59
105012.88
104778.39
104554.61
104341.04
104137.2
103942.64
103756.92
103579.64
103410.42
103248.89
103094.72
102947.59
102807.18
102673.23
102545.47
102423.63
102307.45
102196.69
102091.11
101990.5
101894.66
101803.4
101716.52
101633.85
101555.23
101480.49
101409.47
101342.04
101278.03
101217.33
101159.8
101105.31
101053.74
101004.99
100958.93
100915.47
100874.5
100835.93
100799.67
100765.65
100733.76
100703.95
100676.13
100650.25
100626.25
100604.06
100583.64
100564.95
100547.96
100532.61
100518.87
100506.74
100496.28
100487.44
100479.9
100473.68
100469.96
100469.42
100468.21
108264.85
109274.77
109424.51
109466.92
109318.49
109100.62
108826.94
108528.26
108214.97
107897.41
107580.57
107268.39
106963.04
106666.03
106378.21
106100.08
105831.86
105573.61
105325.24
105086.6
104857.51
104637.71
104426.86
104224.65
104030.78
103844.94
103666.84
103496.22
103332.79
103176.3
103026.49
102883.12
102745.96
102614.78
102489.37
102369.53
102255.02
102145.62
102041.16
101941.43
101846.28
101755.54
101669.03
101586.61
101508.12
101433.42
101362.36
101294.82
101230.66
101169.75
101111.97
101057.2
101005.33
100956.25
100909.85
100866.03
100824.69
100785.74
100749.09
100714.66
100682.35
100652.11
100623.84
100597.48
100572.97
100550.25
100529.26
100509.95
100492.27
100476.19
100461.66
100448.65
100437.13
100427.12
100418.56
100411.39
100405.64
100401.51
100399.11
100398.03
110447.69
110490.56
110366.81
110114.4
109747.18
109312.58
108837.48
108341.67
107836.52
107328.9
106832.36
106345.91
105880.2
105430.78
105001.3
104604.79
104237.24
103907.83
103611.31
103346.05
103110.98
102902.2
102717.92
102554.94
102411.04
102282.63
102165.96
102059.22
101962.55
101879.27
101804.66
101735.56
101671.32
101611
101553.97
101499.73
101447.97
101398.46
101351.07
101305.65
101262.16
101220.51
101180.65
101142.55
101106.15
101071.4
101038.25
101006.64
100976.49
100947.78
100920.39
100894.3
100869.38
100845.64
100822.82
100801.12
100779.99
100760.07
100740.06
100721.75
100702.08
100685.51
100664.93
100650.85
100627.23
100617.62
100587.3
100586.15
100542.78
100557.79
100489.62
100535.14
100424.95
100521.76
100342.84
100523.22
100238.25
100545.07
100104.66
100598.42
97116.315
97318.248
97708.554
98129.338
98580.927
99060.962
99469.46
99820.666
100150.14
100444.87
100698.93
100920.78
101111.78
101274.46
101412.32
101526.76
101621.75
101696.68
101753.69
101794.03
101821.09
101835.05
101838.55
101831.26
101815.33
101792.1
101763.75
101731.48
101695.15
101656.93
101617.02
101575.67
101532.65
101489
101445.4
101402.25
101359.88
101318.55
101278.4
101239.55
101202.03
101165.87
101131.09
101097.67
101065.61
101034.87
101005.42
100977.25
100950.28
100924.51
100899.83
100876.25
100853.63
100832.02
100811.15
100791.23
100771.72
100753.27
100734.63
100717.47
100698.99
100683.23
100663.77
100650.08
100627.72
100617.89
100589.16
100587.03
100546.04
100559.04
100495.14
100536.32
100431.14
100523.38
100349.26
100525.62
100242.35
100550.85
100105.28
100606.74
104094.32
104128.5
104127.25
104099.06
104042.29
103963.9
103869.73
103763.63
103649.15
103530.71
103408.96
103286.75
103164.35
103043.65
102924.56
102810.04
102697.4
102593.28
102491.54
102399.21
102305.16
102222.18
102136.18
102062.28
101990.45
101925.19
101867.19
101812.24
101761.22
101700.18
101642.69
101588.54
101536.79
101487.47
101440.34
101395.19
101351.87
101310.25
101270.23
101231.76
101194.78
101159.26
101125.16
101092.46
101061.11
101031.09
101002.37
100974.91
100948.65
100923.57
100899.57
100876.66
100854.67
100833.66
100813.36
100793.99
100774.97
100756.98
100738.73
100721.95
100703.74
100688.25
100668.96
100655.4
100633.16
100623.24
100594.62
100592.21
100550.96
100563.57
100500.27
100539.81
100436.83
100525.7
100354.93
100527.13
100247.71
100552.48
100109.1
100609.57
101630.85
101633.13
101641.04
101656.01
101674.98
101694.61
101715.14
101737.17
101758.85
101780.81
101801.24
101820.73
101837.6
101851.94
101862.43
101869.48
101871.7
101870.11
101863.75
101853.68
101839.74
101822.62
101802.26
101777.14
101747.62
101714.06
101678.15
101640.22
101602.2
101564.16
101525.43
101486.71
101448.07
101409.64
101371.63
101334.17
101297.42
101261.47
101226.44
101192.4
101159.4
101127.48
101096.67
101066.99
101038.44
101011.01
100984.68
100959.45
100935.26
100912.1
100889.89
100868.63
100848.18
100828.59
100809.59
100791.42
100773.49
100756.49
100739.11
100723.15
100705.59
100690.77
100671.92
100658.91
100636.88
100627.45
100598.82
100596.89
100555.58
100568.5
100504.68
100544.83
100440.85
100530.57
100358.37
100531.97
100250.7
100556.87
100111.28
100613.52
102014.97
102022.64
102023.7
102022.3
102019.12
102013.84
102007.01
101999.7
101990.96
101981.43
101969.95
101958.44
101944.36
101929.98
101913.4
101894.9
101875.67
101852.58
101829.83
101802.64
101776.45
101745.53
101715.94
101682.52
101650.31
101616.22
101583.38
101548.48
101514.07
101479.51
101445.03
101410.75
101376.76
101343.16
101310
101277.36
101245.31
101213.89
101183.17
101153.19
101124.01
101095.66
101068.19
101041.6
101015.93
100991.17
100967.34
100944.42
100922.38
100901.22
100880.86
100861.31
100842.44
100824.3
100806.62
100789.66
100772.82
100756.8
100740.3
100725.09
100708.21
100693.95
100675.6
100662.95
100641.26
100632.01
100603.62
100601.68
100560.43
100573.16
100509.57
100549.25
100445.77
100534.64
100363.01
100535.49
100254.68
100560.31
100114.04
100616.73
101495.12
101500.4
101505.41
101512.55
101519.35
101526.36
101531.34
101537.65
101541.37
101546.03
101547.75
101549.61
101548.92
101548.34
101545.35
101541.94
101536.6
101530.61
101522.78
101514.17
101503.73
101492.63
101479.51
101465.4
101449.34
101432.08
101413.1
101393.02
101371.66
101349.4
101326.25
101302.41
101278
101253.17
101228.06
101202.8
101177.52
101152.35
101127.38
101102.72
101078.46
101054.67
101031.41
101008.75
100986.71
100965.33
100944.63
100924.61
100905.26
100886.58
100868.51
100851.07
100834.13
100817.76
100801.7
100786.2
100770.68
100755.83
100740.39
100726.09
100710.03
100696.43
100678.69
100666.47
100645.23
100636.2
100608.17
100606.19
100565.3
100577.74
100514.3
100553.67
100450.08
100538.77
100367.19
100539.32
100258.27
100563.78
100116.62
100619.78
101309.26
101316.12
101321.21
101327.02
101333.09
101338.93
101343.55
101348.62
101351.21
101355.47
101356.61
101360.03
101360.18
101362.02
101361.44
101360.7
101357.84
101355.01
101350.48
101345.39
101338.9
101331.49
101322.87
101313.19
101302.4
101290.56
101277.72
101263.88
101249.11
101233.5
101217.09
101199.99
101182.27
101164.03
101145.37
101126.36
101107.12
101087.74
101068.29
101048.88
101029.59
101010.49
100991.65
100973.12
100954.96
100937.2
100919.87
100902.98
100886.55
100870.56
100854.98
100839.83
100825
100810.54
100796.24
100782.3
100768.21
100754.62
100740.31
100726.96
100711.79
100698.86
100681.8
100669.99
100649.27
100640.37
100612.8
100610.66
100570.16
100582.2
100519.23
100557.93
100454.92
100542.69
100371.68
100542.79
100262.09
100567.02
100119.28
100622.56
101049.38
101056.31
101061.87
101068.51
101075.32
101082.35
101088.48