/*--------------------------------*- C++ -*----------------------------------*\
  =========                 |
  \\      /  F ield         | OpenFOAM: The Open Source CFD Toolbox
   \\    /   O peration     | Website:  https://openfoam.org
    \\  /    A nd           | Version:  6
     \\/     M anipulation  |
\*---------------------------------------------------------------------------*/
FoamFile
{
    version     2.0;
    format      ascii;
    class       surfaceScalarField;
    location    "650";
    object      phi;
}
// * * * * * * * * * * * * * * * * * * * * * * * * * * * * * * * * * * * * * //

dimensions      [1 0 -1 0 0 0 0];

internalField   nonuniform List<scalar> 
31760
(
-0.00058118834
-0.038387897
0.038969085
-0.0012926587
-0.042572281
0.04328375
-0.0020210625
-0.043678957
0.04440736
-0.0028041359
-0.046230664
0.047013736
-0.0036071678
-0.048062677
0.048865708
-0.0044650043
-0.050514121
0.051371957
-0.0053515726
-0.052734991
0.053621559
-0.0062906267
-0.055287604
0.056226657
-0.0072670907
-0.057807152
0.058783616
-0.0082959226
-0.06054413
0.061572961
-0.009369886
-0.063341148
0.064415112
-0.010498106
-0.066310832
0.067439051
-0.011677674
-0.069389513
0.070569081
-0.012914624
-0.072628459
0.073865408
-0.014208915
-0.076005174
0.077299466
-0.015564824
-0.079544905
0.080900814
-0.016983588
-0.083243706
0.08466247
-0.018468509
-0.087115782
0.088600702
-0.020021613
-0.091165456
0.092718561
-0.021645975
-0.095403148
0.09702751
-0.02334386
-0.099836687
0.10153457
-0.025118354
-0.104476
0.1062505
-0.026971456
-0.1093308
0.1111839
-0.028906059
-0.1144116
0.1163462
-0.030924497
-0.11972919
0.12174763
-0.033028852
-0.12529577
0.12740012
-0.035221453
-0.13112295
0.13331555
-0.037504591
-0.13722419
0.13950733
-0.039879882
-0.1436131
0.14598839
-0.042348695
-0.1503044
0.15277321
-0.044912732
-0.15731313
0.15987717
-0.047572765
-0.16465603
0.16731606
-0.050329882
-0.17234965
0.17510676
-0.05318397
-0.18041258
0.18326666
-0.056134969
-0.18886411
0.19181511
-0.059182475
-0.19772424
0.20077174
-0.062325573
-0.20701414
0.21015724
-0.065562134
-0.21675695
0.21999351
-0.068890282
-0.22697609
0.23030424
-0.072306948
-0.23769663
0.24111329
-0.075808778
-0.24894494
0.25244677
-0.079391132
-0.26074902
0.26433137
-0.083049105
-0.2731377
0.27679567
-0.0867762
-0.28614244
0.28986954
-0.090565569
-0.29979482
0.30358419
-0.094409168
-0.31412941
0.31797301
-0.098297237
-0.32918158
0.33306965
-0.10221941
-0.34498917
0.34891134
-0.10616367
-0.36159133
0.36553559
-0.11011586
-0.37903
0.38298219
-0.11406092
-0.39734813
0.40129319
-0.11798096
-0.41659174
0.42051178
-0.12185628
-0.43680869
0.44068401
-0.12566428
-0.45804947
0.46185747
-0.1293803
-0.48036657
0.48408259
-0.13297579
-0.50381587
0.50741137
-0.13641921
-0.52845573
0.53189914
-0.1396743
-0.55434763
0.55760273
-0.14270119
-0.58155471
0.58458161
-0.14545449
-0.6101445
0.61289779
-0.14788334
-0.64018805
0.6426169
-0.14993054
-0.67175824
0.67380543
-0.15153321
-0.7049341
0.70653677
-0.15261748
-0.7397944
0.74087867
-0.15310742
-0.77642672
0.77691665
-0.15290478
-0.81491308
0.81471044
-0.15192384
-0.85535517
0.85437423
-0.15002242
-0.89781604
0.89591462
-0.14713182
-0.94244527
0.93955466
-0.14301187
-0.9892261
0.98510615
-0.13768549
-1.0384713
1.0331449
-0.1306935
-1.0898755
1.0828835
-0.12232222
-1.1443213
1.13595
-0.11156441
-1.2004716
1.1897138
-0.099399495
-1.2610664
1.2489015
-0.083791678
-1.3212193
1.3056115
-0.066934159
-1.3893993
1.3725418
-0.045406394
-1.4516983
1.4301705
-0.022318341
-1.5290828
1.5059948
-1.5944386
1.5658013
-0.00056163157
-0.037826266
-0.0012334565
-0.041900457
-0.0019237082
-0.042988706
-0.0026644073
-0.045489966
-0.0034276365
-0.047299448
-0.0042396116
-0.049702147
-0.0050820873
-0.051892515
-0.005973329
-0.054396363
-0.0069026504
-0.056877831
-0.0078816047
-0.059565177
-0.0089052615
-0.062317491
-0.0099812155
-0.065234879
-0.011107733
-0.068262995
-0.012290417
-0.071445776
-0.013528984
-0.074766608
-0.014827909
-0.078245981
-0.016188422
-0.081883192
-0.017614033
-0.085690172
-0.019106739
-0.08967275
-0.020669511
-0.093840377
-0.022304724
-0.098201474
-0.024014989
-0.10276574
-0.025803241
-0.10754255
-0.027671613
-0.11254323
-0.029622425
-0.11777838
-0.031658315
-0.12325988
-0.03378133
-0.12899993
-0.035993518
-0.13501201
-0.038296322
-0.14131029
-0.040691734
-0.14790898
-0.043180878
-0.15482399
-0.045764746
-0.16207216
-0.048443963
-0.16967043
-0.051218456
-0.17763808
-0.054088673
-0.1859939
-0.057053669
-0.19475924
-0.060112137
-0.20395567
-0.063262817
-0.21360627
-0.066503368
-0.22373554
-0.069830837
-0.23436916
-0.073241952
-0.24553382
-0.076732507
-0.25725846
-0.080297332
-0.26957288
-0.083930891
-0.28250888
-0.087626416
-0.2960993
-0.091376459
-0.31037936
-0.095172052
-0.32538599
-0.099003459
-0.34115776
-0.10285928
-0.35773551
-0.1067272
-0.37516208
-0.11059265
-0.39348269
-0.11443976
-0.41274462
-0.11825044
-0.43299801
-0.12200425
-0.45429567
-0.12567824
-0.47669258
-0.12924672
-0.50024739
-0.1326806
-0.52502185
-0.13594791
-0.55108032
-0.13901139
-0.57849123
-0.14182988
-0.607326
-0.14435802
-0.63765991
-0.14654312
-0.66957313
-0.14832824
-0.70314898
-0.14964688
-0.73847576
-0.15042735
-0.77564624
-0.15058698
-0.81475345
-0.15003695
-0.8559052
-0.14866601
-0.89918697
-0.14638103
-0.94473025
-0.14301083
-0.99259631
-0.13849651
-1.0429856
-0.13254083
-1.0958312
-0.12522727
-1.1516348
-0.11592719
-1.2097717
-0.10511224
-1.2718813
-0.091432317
-1.3348992
-0.076275616
-1.404556
-0.057175394
-1.4707985
-0.036532848
-1.5497254
-1.6199589
-0.0005297878
-0.037296479
-0.0011782311
-0.041252014
-0.001829413
-0.042337524
-0.0025347478
-0.044784631
-0.0032577721
-0.046576424
-0.0040322178
-0.048927702
-0.0048338182
-0.051090915
-0.0056852451
-0.053544937
-0.0065725075
-0.055990568
-0.0075099465
-0.058627739
-0.0084904805
-0.061336957
-0.0095229548
-0.064202405
-0.010605304
-0.067180646
-0.011742814
-0.070308266
-0.01293635
-0.073573072
-0.014189212
-0.07699312
-0.015503681
-0.080568723
-0.016882266
-0.084311587
-0.018327967
-0.088227049
-0.019843121
-0.092325223
-0.021430571
-0.096614025
-0.023093123
-0.10110319
-0.024832566
-0.10580311
-0.026652276
-0.11072352
-0.028554423
-0.11587623
-0.030541119
-0.12127318
-0.032614496
-0.12692655
-0.034776432
-0.13285007
-0.037028929
-0.13905779
-0.039373363
-0.14556455
-0.041810553
-0.1523868
-0.044342007
-0.15954071
-0.046967628
-0.16704481
-0.049688191
-0.17491752
-0.05250304
-0.18317905
-0.055411643
-0.19185064
-0.058412817
-0.2009545
-0.061504806
-0.21051428
-0.064685548
-0.2205548
-0.067952699
-0.23110201
-0.071302188
-0.24218433
-0.074730578
-0.25383007
-0.078233153
-0.2660703
-0.081804681
-0.27893736
-0.085438831
-0.29246515
-0.089128495
-0.3066897
-0.092865918
-0.32164857
-0.096642032
-0.33738165
-0.10044686
-0.35393069
-0.10426882
-0.37134011
-0.10809511
-0.38965641
-0.11191132
-0.4089284
-0.11570099
-0.42920834
-0.11944604
-0.45055062
-0.12312598
-0.47301264
-0.12671748
-0.49665589
-0.13019472
-0.52154461
-0.13352845
-0.54774659
-0.13668576
-0.57533393
-0.1396298
-0.60438196
-0.14231886
-0.63497085
-0.14470683
-0.66718517
-0.14674113
-0.70111468
-0.14836359
-0.73685331
-0.14950848
-0.77450134
-0.15009972
-0.81416221
-0.15006155
-0.85594337
-0.14929247
-0.89995606
-0.14769858
-0.94632413
-0.1451487
-0.99514619
-0.14155105
-1.0465833
-0.13669342
-1.1006888
-0.13055422
-1.157774
-0.1227277
-1.2175982
-0.11342419
-1.2811848
-0.10169022
-1.3466332
-0.088429385
-1.4178169
-0.071803221
-1.4874247
-0.053507986
-1.5680206
-1.6422876
-0.00050032055
-0.036796159
-0.001130347
-0.040621989
-0.0017487579
-0.041719113
-0.0024243963
-0.044108994
-0.0031140715
-0.045886749
-0.0038568593
-0.048184915
-0.0046247201
-0.050323054
-0.0054429404
-0.052726718
-0.0062960058
-0.055137503
-0.0071992345
-0.057724511
-0.0081453276
-0.060390864
-0.0091431782
-0.063204555
-0.010190684
-0.066133139
-0.011293626
-0.069205325
-0.012452235
-0.072414463
-0.01367065
-0.075774705
-0.01495051
-0.079288863
-0.016295248
-0.08296685
-0.017707097
-0.086815199
-0.01918919
-0.090843131
-0.020743858
-0.095059356
-0.022373697
-0.099473349
-0.024081708
-0.1040951
-0.025870202
-0.10893502
-0.027741355
-0.11400508
-0.02969775
-0.11931679
-0.031741115
-0.12488319
-0.03387368
-0.13071751
-0.036096842
-0.13683463
-0.038412132
-0.14324926
-0.040820524
-0.14997841
-0.043322761
-0.15703848
-0.045919563
-0.164448
-0.048610553
-0.17222653
-0.051395476
-0.18039413
-0.054273922
-0.18897219
-0.057244502
-0.19798392
-0.060305571
-0.20745321
-0.063455126
-0.21740525
-0.066690496
-0.22786664
-0.070008781
-0.23886605
-0.073406141
-0.25043271
-0.076878331
-0.26259811
-0.080420588
-0.2753951
-0.084027336
-0.2888584
-0.087692342
-0.30302469
-0.09140859
-0.31793232
-0.095168139
-0.3336221
-0.098961989
-0.35013684
-0.10278005
-0.36752205
-0.10661136
-0.38582509
-0.11044257
-0.4050972
-0.11425994
-0.42539097
-0.11804732
-0.44676324
-0.12178609
-0.46927386
-0.12545636
-0.49298563
-0.12903546
-0.51796551
-0.13249698
-0.54428507
-0.13581215
-0.57201876
-0.13894837
-0.60124574
-0.14186881
-0.63205041
-0.14453218
-0.6645218
-0.14689238
-0.69875448
-0.14889693
-0.73484875
-0.15048785
-0.77291043
-0.15159938
-0.81305068
-0.15215777
-0.85538498
-0.15207846
-0.90003537
-0.15127455
-0.94712804
-0.14963436
-0.99678638
-0.14705671
-1.0491609
-0.14338695
-1.1043586
-0.13854925
-1.1626117
-0.13226082
-1.2238866
-0.12460741
-1.2888382
-0.11487673
-1.3563639
-0.10366883
-1.4290248
-0.089579696
-1.5015138
-0.073908868
-1.5836915
-1.6614378
-0.00047337225
-0.036322787
-0.0010875525
-0.040007809
-0.0016780443
-0.041128622
-0.0023295868
-0.043457452
-0.0029918414
-0.045224494
-0.0037095283
-0.047467229
-0.0044507616
-0.049581821
-0.0052435013
-0.051933979
-0.0060707844
-0.05431022
-0.0069484505
-0.056846845
-0.0078695544
-0.05946976
-0.0088430432
-0.062231067
-0.0098668786
-0.065109304
-0.01094646
-0.068125744
-0.012082715
-0.071278207
-0.013279747
-0.074577674
-0.01453933
-0.07802928
-0.015864905
-0.081641275
-0.017258763
-0.085421342
-0.018723781
-0.089378114
-0.020263015
-0.093520122
-0.021878934
-0.09785743
-0.023574299
-0.10239973
-0.025351153
-0.10715817
-0.027212516
-0.11214372
-0.029160159
-0.11736914
-0.031196337
-0.12284701
-0.033322476
-0.12859137
-0.035540608
-0.1346165
-0.037851318
-0.14093855
-0.040256194
-0.14757353
-0.042755518
-0.15453915
-0.045349693
-0.16185383
-0.048038706
-0.16953752
-0.050822171
-0.17761066
-0.053698931
-0.18609543
-0.05666822
-0.19501463
-0.059728557
-0.20439288
-0.062877654
-0.21425615
-0.066113097
-0.22463119
-0.069432457
-0.23554669
-0.07283216
-0.24703301
-0.076308516
-0.25912175
-0.079857502
-0.27184611
-0.083474104
-0.2852418
-0.087153227
-0.29934557
-0.09088854
-0.31419701
-0.094673294
-0.32983734
-0.098500034
-0.3463101
-0.10236028
-0.36366181
-0.10624397
-0.38194139
-0.11014091
-0.40120026
-0.11403849
-0.42149339
-0.11792304
-0.44287869
-0.12177933
-0.46541757
-0.12558956
-0.4891754
-0.12933392
-0.51422115
-0.13299042
-0.54062857
-0.13653387
-0.56847531
-0.1399359
-0.59784371
-0.14316428
-0.62882203
-0.1461834
-0.66150269
-0.14895266
-0.69598521
-0.15142659
-0.73237483
-0.15355408
-0.77078294
-0.15527722
-0.81132754
-0.15653109
-0.85413111
-0.15724347
-0.89932299
-0.15733433
-0.94703718
-0.15670533
-0.99741538
-0.15526764
-1.0505986
-0.15289065
-1.1067356
-0.1494857
-1.1660167
-0.14484163
-1.2285307
-0.13896848
-1.2947114
-0.13135197
-1.3639804
-0.12235614
-1.4380206
-0.11088101
-1.512989
-0.097942268
-1.5966302
-1.6773202
-0.00045269973
-0.035870088
-0.0010446672
-0.039415842
-0.0016145445
-0.040558745
-0.0022496418
-0.042822355
-0.0028927748
-0.044581362
-0.0035937588
-0.046766246
-0.0043175378
-0.048858042
-0.0050941305
-0.051157387
-0.005905657
-0.053498693
-0.0067687514
-0.055983752
-0.0076760043
-0.058562507
-0.0086367542
-0.061270318
-0.0096494107
-0.064096647
-0.010719345
-0.06705581
-0.011847692
-0.07014986
-0.013038073
-0.073387293
-0.014293234
-0.076774119
-0.015615979
-0.08031853
-0.017009381
-0.084027939
-0.018476358
-0.087911137
-0.020019274
-0.091977206
-0.021641534
-0.096235171
-0.02334509
-0.10069617
-0.025132991
-0.10537027
-0.02700721
-0.1102695
-0.028969896
-0.11540646
-0.03102314
-0.12079377
-0.03316842
-0.12644609
-0.035407152
-0.13237777
-0.037740466
-0.13860524
-0.040169248
-0.14514475
-0.042693616
-0.15201478
-0.045314089
-0.15923335
-0.048030319
-0.16682129
-0.050841838
-0.17479914
-0.053747862
-0.18318941
-0.056747268
-0.19201522
-0.059838595
-0.20130155
-0.063019967
-0.21107478
-0.06628945
-0.22136171
-0.069644524
-0.23219161
-0.073082395
-0.24359514
-0.07660027
-0.25560388
-0.08019421
-0.26825217
-0.083860594
-0.28157542
-0.087595035
-0.29561113
-0.091392759
-0.31039928
-0.095248503
-0.3259816
-0.099155599
-0.342403
-0.10310757
-0.35970984
-0.10709674
-0.37795222
-0.1111141
-0.3971829
-0.11514991
-0.41745758
-0.11919276
-0.43883584
-0.12322981
-0.46138052
-0.12724683
-0.48515838
-0.13122741
-0.51024057
-0.13515268
-0.5367033
-0.1390019
-0.56462609
-0.14275047
-0.59409513
-0.1463722
-0.6252003
-0.14983579
-0.6580391
-0.15310721
-0.69271379
-0.15614745
-0.72933458
-0.15891258
-0.76801781
-0.16135285
-0.80888727
-0.16341342
-0.85207054
-0.1650308
-0.89770562
-0.16613138
-0.94593659
-0.1666399
-0.99690687
-0.16646545
-1.0507731
-0.16550892
-1.1076921
-0.16367329
-1.1678523
-0.1608041
-1.2313999
-0.15686731
-1.2986482
-0.15148454
-1.3693632
-0.14487357
-1.4446316
-0.13614718
-1.5217153
-0.12614094
-1.6066364
-1.6898419
-0.00043857769
-0.035431511
-0.0010111336
-0.038843287
-0.0015672352
-0.040002644
-0.0021932891
-0.042196302
-0.0028253239
-0.043949327
-0.0035179637
-0.046073607
-0.0042335768
-0.048142429
-0.0050035574
-0.050387407
-0.0058100537
-0.052692197
-0.0066695116
-0.055124294
-0.0075753213
-0.057656697
-0.008536356
-0.060309284
-0.0095514587
-0.063081544
-0.010625934
-0.065981335
-0.011761792
-0.069014002
-0.012962392
-0.072186694
-0.01423038
-0.07550613
-0.01556941
-0.078979501
-0.016981766
-0.082615583
-0.018470968
-0.086421936
-0.020039672
-0.090408502
-0.021690469
-0.094584374
-0.023426453
-0.09896019
-0.0252495
-0.10354722
-0.027161897
-0.1083571
-0.029166035
-0.11340232
-0.031263351
-0.11869645
-0.03345549
-0.12425395
-0.035743339
-0.13008992
-0.038127964
-0.13622061
-0.040610032
-0.14266268
-0.043189871
-0.14943495
-0.045867251
-0.15655598
-0.048642221
-0.16404632
-0.05151393
-0.17192743
-0.054481752
-0.18022159
-0.057544699
-0.18895227
-0.060701053
-0.1981452
-0.063950051
-0.20782578
-0.067289389
-0.21802237
-0.070717474
-0.22876353
-0.074232248
-0.24008037
-0.077831087
-0.25200504
-0.081511816
-0.26457145
-0.085271523
-0.27781571
-0.08910697
-0.29177568
-0.093014583
-0.30649167
-0.09699044
-0.32200574
-0.10103049
-0.33836295
-0.1051293
-0.35561103
-0.10928132
-0.3738002
-0.11347979
-0.39298443
-0.11771745
-0.41321991
-0.12198568
-0.43456761
-0.12627445
-0.45709176
-0.13057265
-0.48086018
-0.13486697
-0.50594625
-0.13914306
-0.53242721
-0.14338348
-0.56038568
-0.14756951
-0.58990909
-0.15167843
-0.62109138
-0.15568567
-0.65403186
-0.15956245
-0.68883701
-0.16327691
-0.72562012
-0.16679265
-0.76450207
-0.1700686
-0.80561132
-0.17305611
-0.84908303
-0.1757024
-0.89505933
-0.17794996
-0.94368903
-0.1797297
-0.99512712
-0.18096673
-1.049536
-0.18157484
-1.107084
-0.18146953
-1.1679576
-0.18052686
-1.2323426
-0.17869312
-1.3004819
-0.17569144
-1.3723648
-0.17164863
-1.4486744
-0.16583699
-1.527527
-0.15894241
-1.613531
-1.6988779
-0.00042997243
-0.035001538
-0.00099766994
-0.03827559
-0.0015467918
-0.039453522
-0.0021710603
-0.041572034
-0.0028003746
-0.043320013
-0.0034932688
-0.045380713
-0.004210555
-0.047425143
-0.0049844218
-0.049613541
-0.0057972911
-0.051879328
-0.0066653134
-0.054256273
-0.0075829157
-0.056739095
-0.0085582339
-0.059333966
-0.0095914091
-0.062048369
-0.010687398
-0.064885346
-0.011848088
-0.067853313
-0.013077601
-0.070957182
-0.014378616
-0.074205115
-0.015754339
-0.077603778
-0.01720818
-0.081161742
-0.018742704
-0.084887412
-0.020361216
-0.08878999
-0.022066171
-0.09287942
-0.023860117
-0.097166243
-0.025745632
-0.10166171
-0.02772459
-0.10637814
-0.029798636
-0.11132828
-0.03196947
-0.11652562
-0.034238188
-0.12198523
-0.036605986
-0.12772212
-0.039073319
-0.13375328
-0.041640588
-0.14009541
-0.044307873
-0.14676766
-0.047075151
-0.1537887
-0.049941793
-0.16117968
-0.052907633
-0.16896159
-0.055971961
-0.17715726
-0.059133338
-0.1857909
-0.062391527
-0.19488701
-0.065745057
-0.20447225
-0.069193058
-0.21457437
-0.072733898
-0.22522269
-0.076366735
-0.23644753
-0.080090192
-0.24828158
-0.083902737
-0.2607589
-0.08780268
-0.27391577
-0.091788179
-0.28779018
-0.095857766
-0.30242208
-0.10000899
-0.31785452
-0.10423891
-0.33413303
-0.10854497
-0.35130497
-0.11292343
-0.36942174
-0.11737023
-0.38853763
-0.12188045
-0.4087097
-0.12644813
-0.42999993
-0.13106694
-0.45247294
-0.13572811
-0.476199
-0.14042301
-0.50125135
-0.14514044
-0.52770978
-0.14986804
-0.55565808
-0.15459075
-0.58518638
-0.15929226
-0.61638988
-0.16395272
-0.6493714
-0.16855013
-0.6842396
-0.17305912
-0.72111114
-0.17745066
-0.76011053
-0.181692
-0.80136997
-0.18574474
-0.84503029
-0.18956694
-0.89123713
-0.19310759
-0.94014839
-0.19631378
-0.99192093
-0.19912063
-1.0467292
-0.20145776
-1.1047469
-0.20325536
-1.16616
-0.20441749
-1.2311804
-0.20488034
-1.3000191
-0.2044431
-1.3728021
-0.2031695
-1.449948
-0.20046378
-1.5302327
-0.19688996
-1.6171049
-1.7042471
-0.00042716133
-0.034574377
-0.00099995189
-0.0377028
-0.001550349
-0.038903125
-0.0021815136
-0.04094087
-0.002817987
-0.04268354
-0.0035214327
-0.044677268
-0.0042520565
-0.046694519
-0.0050417859
-0.048823812
-0.0058745675
-0.051046546
-0.0067654763
-0.053365364
-0.0077103592
-0.055794212
-0.0087168509
-0.058327475
-0.009785769
-0.060979451
-0.010921886
-0.06374923
-0.012127794
-0.066647404
-0.013407525
-0.069677452
-0.014763944
-0.072848696
-0.016200608
-0.076167114
-0.017720409
-0.07964194
-0.019326678
-0.083281143
-0.02102215
-0.087094518
-0.022809449
-0.091092122
-0.024690808
-0.095284884
-0.026668312
-0.099684206
-0.02874415
-0.1043023
-0.030919548
-0.10915288
-0.033195673
-0.11424949
-0.035573643
-0.11960726
-0.038053959
-0.1252418
-0.040637298
-0.13116994
-0.043323257
-0.13740945
-0.046112295
-0.14397862
-0.04900372
-0.15089727
-0.051997541
-0.15818586
-0.055093301
-0.16586583
-0.058290019
-0.17396054
-0.06158792
-0.182493
-0.064986044
-0.19148889
-0.068483914
-0.20097438
-0.072081324
-0.21097696
-0.075778227
-0.22152579
-0.079573934
-0.23265182
-0.08346829
-0.24438723
-0.087461354
-0.25676584
-0.091553244
-0.26982388
-0.095743454
-0.28359997
-0.10003187
-0.29813367
-0.10441809
-0.3134683
-0.10890174
-0.32964938
-0.11348182
-0.34672489
-0.11815731
-0.36474624
-0.12292672
-0.38376823
-0.12778767
-0.40384875
-0.1327376
-0.42505
-0.13777256
-0.44743799
-0.14288868
-0.47108288
-0.14807984
-0.49606019
-0.15333972
-0.5224499
-0.15866001
-0.55033779
-0.16403107
-0.57981533
-0.16944112
-0.61097982
-0.17487694
-0.64393558
-0.18032282
-0.67879372
-0.18576002
-0.71567393
-0.19116781
-0.75470274
-0.19652121
-0.79601657
-0.2017928
-0.8397587
-0.20694691
-0.88608302
-0.21194957
-0.93514573
-0.2167534
-0.9871171
-0.22131091
-1.0421717
-0.22556803
-1.1004898
-0.22946143
-1.1622666
-0.23292444
-1.2277174
-0.23589821
-1.2970453
-0.23823554
-1.3704648
-0.23995641
-1.4482271
-0.24057927
-1.5296099
-0.24055311
-1.617131
-1.7057188
-0.00043117311
-0.034143204
-0.0010175925
-0.037116381
-0.0015788261
-0.038341892
-0.0022271067
-0.04029259
-0.0028822773
-0.042028369
-0.0036081997
-0.043951346
-0.0043655647
-0.045937154
-0.0051853771
-0.048004
-0.0060535121
-0.050178411
-0.006983927
-0.05243495
-0.0079739284
-0.05480421
-0.0090306043
-0.057270799
-0.010155723
-0.059854332
-0.011353838
-0.062551115
-0.012628276
-0.065372966
-0.013982519
-0.068323209
-0.015420208
-0.071411007
-0.01694457
-0.074642752
-0.018559002
-0.078027508
-0.020266211
-0.081573934
-0.02206875
-0.085291979
-0.023969311
-0.089191562
-0.02596996
-0.093284234
-0.028072572
-0.097581594
-0.030278217
-0.10209666
-0.032588468
-0.10684263
-0.035004149
-0.11183381
-0.037525749
-0.11708566
-0.04015324
-0.12261431
-0.042887152
-0.12843603
-0.045727268
-0.13456934
-0.048673394
-0.1410325
-0.05172518
-0.14784549
-0.054882744
-0.15502829
-0.05814535
-0.16260323
-0.061513485
-0.1705924
-0.064986732
-0.17901975
-0.068565324
-0.18791029
-0.072250167
-0.19728953
-0.076041383
-0.20718575
-0.079939655
-0.21762751
-0.083946576
-0.2286449
-0.088063
-0.2402708
-0.092290528
-0.25253831
-0.096630345
-0.26548406
-0.10108472
-0.2791456
-0.1056548
-0.29356358
-0.11034281
-0.3087803
-0.11515015
-0.32484203
-0.12007843
-0.34179662
-0.12512923
-0.35969544
-0.13030348
-0.37859398
-0.13560225
-0.39854998
-0.14102552
-0.41962673
-0.14657376
-0.44188974
-0.15224567
-0.46541097
-0.15803986
-0.490266
-0.16395405
-0.51653571
-0.16998468
-0.54430716
-0.17612701
-0.573673
-0.18237555
-0.60473128
-0.18872249
-0.63758864
-0.19515841
-0.6723578
-0.20167281
-0.70915954
-0.20825197
-0.74812357
-0.21488031
-0.78938823
-0.22153771
-0.8331013
-0.22820456
-0.87941617
-0.23485067
-0.92849962
-0.24144807
-0.9805197
-0.2479598
-1.0356599
-0.25434388
-1.0941057
-0.26055345
-1.1560571
-0.26654377
-1.2217271
-0.27226004
-1.291329
-0.27761326
-1.3651115
-0.28258403
-1.4432564
-0.28679081
-1.5254031
-0.2905822
-1.6133396
-1.7030155
-0.00044323302
-0.033699972
-0.0010536194
-0.036505995
-0.0016368438
-0.037758667
-0.0023136292
-0.039615805
-0.0030005198
-0.041341479
-0.0037624693
-0.043189397
-0.0045617882
-0.045137835
-0.0054278581
-0.04713793
-0.0063490759
-0.049257193
-0.0073379484
-0.051446078
-0.0083936417
-0.053748517
-0.0095224774
-0.056141964
-0.010727245
-0.058649565
-0.012012425
-0.061265935
-0.013381429
-0.064003961
-0.014838226
-0.066866413
-0.016386383
-0.06986285
-0.018029015
-0.073000121
-0.019769233
-0.07628729
-0.021609734
-0.079733433
-0.023553206
-0.083348508
-0.025601335
-0.087143434
-0.027756007
-0.091129562
-0.030018356
-0.095319246
-0.03238972
-0.099725294
-0.034870671
-0.10436168
-0.037461416
-0.10924306
-0.040162149
-0.11438493
-0.04297311
-0.11980335
-0.04589367
-0.12551547
-0.048924194
-0.13153881
-0.052063988
-0.1378927
-0.05531349
-0.14459598
-0.058672369
-0.15166941
-0.062141232
-0.15913436
-0.065720188
-0.16701345
-0.069410539
-0.1753294
-0.073213173
-0.18410766
-0.077129572
-0.19337313
-0.081161673
-0.20315364
-0.085311866
-0.21347732
-0.089582169
-0.2243746
-0.093976228
-0.23587674
-0.098496462
-0.24801807
-0.10314689
-0.26083363
-0.10793078
-0.27436171
-0.11285246
-0.28864191
-0.11791546
-0.30371729
-0.12312419
-0.31963331
-0.12848288
-0.33643793
-0.13399559
-0.35418273
-0.13966633
-0.37292323
-0.14549911
-0.39271721
-0.15149786
-0.41362798
-0.15766558
-0.43572202
-0.16400574
-0.45907081
-0.17052118
-0.48375056
-0.17721351
-0.50984338
-0.18408476
-0.53743591
-0.19113562
-0.56662213
-0.19836534
-0.59750156
-0.20577343
-0.63018055
-0.21335745
-0.66477378
-0.22111356
-0.70140344
-0.22903665
-0.74020048
-0.23712013
-0.78130474
-0.24535541
-0.82486603
-0.2537295
-0.87104207
-0.26222874
-0.92000039
-0.2708316
-0.97191684
-0.27951861
-1.0269729
-0.28826304
-1.0853613
-0.29703495
-1.1472852
-0.30580356
-1.2129585
-0.31452901
-1.2826036
-0.32315858
-1.356482
-0.33166646
-1.4347485
-0.33974746
-1.5173221
-0.34766347
-1.6054236
-1.6958133
-0.00046317883
-0.033236793
-0.0011078738
-0.0358613
-0.0017245946
-0.037141947
-0.0024423619
-0.038898038
-0.0031754721
-0.040608368
-0.0039887072
-0.042376162
-0.0048473188
-0.044279224
-0.0057781969
-0.046207052
-0.0067728715
-0.048262518
-0.007842193
-0.050376756
-0.0089871867
-0.052603523
-0.010213649
-0.054915502
-0.011525131
-0.057338083
-0.012926008
-0.059865058
-0.014420186
-0.062509784
-0.016011263
-0.065275336
-0.017702846
-0.068171267
-0.019497876
-0.071205091
-0.021399141
-0.074386025
-0.023409012
-0.077723563
-0.02552939
-0.081228129
-0.027761797
-0.084911028
-0.030107557
-0.088783802
-0.032567194
-0.092859608
-0.035141095
-0.097151393
-0.037829404
-0.10167337
-0.040632084
-0.10644038
-0.043548854
-0.11146816
-0.046579552
-0.11677265
-0.049723921
-0.1223711
-0.05298152
-0.12828121
-0.056352774
-0.13452145
-0.059837906
-0.14111085
-0.063437334
-0.14806999
-0.067152364
-0.15541933
-0.070984425
-0.16318139
-0.074935418
-0.17137841
-0.079007913
-0.18003517
-0.083204323
-0.18917673
-0.087528555
-0.19882941
-0.091984196
-0.20902168
-0.096575982
-0.21978281
-0.10130796
-0.23114477
-0.10618594
-0.24314009
-0.11121519
-0.25580438
-0.11640169
-0.26917521
-0.12175164
-0.28329196
-0.12727143
-0.2981975
-0.13296795
-0.31393678
-0.13884809
-0.33055779
-0.1449187
-0.34811213
-0.1511874
-0.36665452
-0.15766112
-0.38624349
-0.16434735
-0.40694174
-0.17125338
-0.42881599
-0.17838638
-0.45193782
-0.18575343
-0.4763835
-0.19336172
-0.50223509
-0.20121733
-0.5295803
-0.20932726
-0.55851221
-0.21769718
-0.58913164
-0.22633238
-0.62154535
-0.23523792
-0.65586824
-0.24441799
-0.69222337
-0.25387608
-0.73074239
-0.26361424
-0.77156658
-0.27363397
-0.81484631
-0.28393486
-0.86074118
-0.29451295
-0.9094223
-0.30536315
-0.96106665
-0.31647635
-1.0158597
-0.32784274
-1.0739949
-0.33944582
-1.1356821
-0.35127065
-1.2011337
-0.36329827
-1.270576
-0.37550618
-1.3442741
-0.38786802
-1.4223866
-0.40015524
-1.5050349
-0.41254888
-1.59303
-1.6837583
-0.00049347968
-0.032743313
-0.0011852009
-0.035169579
-0.0018497717
-0.036477376
-0.0026233415
-0.038124468
-0.0034199085
-0.039811801
-0.0043026321
-0.041493438
-0.0052408806
-0.043340975
-0.0062585964
-0.045189337
-0.0073506266
-0.047170488
-0.0085262657
-0.049201118
-0.0097883196
-0.051341469
-0.011141925
-0.053561897
-0.012591512
-0.055888496
-0.014141112
-0.058315459
-0.015794786
-0.060856109
-0.017555998
-0.063514125
-0.019427693
-0.066299571
-0.021412951
-0.069219834
-0.023513749
-0.072285226
-0.025731855
-0.075505457
-0.028068286
-0.078891699
-0.030523947
-0.082455366
-0.03309921
-0.086208539
-0.03579412
-0.090164699
-0.038608311
-0.094337202
-0.04154141
-0.09874027
-0.044592829
-0.10338897
-0.047762312
-0.10829868
-0.051049103
-0.11348586
-0.054453298
-0.11896691
-0.057975306
-0.12475921
-0.061615436
-0.13088132
-0.065374767
-0.13735152
-0.069254874
-0.14418988
-0.073258019
-0.15141619
-0.077387196
-0.15905221
-0.081645144
-0.16712046
-0.086036472
-0.17564384
-0.090565531
-0.18464767
-0.095237374
-0.19415757
-0.10005806
-0.20420099
-0.10503365
-0.21480723
-0.11017115
-0.22600727
-0.11547802
-0.23783322
-0.12096194
-0.25032047
-0.12663146
-0.26350569
-0.132495
-0.27742841
-0.1385618
-0.2921307
-0.14484158
-0.30765701
-0.15134383
-0.32405554
-0.15807902
-0.34137694
-0.16505755
-0.359676
-0.17229021
-0.37901082
-0.1797881
-0.39944386
-0.18756271
-0.42104139
-0.1956256
-0.44387492
-0.20398843
-0.46802067
-0.21266327
-0.49356026
-0.22166229
-0.52058128
-0.23099756
-0.54917694
-0.24068174
-0.57944746
-0.25072691
-0.61150018
-0.26114562
-0.64544953
-0.2719499
-0.68141909
-0.28315231
-0.71953997
-0.29476476
-0.75995413
-0.30679914
-0.80281193
-0.3192657
-0.84827462
-0.33217317
-0.89651483
-0.34553373
-0.94770609
-0.35934864
-1.0020448
-0.37361974
-1.0597238
-0.3883525
-1.1209493
-0.4035505
-1.1859357
-0.41920704
-1.2549194
-0.43532661
-1.3281545
-0.45188847
-1.4058248
-0.46875026
-1.4881731
-0.48602452
-1.5757557
-1.6664557
-0.00053462163
-0.032208692
-0.001287502
-0.034416699
-0.0020160207
-0.035748857
-0.0028623597
-0.03727813
-0.0037421826
-0.038931978
-0.0047154469
-0.040520174
-0.005757073
-0.042299349
-0.0068873549
-0.044059055
-0.008104696
-0.045953147
-0.0094167784
-0.047889035
-0.010828031
-0.049930217
-0.012343064
-0.052046864
-0.013966724
-0.054264836
-0.015702724
-0.056579459
-0.017554926
-0.059003908
-0.019526191
-0.06154286
-0.021619247
-0.064206515
-0.02383572
-0.067003361
-0.026177042
-0.069943904
-0.028644044
-0.073038455
-0.031236886
-0.076298858
-0.03395559
-0.079736662
-0.036799221
-0.083364908
-0.039767379
-0.08719654
-0.042858926
-0.091245655
-0.046073173
-0.095526023
-0.049409079
-0.10005306
-0.052866301
-0.10484146
-0.056444989
-0.10990718
-0.060145248
-0.11526665
-0.063967995
-0.12093646
-0.06791472
-0.1269346
-0.071987823
-0.13327842
-0.076190347
-0.13998736
-0.080525651
-0.14708088
-0.084998051
-0.15457981
-0.089613293
-0.16250522
-0.094376596
-0.17088054
-0.099295043
-0.17972922
-0.10437561
-0.189077
-0.10962626
-0.19895034
-0.11505559
-0.2093779
-0.12067294
-0.22038991
-0.12648774
-0.23201842
-0.13251044
-0.24429777
-0.13875181
-0.25726432
-0.14522329
-0.27095694
-0.1519371
-0.2854169
-0.15890524
-0.30068887
-0.16614115
-0.31681962
-0.17365786
-0.33386023
-0.18146982
-0.35186404
-0.18959157
-0.37088908
-0.19803804
-0.39099738
-0.20682477
-0.41225466
-0.2159682
-0.43473149
-0.22548504
-0.45850384
-0.23539258
-0.48365271
-0.2457089
-0.51026496
-0.25645218
-0.53843366
-0.26764184
-0.56825779
-0.27929728
-0.59984474
-0.29143888
-0.63330793
-0.30408752
-0.66877045
-0.31726433
-0.70636317
-0.33099216
-0.7462263
-0.34529295
-0.78851114
-0.36018948
-0.83337808
-0.37570546
-0.88099885
-0.39186061
-0.93155094
-0.40867557
-0.98522986
-0.42617268
-1.0422267
-0.44436688
-1.1027551
-0.46327781
-1.1670247
-0.48292228
-1.2352749
-0.50332721
-1.3077496
-0.52448495
-1.384667
-0.54631955
-1.4663385
-0.56890771
-1.5531676
-1.6434485
-0.00058745254
-0.03162124
-0.0014170228
-0.033587129
-0.0022282508
-0.034937629
-0.0031670752
-0.036339306
-0.0041536584
-0.037945395
-0.0052428227
-0.03943101
-0.0064161252
-0.041126047
-0.0076893428
-0.042785838
-0.0090649238
-0.044577566
-0.010548891
-0.046405069
-0.012147017
-0.048332091
-0.013863205
-0.050330676
-0.015702283
-0.052425757
-0.017667329
-0.054614413
-0.019761514
-0.056909723
-0.021986825
-0.059317549
-0.02434478
-0.06184856
-0.026836038
-0.064512104
-0.02946078
-0.067319162
-0.032218356
-0.070280878
-0.035108061
-0.073409153
-0.038128242
-0.076716481
-0.041277834
-0.080215316
-0.044555097
-0.083919278
-0.047959008
-0.087841745
-0.051488171
-0.09199686
-0.055142337
-0.096398894
-0.058921424
-0.10106237
-0.062825627
-0.10600297
-0.066856871
-0.11123541
-0.071016692
-0.11677664
-0.075308759
-0.12264253
-0.079736381
-0.1288508
-0.084304536
-0.1354192
-0.089018592
-0.14236683
-0.093885388
-0.14971302
-0.098911763
-0.15747884
-0.10410594