/*--------------------------------*- C++ -*----------------------------------*\
  =========                 |
  \\      /  F ield         | OpenFOAM: The Open Source CFD Toolbox
   \\    /   O peration     | Website:  https://openfoam.org
    \\  /    A nd           | Version:  6
     \\/     M anipulation  |
\*---------------------------------------------------------------------------*/
FoamFile
{
    version     2.0;
    format      ascii;
    class       volScalarField;
    location    "650";
    object      rho;
}
// * * * * * * * * * * * * * * * * * * * * * * * * * * * * * * * * * * * * * //

dimensions      [1 -3 0 0 0 0 0];

internalField   nonuniform List<scalar> 
16000
(
1.1563885
1.1616921
1.1600858
1.1613947
1.1609639
1.1616833
1.161654
1.1621593
1.1623137
1.1627286
1.1629814
1.1633607
1.1636708
1.1640419
1.1643876
1.1647634
1.1651331
1.1655186
1.1659055
1.1663016
1.1667009
1.1671059
1.1675137
1.1679246
1.1683367
1.1687495
1.1691615
1.1695716
1.1699786
1.1703812
1.170778
1.1711676
1.1715489
1.1719205
1.1722809
1.1726291
1.1729639
1.1732841
1.1735888
1.173877
1.1741479
1.1744007
1.174635
1.1748502
1.175046
1.1752222
1.1753786
1.1755153
1.1756324
1.17573
1.1758085
1.1758681
1.1759094
1.1759327
1.1759385
1.1759274
1.1759
1.1758568
1.1757982
1.1757251
1.1756376
1.1755368
1.1754224
1.1752963
1.1751556
1.1750064
1.1748368
1.1746684
1.1744596
1.1742854
1.1740057
1.1738711
1.1734424
1.1734915
1.1726385
1.1732262
1.1712892
1.1733639
1.169154
1.1737772
1.1568659
1.162181
1.1605041
1.161879
1.1614301
1.1621989
1.1621694
1.1627111
1.1628767
1.1633205
1.1635914
1.1639959
1.1643272
1.1647218
1.1650897
1.165488
1.1658798
1.1662869
1.1666947
1.167111
1.1675296
1.1679527
1.1683775
1.1688038
1.1692298
1.1696547
1.1700768
1.170495
1.1709078
1.1713137
1.1717114
1.1720994
1.1724763
1.1728408
1.1731915
1.1735273
1.173847
1.1741496
1.1744342
1.1747001
1.1749465
1.1751731
1.1753794
1.1755652
1.1757304
1.1758752
1.1759996
1.1761039
1.1761885
1.1762539
1.1763006
1.176329
1.1763399
1.1763339
1.1763115
1.1762736
1.1762207
1.1761534
1.1760725
1.1759783
1.1758716
1.1757528
1.1756223
1.1754808
1.1753276
1.1751646
1.1749876
1.174804
1.1745973
1.1743976
1.1741438
1.1739509
1.173592
1.1735093
1.1728515
1.1731619
1.1715944
1.173204
1.169435
1.1737045
1.1575077
1.1628273
1.1611084
1.1625468
1.1620897
1.1629014
1.1628806
1.1634545
1.1636377
1.1641084
1.1644013
1.1648301
1.1651849
1.1656027
1.165994
1.1664147
1.1668287
1.167257
1.1676854
1.1681209
1.1685578
1.1689976
1.1694375
1.169877
1.1703144
1.1707483
1.1711772
1.1715996
1.172014
1.1724187
1.1728124
1.1731934
1.1735603
1.1739118
1.1742466
1.1745636
1.1748617
1.1751401
1.175398
1.1756348
1.1758503
1.176044
1.176216
1.1763663
1.1764951
1.1766027
1.1766897
1.1767566
1.1768039
1.1768325
1.1768431
1.1768364
1.1768133
1.1767745
1.1767209
1.1766531
1.176572
1.1764783
1.1763725
1.1762552
1.1761271
1.1759885
1.1758399
1.1756816
1.1755136
1.1753364
1.1751482
1.1749513
1.1747388
1.1745224
1.1742748
1.1740488
1.1737292
1.173555
1.1730239
1.173145
1.1718416
1.1730733
1.1696851
1.1735896
1.1583387
1.1636481
1.1619082
1.163412
1.1629488
1.1638067
1.1637968
1.1644058
1.1646094
1.1651095
1.1654272
1.1658827
1.1662636
1.1667068
1.1671237
1.1675685
1.1680065
1.1684572
1.1689071
1.1693624
1.1698175
1.1702735
1.1707276
1.1711789
1.1716254
1.1720658
1.1724982
1.172921
1.1733325
1.173731
1.174115
1.1744828
1.174833
1.1751645
1.1754758
1.1757661
1.1760345
1.1762803
1.1765029
1.1767022
1.176878
1.1770304
1.1771597
1.1772662
1.1773505
1.1774133
1.1774554
1.1774776
1.177481
1.1774664
1.1774348
1.1773874
1.1773249
1.1772485
1.177159
1.1770573
1.1769442
1.1768204
1.1766867
1.1765436
1.1763915
1.176231
1.1760623
1.1758859
1.1757016
1.1755096
1.1753089
1.1750998
1.1748792
1.1746507
1.1744028
1.174157
1.1738583
1.1736308
1.173175
1.1731614
1.1720687
1.1729991
1.1699452
1.1736049
1.1593527
1.1646327
1.1629001
1.1644721
1.1640086
1.1649149
1.1649214
1.1655677
1.1657966
1.166328
1.1666746
1.1671588
1.1675688
1.1680391
1.1684836
1.1689539
1.1694168
1.1698904
1.1703619
1.1708365
1.1713089
1.1717795
1.1722455
1.1727058
1.1731582
1.1736009
1.1740321
1.17445
1.1748526
1.1752383
1.1756055
1.1759526
1.1762782
1.1765812
1.1768605
1.1771153
1.177345
1.1775492
1.1777277
1.1778807
1.1780083
1.178111
1.1781895
1.1782446
1.1782772
1.1782883
1.1782792
1.1782509
1.1782047
1.1781419
1.1780636
1.1779712
1.1778657
1.1777482
1.1776197
1.1774812
1.1773336
1.1771776
1.1770139
1.176843
1.1766654
1.1764815
1.1762916
1.1760959
1.1758944
1.1756869
1.1754726
1.1752513
1.175021
1.1747823
1.1745298
1.174271
1.173981
1.1737183
1.1733163
1.1731946
1.1722757
1.1729657
1.170193
1.1736341
1.1605732
1.1658196
1.1641101
1.1657518
1.1652923
1.1662487
1.1662761
1.166961
1.1672192
1.1677836
1.1681623
1.1686769
1.1691184
1.1696174
1.170091
1.1705878
1.1710764
1.1715729
1.1720657
1.1725586
1.1730466
1.1735296
1.1740047
1.1744702
1.1749239
1.1753638
1.1757878
1.176194
1.1765805
1.1769455
1.1772873
1.1776046
1.1778962
1.1781609
1.1783981
1.1786073
1.1787882
1.1789407
1.1790652
1.1791622
1.1792323
1.1792764
1.1792958
1.1792915
1.1792649
1.1792175
1.1791507
1.179066
1.178965
1.1788491
1.1787198
1.1785784
1.1784263
1.1782647
1.1780945
1.1779168
1.1777325
1.1775424
1.1773472
1.1771472
1.1769429
1.1767346
1.1765226
1.176307
1.1760876
1.1758643
1.1756363
1.1754029
1.1751626
1.1749148
1.1746565
1.174389
1.1741022
1.1738178
1.1734521
1.173246
1.1724748
1.1729628
1.1704491
1.1736967
1.1620104
1.1672582
1.165549
1.1672622
1.1668113
1.1678188
1.167872
1.1685967
1.1688887
1.1694877
1.1699021
1.1704488
1.1709244
1.1714536
1.1719578
1.1724817
1.1729963
1.1735154
1.1740283
1.1745377
1.1750387
1.1755306
1.1760103
1.1764759
1.1769248
1.1773549
1.177764
1.17815
1.178511
1.1788453
1.1791514
1.1794281
1.1796744
1.1798896
1.1800733
1.1802255
1.1803464
1.1804365
1.1804965
1.1805275
1.1805306
1.1805074
1.1804593
1.180388
1.1802954
1.1801831
1.1800531
1.1799071
1.1797469
1.1795742
1.1793905
1.1791974
1.1789962
1.1787883
1.1785747
1.1783563
1.1781342
1.177909
1.1776813
1.1774515
1.17722
1.176987
1.1767526
1.1765168
1.1762795
1.1760403
1.1757986
1.1755533
1.1753032
1.175047
1.1747826
1.174509
1.1742222
1.1739253
1.1735864
1.1733189
1.1726707
1.1729773
1.1707063
1.1737913
1.1636618
1.1689298
1.1672177
1.1690058
1.16857
1.1696315
1.169717
1.1704843
1.1708158
1.1714519
1.1719064
1.1724879
1.1730005
1.1735617
1.174098
1.1746497
1.1751901
1.1757309
1.1762619
1.1767849
1.177295
1.1777908
1.1782692
1.1787277
1.1791637
1.1795749
1.1799591
1.1803141
1.1806381
1.1809297
1.1811876
1.1814108
1.1815989
1.1817516
1.1818691
1.1819519
1.1820008
1.1820168
1.1820014
1.1819562
1.181883
1.1817837
1.1816603
1.1815151
1.1813501
1.1811676
1.1809696
1.1807582
1.1805353
1.1803028
1.1800624
1.1798156
1.1795639
1.1793085
1.1790505
1.1787909
1.1785304
1.1782698
1.1780096
1.17775
1.1774914
1.1772337
1.1769772
1.1767216
1.1764667
1.1762121
1.175957
1.1757005
1.1754411
1.1751774
1.1749074
1.1746296
1.1743417
1.1740391
1.1737185
1.1734095
1.1728665
1.1730111
1.1709834
1.1739165
1.165531
1.17084
1.1691249
1.1709932
1.1705803
1.1716995
1.1718253
1.1726383
1.1730159
1.1736926
1.1741919
1.1748108
1.1753634
1.1759582
1.1765276
1.1771069
1.1776721
1.1782322
1.1787779
1.1793098
1.1798231
1.1803157
1.1807841
1.1812259
1.1816383
1.1820188
1.1823653
1.1826757
1.1829487
1.183183
1.1833778
1.1835327
1.1836478
1.1837236
1.1837609
1.1837608
1.183725
1.1836552
1.1835536
1.1834223
1.1832637
1.1830804
1.1828748
1.1826496
1.1824072
1.1821502
1.1818807
1.1816011
1.1813134
1.1810195
1.1807211
1.1804199
1.1801172
1.1798143
1.179512
1.1792114
1.1789131
1.1786177
1.1783255
1.1780369
1.1777518
1.1774703
1.1771924
1.1769177
1.176646
1.1763768
1.1761092
1.1758422
1.1755744
1.1753042
1.1750296
1.1747491
1.1744602
1.174157
1.1738482
1.1735133
1.1730613
1.1730628
1.1712797
1.1740509
1.1676382
1.1729986
1.171289
1.1732432
1.1728617
1.1740426
1.174217
1.1750793
1.1755096
1.1762301
1.1767789
1.1774378
1.1780325
1.1786619
1.1792643
1.1798699
1.180457
1.1810323
1.1815871
1.1821208
1.1826284
1.1831075
1.1835545
1.1839667
1.1843412
1.1846758
1.1849686
1.1852179
1.1854227
1.1855824
1.1856969
1.1857666
1.1857924
1.1857756
1.1857178
1.1856211
1.1854879
1.1853208
1.1851225
1.1848959
1.1846441
1.1843701
1.1840767
1.1837669
1.1834434
1.183109
1.1827661
1.1824169
1.1820636
1.181708
1.1813519
1.1809968
1.1806439
1.1802943
1.179949
1.1796087
1.1792738
1.1789449
1.1786222
1.1783058
1.1779957
1.1776917
1.1773937
1.1771012
1.176814
1.1765313
1.1762524
1.1759761
1.1757011
1.1754256
1.1751477
1.1748659
1.1745769
1.174277
1.173976
1.1736292
1.1732538
1.1731328
1.1715962
1.1741923
1.1700146
1.1754263
1.1737285
1.1757749
1.1754343
1.1766809
1.1769133
1.1778287
1.1783191
1.1790868
1.1796894
1.1803905
1.181029
1.1816928
1.1823264
1.182955
1.1835589
1.1841425
1.1846975
1.1852223
1.1857119
1.1861633
1.1865731
1.1869385
1.1872569
1.1875265
1.1877457
1.1879137
1.1880301
1.1880954
1.1881104
1.1880764
1.1879953
1.1878695
1.1877016
1.1874948
1.1872521
1.186977
1.186673
1.1863436
1.1859924
1.1856226
1.1852376
1.1848405
1.1844342
1.1840215
1.1836048
1.1831864
1.1827684
1.1823524
1.1819401
1.1815329
1.1811318
1.1807377
1.1803514
1.1799735
1.1796043
1.179244
1.1788929
1.1785508
1.1782176
1.177893
1.1775766
1.1772681
1.1769669
1.1766723
1.1763836
1.1760995
1.1758187
1.1755394
1.1752597
1.174978
1.1746905
1.1743966
1.1741009
1.1737541
1.1734405
1.1732177
1.1719168
1.1743215
1.1726781
1.1781356
1.1764596
1.1786069
1.1783196
1.1796377
1.1799393
1.1809125
1.1814706
1.1822894
1.1829496
1.1836944
1.1843764
1.1850725
1.1857331
1.1863782
1.1869901
1.1875709
1.1881128
1.1886131
1.1890671
1.1894716
1.1898233
1.1901197
1.190359
1.1905398
1.1906617
1.1907249
1.1907301
1.1906789
1.1905734
1.1904162
1.1902104
1.1899596
1.1896675
1.189338
1.1889754
1.1885837
1.1881671
1.1877295
1.1872749
1.1868068
1.1863287
1.1858438
1.1853551
1.1848652
1.1843765
1.1838911
1.1834108
1.1829372
1.1824718
1.1820154
1.1815692
1.1811338
1.1807097
1.1802972
1.1798966
1.1795079
1.1791311
1.1787659
1.1784121
1.1780692
1.1777367
1.1774142
1.1771011
1.1767965
1.1764997
1.1762095
1.1759246
1.1756431
1.1753633
1.1750833
1.1747994
1.1745135
1.1742223
1.1738851
1.173619
1.1733131
1.1722388
1.1744484
1.1756406
1.181159
1.179515
1.1817722
1.1815517
1.1829462
1.1833288
1.184364
1.1849969
1.1858694
1.1865893
1.187377
1.1880994
1.1888222
1.1895013
1.1901518
1.1907575
1.1913188
1.1918281
1.1922822
1.1926766
1.1930084
1.193275
1.1934746
1.1936065
1.1936706
1.1936678
1.1935996
1.1934685
1.1932774
1.1930301
1.1927306
1.1923834
1.1919931
1.1915645
1.1911027
1.1906124
1.1900983
1.189565
1.1890168
1.1884578
1.1878917
1.1873218
1.1867513
1.1861829
1.1856191
1.1850621
1.1845136
1.1839753
1.1834484
1.182934
1.1824329
1.1819458
1.1814731
1.1810151
1.1805719
1.1801436
1.1797298
1.1793306
1.1789455
1.1785739
1.1782155
1.1778696
1.1775356
1.1772127
1.1769003
1.1765975
1.1763031
1.1760159
1.175734
1.175456
1.1751794
1.1749013
1.1746249
1.1743388
1.1740195
1.17379
1.1734183
1.172556
1.1745715
1.1789323
1.1845261
1.1829267
1.1853038
1.1851664
1.1866424
1.1871185
1.1882196
1.1889331
1.1898607
1.1906395
1.1914661
1.1922215
1.1929602
1.1936432
1.194281
1.1948592
1.1953763
1.1958254
1.1962034
1.1965066
1.1967327
1.1968805
1.1969496
1.196941
1.1968565
1.1966986
1.196471
1.1961779
1.1958242
1.1954152
1.1949563
1.1944535
1.1939124
1.1933389
1.1927384
1.1921165
1.191478
1.1908279
1.1901703
1.1895093
1.1888485
1.1881909
1.1875395
1.1868967
1.1862645
1.1856448
1.185039
1.1844483
1.1838737
1.1833158
1.1827753
1.1822524
1.1817474
1.1812602
1.1807907
1.1803387
1.179904
1.179486
1.1790843
1.1786984
1.1783275
1.177971
1.1776281
1.1772982
1.1769803
1.1766736
1.1763772
1.1760896
1.1758094
1.1755349
1.1752634
1.1749935
1.1747276
1.1744486
1.174154
1.1739514
1.1735329
1.1728658
1.1746863
1.1825859
1.188273
1.1867343
1.1892415
1.1892061
1.1907682
1.1913519
1.1925229
1.1933198
1.1943003
1.1951326
1.195988
1.1967618
1.1974974
1.1981607
1.1987583
1.1992773
1.1997155
1.2000671
1.2003297
1.2005011
1.2005809
1.2005697
1.2004696
1.2002838
1.2000165
1.1996726
1.1992581
1.1987793
1.1982428
1.1976556
1.1970247
1.1963567
1.1956585
1.1949363
1.194196
1.1934433
1.1926831
1.19192
1.1911582
1.1904012
1.1896523
1.1889142
1.1881892
1.1874793
1.1867862
1.1861111
1.1854551
1.184819
1.1842034
1.1836086
1.1830347
1.1824819
1.1819499
1.1814387
1.1809477
1.1804767
1.1800252
1.1795925
1.1791781
1.1787812
1.1784011
1.1780371
1.1776882
1.1773538
1.1770329
1.1767248
1.1764284
1.1761425
1.1758658
1.1755967
1.1753324
1.1750728
1.174818
1.1745491
1.1742832
1.1740967
1.1736528
1.1731662
1.1747837
1.1866461
1.1924451
1.1909865
1.1936316
1.1937195
1.1953709
1.196075
1.1973204
1.1981995
1.1992234
1.2000956
1.2009605
1.2017274
1.2024294
1.2030372
1.2035543
1.20397
1.2042824
1.2044877
1.2045855
1.2045762
1.2044622
1.2042472
1.2039363
1.2035357
1.2030523
1.202494
1.2018689
1.2011854
1.2004517
1.1996762
1.1988667
1.1980308
1.1971754
1.196307
1.1954315
1.1945541
1.1936795
1.1928119
1.1919548
1.1911113
1.1902839
1.1894748
1.1886857
1.1879181
1.187173
1.1864513
1.1857535
1.1850799
1.1844307
1.1838059
1.1832053
1.1826288
1.1820758
1.1815459
1.1810387
1.1805534
1.1800895
1.1796463
1.1792229
1.1788187
1.1784328
1.1780643
1.1777124
1.1773762
1.1770549
1.1767476
1.1764535
1.1761713
1.1759001
1.1756381
1.175383
1.1751355
1.1748926
1.1746374
1.1744028
1.1742247
1.1737762
1.1734533
1.1748602
1.1911609
1.1970889
1.1957404
1.1985344
1.1987809
1.2005284
1.2013468
1.2026499
1.2036052
1.2046564
1.205543
1.2063855
1.2071053
1.2077275
1.2082277
1.2086081
1.2088612
1.2089873
1.2089861
1.2088606
1.2086153
1.2082564
1.2077916
1.2072295
1.2065799
1.2058527
1.2050581
1.2042064
1.2033074
1.2023708
1.2014053
1.2004193
1.1994202
1.198415
1.1974096
1.1964093
1.1954188
1.1944419
1.1934822
1.1925422
1.1916244
1.1907307
1.1898622
1.1890202
1.1882055
1.1874186
1.1866597
1.185929
1.1852263
1.1845515
1.1839041
1.1832838
1.1826899
1.1821218
1.1815789
1.1810605
1.1805658
1.180094
1.1796443
1.1792159
1.1788078
1.1784194
1.1780495
1.1776974
1.1773622
1.177043
1.1767389
1.1764491
1.1761727
1.1759087
1.1756554
1.1754113
1.1751772
1.174947
1.1747094
1.1745062
1.1743293
1.1738951
1.1737204
1.1749153
1.1962072
1.20227
1.2010839
1.2040261
1.2044557
1.2062788
1.2072206
1.2085746
1.2095745
1.2106187
1.2114744
1.2122403
1.2128508
1.2133249
1.2136445
1.2138132
1.2138287
1.2136956
1.2134188
1.2130066
1.2124685
1.2118156
1.2110599
1.2102139
1.2092904
1.2083019
1.2072605
1.2061776
1.205064
1.2039293
1.2027824
1.2016311
1.2004822
1.1993418
1.1982149
1.1971059
1.1960183
1.1949552
1.1939188
1.1929111
1.1919334
1.1909869
1.1900719
1.1891892
1.1883388
1.1875207
1.1867347
1.1859803
1.1852572
1.1845646
1.1839021
1.1832687
1.1826639
1.1820866
1.1815361
1.1810115
1.180512
1.1800365
1.1795844
1.1791546
1.1787462
1.1783583
1.1779901
1.1776405
1.1773088
1.176994
1.1766954
1.176412
1.1761432
1.1758879
1.1756448
1.1754132
1.1751933
1.1749768
1.1747604
1.1745854
1.1744041
1.1740031
1.1739554
1.1749435
1.2019965
1.2081691
1.2071941
1.210234
1.2108124
1.2126857
1.2137369
1.2151141
1.2161181
1.2170931
1.2178445
1.2184503
1.2188609
1.2190929
1.2191373
1.2190024
1.2186935
1.2182217
1.2175991
1.2168401
1.21596
1.2149747
1.2139001
1.212752
1.2115452
1.2102935
1.2090097
1.2077054
1.2063907
1.2050747
1.2037652
1.2024687
1.2011909
1.1999363
1.1987087
1.1975112
1.1963461
1.1952152
1.1941198
1.1930608
1.1920388
1.1910539
1.190106
1.1891949
1.1883204
1.1874817
1.1866783
1.1859093
1.185174
1.1844715
1.1838008
1.183161
1.1825512
1.1819702
1.1814173
1.1808913
1.1803912
1.1799162
1.1794653
1.1790376
1.178632
1.1782477
1.1778837
1.1775392
1.1772134
1.1769052
1.176614
1.1763389
1.1760792
1.1758341
1.1756024
1.1753842
1.1751788
1.1749775
1.174784
1.1746321
1.1744476
1.1740976
1.1741469
1.1749417
1.2085342
1.2147414
1.2139595
1.217047
1.217941
1.2199398
1.2209972
1.2222978
1.2232058
1.224001
1.2245316
1.2248576
1.2249478
1.2248211
1.2244804
1.2239421
1.2232212
1.2223371
1.2213095
1.2201591
1.2189062
1.2175705
1.2161703
1.2147226
1.2132428
1.2117444
1.2102393
1.2087377
1.2072483
1.2057783
1.2043337
1.2029193
1.201539
1.2001956
1.1988915
1.1976282
1.1964069
1.195228
1.1940919
1.1929987
1.1919479
1.1909389
1.1899711
1.1890439
1.1881561
1.187307
1.1864955
1.1857204
1.1849808
1.1842754
1.1836032
1.182963
1.1823536
1.1817741
1.1812233
1.1807002
1.1802037
1.1797327
1.1792864
1.1788638
1.1784639
1.1780858
1.1777285
1.1773913
1.1770733
1.1767736
1.1764915
1.1762263
1.1759772
1.1757434
1.1755242
1.1753201
1.1751293
1.1749443
1.1747738
1.1746429
1.1744676
1.1741684
1.1742815
1.1749037
1.2157975
1.2220211
1.2216509
1.2249774
1.2258694
1.2277711
1.2288426
1.2299517
1.2306452
1.231125
1.2312892
1.2311914
1.2308226
1.2302114
1.2293757
1.228343
1.227139
1.2257913
1.2243261
1.2227683
1.221141
1.219465
1.2177587
1.2160381
1.2143167
1.2126062
1.2109159
1.2092537
1.2076257
1.2060368
1.2044906
1.20299
1.2015367
1.2001321
1.1987769
1.1974712
1.196215
1.1950078
1.1938489
1.1927376
1.1916728
1.1906533
1.1896779
1.1887455
1.1878548
1.1870045
1.1861933
1.1854198
1.1846828
1.183981
1.1833131
1.1826778
1.182074
1.1815004
1.1809559
1.1804395
1.1799499
1.1794863
1.1790475
1.1786327
1.1782409
1.1778712
1.1775227
1.1771946
1.1768861
1.1765965
1.1763249
1.1760708
1.1758334
1.1756119
1.1754059
1.1752161
1.17504
1.1748716
1.1747242
1.1746145
1.1744519
1.1741917
1.1743556
1.1748399
1.2241918
1.2305009
1.2303943
1.2336012
1.2346434
1.2363414
1.2371996
1.2379391
1.2382028
1.2381671
1.2377728
1.2370815
1.2361088
1.2348969
1.2334791
1.2318931
1.2301728
1.2283506
1.2264554
1.2245127
1.2225445
1.2205695
1.2186031
1.2166582
1.2147447
1.2128707
1.2110424
1.2092642
1.2075395
1.2058706
1.2042588
1.2027048
1.2012086
1.19977
1.1983883
1.1970626
1.1957917
1.1945743
1.1934091
1.1922947
1.1912293
1.1902112
1.1892392
1.1883116
1.1874269
1.1865835
1.18578
1.1850148
1.1842866
1.1835939
1.1829353
1.1823096
1.1817155
1.1811517
1.1806171
1.1801106
1.179631
1.1791773
1.1787486
1.1783439
1.1779622
1.1776027
1.1772647
1.1769472
1.1766495
1.176371
1.1761109
1.1758687
1.1756436
1.175435
1.1752427
1.1750671
1.174905
1.1747531
1.1746266
1.1745324
1.1743835
1.174176
1.1743611
1.1747283
1.2340582
1.2400452
1.2402504
1.24321
1.2440749
1.245312
1.2456843
1.2457863
1.2453718
1.2446019
1.2434658
1.2420385
1.2403596
1.2384839
1.2364552
1.2343165
1.232104
1.2298491
1.2275781
1.2253125
1.2230696
1.2208629
1.2187029
1.2165974
1.2145519
1.2125705
1.2106556
1.2088085
1.2070299
1.2053196
1.2036768
1.2021004
1.2005893
1.1991416
1.1977558
1.19643
1.1951622
1.1939506
1.1927934
1.1916885
1.1906339
1.1896278
1.1886684
1.187754
1.1868829
1.1860533
1.1852637
1.1845125
1.1837981
1.1831192
1.1824742
1.181862
1.1812811
1.1807304
1.1802086
1.1797147
1.1792475
1.1788061
1.1783894
1.1779966
1.1776267
1.1772789
1.1769525
1.1766467
1.1763608
1.1760941
1.1758461
1.1756162
1.1754038
1.1752082
1.1750296
1.1748678
1.1747195
1.1745841
1.1744758
1.1743923
1.1742597
1.1741072
1.1742929
1.1745517
1.2453023
1.2505377
1.2507611
1.2531591
1.2535699
1.2540248
1.2536005
1.2527889
1.2514614
1.2497803
1.2477813
1.245552
1.2431486
1.2406299
1.2380411
1.2354216
1.2328021
1.2302069
1.2276545
1.2251589
1.22273
1.2203748
1.2180977
1.2159014
1.2137872
1.2117549
1.2098041
1.2079332
1.2061406
1.2044243
1.202782
1.2012113
1.1997098
1.198275
1.1969045
1.1955959
1.1943467
1.1931547
1.1920177
1.1909334
1.1898994
1.1889141
1.1879753
1.1870812
1.1862301
1.1854202
1.1846498
1.1839173
1.1832212
1.1825601
1.1819324
1.1813369
1.1807723
1.1802374
1.1797309
1.1792519
1.1787991
1.1783718
1.1779688
1.1775893
1.1772325
1.1768976
1.1765837
1.1762904
1.1760168
1.1757624
1.1755266
1.1753091
1.1751091
1.1749263
1.1747608
1.174612
1.1744771
1.1743574
1.1742646
1.1741896
1.1740756
1.1739721
1.1741422
1.1743123
1.2566915
1.2613372
1.2614182
1.2628275
1.2623681
1.2616274
1.2600577
1.2580773
1.2556734
1.2530076
1.2501449
1.2471707
1.2441396
1.2411004
1.2380875
1.2351274
1.2322385
1.2294338
1.2267215
1.2241065
1.2215912
1.2191762
1.2168608
1.214643
1.2125207
1.210491
1.2085508
1.206697
1.2049262
1.2032352
1.2016207
1.2000797
1.198609
1.1972057
1.1958669
1.1945898
1.1933719
1.1922109
1.1911041
1.1900491
1.1890438
1.1880863
1.1871744
1.1863064
1.1854805
1.1846948
1.1839478
1.1832378
1.1825633
1.181923
1.1813153
1.1807391
1.180193
1.1796759
1.1791866
1.178724
1.1782872
1.1778752
1.177487
1.1771219
1.176779
1.1764575
1.1761567
1.1758761
1.1756149
1.1753727
1.175149
1.1749433
1.1747551
1.1745842
1.1744307
1.1742936
1.1741708
1.1740652
1.1739848
1.1739166
1.1738219
1.1737573
1.1739019
1.1740033
1.2688037
1.272324
1.2716806
1.2712472
1.2693477
1.2670236
1.2641015
1.2609002
1.2574774
1.2539629
1.2504178
1.2469018
1.2434506
1.2400914
1.2368403
1.2337075
1.230698
1.2278134
1.225053
1.2224145
1.2198946
1.2174896
1.2151949
1.2130061
1.2109185
1.2089277
1.2070291
1.2052186
1.2034921
1.2018457
1.2002756
1.1987783
1.1973506
1.1959893
1.1946913
1.1934539
1.1922744
1.1911504
1.1900792
1.1890585
1.1880863
1.1871604
1.1862791
1.1854404
1.1846425
1.1838837
1.1831624
1.1824771
1.1818263
1.1812086
1.1806227
1.1800673
1.1795411
1.1790431
1.1785722
1.1781272
1.1777073
1.1773115
1.1769389
1.1765887
1.1762602
1.1759526
1.1756652
1.1753974
1.1751487
1.1749185
1.1747064
1.174512
1.1743348
1.1741747
1.1740317
1.1739048
1.1737927
1.1736989
1.1736278
1.1735657
1.1734896
1.1734544
1.1735697
1.1736184
1.2804803
1.2802581
1.2781869
1.2754796
1.2719753
1.2681608
1.2641059
1.2599981
1.2559033
1.2518941
1.2480037
1.2442562
1.2406616
1.2372253
1.2339472
1.2308246
1.2278523
1.2250246
1.2223348
1.2197763
1.2173425
1.2150269
1.2128227
1.2107241
1.2087254
1.2068213
1.2050071
1.2032781
1.2016301
1.200059
1.1985613
1.1971334
1.1957719
1.1944739
1.1932363
1.1920565
1.1909319
1.18986
1.1888383
1.1878645
1.186937
1.1860536
1.1852126
1.1844123
1.1836508
1.1829266
1.1822383
1.1815843
1.1809633
1.1803739
1.1798149
1.1792851
1.1787834
1.1783086
1.1778597
1.1774358
1.1770359
1.1766591
1.1763046
1.1759717
1.1756595
1.1753674
1.1750948
1.1748411
1.1746057
1.1743881
1.174188
1.1740048
1.1738383
1.1736883
1.1735547
1.1734364
1.1733332
1.1732481
1.1731825
1.1731241
1.1730622
1.1730484
1.1731423
1.1731499
1.2848595
1.2818089
1.2782473
1.2740192
1.2695391
1.2650016
1.2605135
1.2561544
1.251956
1.2479402
1.2441119
1.2404721
1.2370158
1.233735
1.2306203
1.2276623
1.2248519
1.2221802
1.2196391
1.2172206
1.2149177
1.2127243
1.2106348
1.2086434
1.206745
1.2049346
1.2032078
1.2015604
1.1999885
1.1984883
1.1970567
1.1956903
1.1943862
1.1931416
1.1919537
1.1908203
1.189739
1.1887077
1.187724
1.1867865
1.185893
1.1850419
1.1842315
1.18346
1.182726
1.1820278
1.1813642
1.1807336
1.1801348
1.1795666
1.1790277
1.1785171
1.1780335
1.177576
1.1771436
1.1767353
1.1763503
1.1759876
1.1756466
1.1753264
1.1750263
1.1747456
1.1744838
1.1742402
1.1740143
1.1738057
1.1736139
1.1734384
1.1732791
1.1731356
1.1730078
1.1728949
1.1727969
1.1727157
1.1726513
1.1725962
1.172547
1.1725336
1.1725816
1.172587
1.2747935
1.2717248
1.2685731
1.2645254
1.2604474
1.2563212
1.2522967
1.2484001
1.2446581
1.2410782
1.2376609
1.2344028
1.2312982
1.2283411
1.2255244
1.2228411
1.2202843
1.2178473
1.2155236
1.2133074
1.2111925
1.2091735
1.207246
1.2054058
1.2036489
1.2019714
1.2003697
1.1988402
1.1973796
1.195985
1.1946533
1.193382
1.1921682
1.1910097
1.1899042
1.1888496
1.1878438
1.1868844
1.1859695
1.1850974
1.1842664
1.1834747
1.1827209
1.1820034
1.1813209
1.1806718
1.1800549
1.179469
1.1789128
1.1783852
1.1778851
1.1774114
1.1769631
1.1765392
1.1761387
1.1757609
1.1754048
1.1750696
1.1747546
1.1744591
1.1741823
1.1739236
1.1736824
1.1734581
1.1732503
1.1730584
1.172882
1.1727207
1.1725742
1.1724422
1.1723244
1.1722205
1.1721304
1.1720549
1.1719935
1.1719432
1.1719039
1.1718873
1.1719011
1.1719079
1.2364298
1.2453314
1.2462596
1.2464683
1.2451314
1.2432628
1.2409531
1.238458
1.2358538
1.2332247
1.2306074
1.228033
1.2255172
1.2230715
1.2207017
1.2184115
1.2162022
1.2140741
1.2120263
1.2100577
1.2081665
1.2063506
1.2046073
1.2029342
1.2013288
1.199789
1.1983125
1.196897
1.1955404
1.1942408
1.192996
1.1918041
1.1906633
1.1895718
1.1885281
1.1875303
1.1865763
1.1856644
1.1847932
1.1839612
1.1831672
1.1824096
1.1816873
1.1809988
1.1803431
1.1797189
1.179125
1.1785604
1.178024
1.1775147
1.1770316
1.1765736
1.1761399
1.1757295
1.1753416
1.1749753
1.1746299
1.1743045
1.1739984
1.173711
1.1734415
1.1731894
1.172954
1.1727347
1.1725311
1.1723425
1.1721687
1.1720091
1.1718634
1.1717313
1.1716124
1.1715065
1.1714134
1.1713332
1.1712654
1.1712095
1.1711658
1.1711362
1.171122
1.1711196
1.2468237
1.247028
1.2473476
1.2474267
1.2467652
1.2451655
1.2426229
1.2393739
1.235648
1.2315836
1.2275144
1.223351
1.2192764
1.2152652
1.2114155
1.2078514
1.2045474
1.2016022
1.1989721
1.1966215
1.1945692
1.1927402
1.1911503
1.189745
1.1885227
1.1874237
1.1864307
1.1855144
1.1846914
1.1839907
1.1833623
1.1827788
1.182236
1.1817263
1.1812445
1.1807864
1.1803497
1.1799327
1.1795346
1.1791534
1.1787892
1.1784416
1.1781095
1.1777933
1.1774926
1.177207
1.1769356
1.1766782
1.1764341
1.1762027
1.1759833
1.1757757
1.1755784
1.175392
1.1752136
1.1750455
1.174882
1.1747301
1.1745761
1.1744388
1.1742865
1.1741655
1.1740026
1.1739054
1.1737108
1.1736562
1.1733928
1.1734184
1.1730251
1.1732032
1.1725491
1.1730215
1.1719457
1.1729055
1.1711299
1.1728975
1.1699864
1.1730462
1.1683452
1.1734948
1.10192
1.106606
1.1134521
1.1212805
1.1297157
1.1380537
1.1449547
1.1506143
1.1555841
1.1598942
1.1635698
1.1667712
1.16955
1.1719603
1.1740638
1.1758564
1.1774218
1.1787027
1.1797859
1.1806233
1.1813129
1.1817977
1.1821681
1.1823621
1.182456
1.1824318
1.1823427
1.182185
1.181975
1.1817302
1.1814533
1.1811506
1.1808227
1.180482
1.1801366
1.1797915
1.1794506
1.1791169
1.1787929
1.1784787
1.1781754
1.1778837
1.1776037
1.177335
1.1770781
1.1768329
1.1765989
1.1763759
1.1761635
1.1759614
1.175769
1.1755862
1.1754117
1.1752462
1.1750869
1.1749363
1.1747887
1.1746511
1.1745105
1.1743846
1.174244
1.1741309
1.1739794
1.1738857
1.1737042
1.1736468
1.1734003
1.1734158
1.1730484
1.1732039
1.1725958
1.1730214
1.1720005
1.1729101
1.1711893
1.1729106
1.170022
1.1730897
1.1683509
1.17356
1.204464
1.2051596
1.2073626
1.2100906
1.2110246
1.2102969
1.2089724
1.2073834
1.2056477
1.2038749
1.202102
1.2003749
1.198697
1.1970947
1.1955667
1.1941174
1.1927623
1.1915091
1.1903976
1.1893673
1.1883912
1.1875059
1.1866438
1.1858888
1.1852053
1.1845826
1.1840542
1.1835471
1.1830966
1.1825341
1.1820132
1.1815301
1.1810753
1.1806477
1.1802433
1.1798593
1.1794933
1.1791439
1.1788099
1.1784888
1.1781821
1.1778889
1.1776079
1.17734
1.1770845
1.1768408
1.1766088
1.1763881
1.1761783
1.175979
1.1757896
1.1756099
1.1754386
1.1752761
1.1751198
1.1749721
1.1748273
1.1746921
1.1745538
1.1744295
1.1742907
1.1741783
1.1740283
1.1739335
1.1737542
1.1736925
1.1734502
1.1734582
1.1730926
1.1732364
1.1726438
1.1730412
1.172057
1.1729155
1.1712461
1.1729034
1.1700793
1.1730847
1.1683922
1.1735701
1.1662537
1.1662166
1.1686887
1.1738367
1.1772551
1.1782499
1.1787591
1.1791986
1.1796052
1.1800951
1.1805641
1.1810252
1.1814408
1.1818295
1.1820489
1.1824258
1.1824359
1.182793
1.182699
1.1829359
1.1827607
1.1828934
1.1826624
1.1826739
1.1824259
1.1822592
1.181937
1.1816879
1.1813976
1.1811073
1.1808053
1.1804992
1.1801903
1.1798805
1.1795722
1.1792673
1.1789673
1.1786739
1.1783875
1.1781093
1.1778406
1.1775815
1.1773322
1.1770928
1.1768633
1.1766437
1.176434
1.176234
1.1760434
1.1758619
1.175689
1.1755246
1.1753674
1.175218
1.1750737
1.1749371
1.1748022
1.1746763
1.1745461
1.1744295
1.1742969
1.1741907
1.1740451
1.1739557
1.1737787
1.1737219
1.1734802
1.1734924
1.1731263
1.173274
1.1726757
1.1730806
1.1720848
1.1729541
1.1712714
1.1729435
1.1701021
1.1731174
1.1684108
1.1735976
1.1738422
1.1754857
1.1793185
1.1839519
1.1856541
1.1860055
1.1858249
1.1857128
1.1855841
1.1854795
1.1853262
1.1851879
1.1850164
1.1848545
1.1846685
1.1844714
1.1842693
1.1840347
1.1838082
1.1835242
1.1832893
1.1829462
1.1826851
1.1823358
1.1820464
1.1817211
1.1814376
1.1811251
1.1808242
1.1805238
1.180227
1.1799343
1.1796463
1.1793634
1.1790859
1.1788141
1.1785484
1.178289
1.1780359
1.1777896
1.1775512
1.1773206
1.177098
1.1768834
1.1766772
1.1764793
1.1762898
1.1761086
1.1759355
1.1757703
1.1756125
1.1754621
1.1753178
1.1751803
1.175047
1.1749202
1.1747945
1.1746766
1.1745537
1.1744433
1.1743165
1.1742147
1.1740737
1.1739867
1.1738134
1.1737569
1.1735192
1.1735293
1.1731665
1.1733086
1.1727191
1.1731122
1.1721294
1.1729814
1.1713148
1.1729635
1.1701409
1.1731369
1.1684383
1.1736164
1.1675222
1.1690836
1.1731347
1.1779435
1.1802297
1.1806208
1.1805452
1.1806356
1.1806814
1.1807715
1.1807841
1.1808172
1.1808137
1.1808234
1.1808035
1.1807884
1.1807507
1.180715
1.1806584
1.1806054
1.1805251
1.1804587
1.1803583
1.1802636
1.1801405
1.1800118
1.1798603
1.1797029
1.179533
1.1793547
1.179168
1.1789749
1.1787768
1.1785748
1.1783703
1.1781646
1.1779587
1.177754
1.1775508
1.1773506
1.1771546
1.1769632
1.1767767
1.1765958
1.1764207
1.1762517
1.176089
1.1759326
1.1757824
1.1756385
1.1755003
1.175368
1.1752403
1.175118
1.1749985
1.1748843
1.1747701
1.1746622
1.1745486
1.1744459
1.1743265
1.1742303
1.174095
1.1740115
1.1738427
1.1737877
1.1735542
1.1735629
1.1732045
1.1733427
1.1727552
1.1731445
1.172165
1.1730104
1.1713502
1.1729899
1.1701729
1.1731581
1.1684629
1.1736345
1.1666977
1.1686129
1.1731235
1.1776857
1.1793755
1.1796994
1.1796284
1.1796549
1.1796207
1.1796512
1.1796258
1.17965
1.1796262
1.1796343
1.1796119
1.1795955
1.1795557
1.1795212
1.1794705
1.1794161
1.1793517
1.1792771
1.179196
1.1791044
1.1790068
1.1789006
1.1787888
1.1786691
1.1785432
1.1784109
1.1782728
1.1781301
1.1779831
1.1778325
1.1776792
1.1775237
1.177367
1.1772097
1.1770518
1.1768952
1.1767405
1.1765881
1.1764384
1.176292
1.1761493
1.1760106
1.1758761
1.175746
1.1756203
1.175499
1.1753817
1.1752686
1.1751587
1.1750524
1.1749478
1.1748469
1.1747447
1.1746474
1.1745435
1.1744489
1.1743372
1.1742466
1.1741174
1.174037
1.1738734
1.1738189
1.1735904
1.1735966
1.1732435
1.1733758
1.1727973
1.1731754
1.1722076
1.1730376
1.1713906
1.1730121
1.1702084
1.173177
1.1684886
1.1736503
1.1642578
1.1664472