/*--------------------------------*- C++ -*----------------------------------*\
  =========                 |
  \\      /  F ield         | OpenFOAM: The Open Source CFD Toolbox
   \\    /   O peration     | Website:  https://openfoam.org
    \\  /    A nd           | Version:  6
     \\/     M anipulation  |
\*---------------------------------------------------------------------------*/
FoamFile
{
    version     2.0;
    format      ascii;
    class       volScalarField;
    location    "650";
    object      T;
}
// * * * * * * * * * * * * * * * * * * * * * * * * * * * * * * * * * * * * * //

dimensions      [0 0 0 1 0 0 0];

internalField   nonuniform List<scalar> 
16000
(
297.68636
296.53002
296.94318
296.78241
296.92587
296.8973
296.96711
296.97898
297.02591
297.05256
297.09229
297.12531
297.16331
297.19949
297.23773
297.27581
297.31492
297.35433
297.39435
297.43473
297.47549
297.5165
297.55769
297.59896
297.64021
297.68131
297.72215
297.7626
297.80253
297.84182
297.88031
297.91788
297.95438
297.98969
298.02365
298.05615
298.08707
298.1163
298.14372
298.16925
298.1928
298.2143
298.23369
298.25092
298.26597
298.2788
298.28941
298.29781
298.304
298.30802
298.30989
298.30968
298.30742
298.3032
298.29708
298.28911
298.27939
298.26799
298.25502
298.24057
298.22474
298.20764
298.18934
298.17004
298.14971
298.12891
298.10708
298.08589
298.06285
298.04312
298.01783
298.00372
297.97185
297.97384
297.92233
297.96954
297.87328
298.01194
297.84048
298.06583
297.70937
296.56343
296.99399
296.83016
296.9789
296.9504
297.02329
297.0369
297.08612
297.11504
297.15686
297.19225
297.23236
297.27086
297.31125
297.35157
297.39279
297.43432
297.47636
297.5187
297.56131
297.60407
297.64688
297.68962
297.73217
297.7744
297.81618
297.85736
297.8978
297.93735
297.97587
298.0132
298.04922
298.08377
298.11673
298.14797
298.17737
298.20483
298.23026
298.25358
298.27473
298.29365
298.31031
298.32468
298.33676
298.34655
298.35407
298.35934
298.3624
298.36331
298.36211
298.35888
298.35369
298.34662
298.33776
298.32717
298.31494
298.30117
298.28595
298.26939
298.25157
298.2326
298.21256
298.19161
298.16979
298.14743
298.12443
298.10156
298.07793
298.05589
298.03161
298.01302
297.98597
297.97751
297.93833
297.96445
297.89234
297.99917
297.86147
298.04442
297.75355
296.62282
297.06329
296.8981
297.05105
297.02437
297.0997
297.11599
297.16735
297.19905
297.24307
297.28116
297.32357
297.36463
297.40735
297.45008
297.49356
297.53733
297.58148
297.62583
297.67031
297.71479
297.75914
297.80324
297.84693
297.89007
297.93252
297.9741
298.01466
298.05404
298.09209
298.12866
298.16359
298.19676
298.22802
298.25727
298.28439
298.30931
298.33193
298.35222
298.37013
298.38563
298.39871
298.40938
298.41767
298.4236
298.42723
298.4286
298.4278
298.42489
298.41995
298.41307
298.40433
298.39385
298.38171
298.36801
298.35283
298.33626
298.31841
298.29939
298.27929
298.25819
298.23619
298.2134
298.18992
298.16596
298.14159
298.11722
298.09265
298.06891
298.04453
298.02327
297.99838
297.98441
297.95194
297.96428
297.90895
297.99243
297.87882
298.04236
297.81762
296.70707
297.15201
296.9865
297.14334
297.11906
297.19685
297.21619
297.26986
297.3046
297.35102
297.39199
297.4369
297.48066
297.52585
297.57108
297.61692
297.66295
297.70922
297.75554
297.80181
297.84788
297.8936
297.93882
297.98337
298.02709
298.0698
298.11133
298.15151
298.19018
298.22716
298.2623
298.29546
298.32651
298.35532
298.38179
298.40584
298.4274
298.44641
298.46285
298.47671
298.488
298.49674
298.50298
298.50676
298.50816
298.50725
298.50413
298.49889
298.49162
298.48244
298.47144
298.45875
298.44446
298.42868
298.41154
298.3931
298.37347
298.35275
298.33104
298.30844
298.28503
298.2609
298.23615
298.21087
298.18522
298.15934
298.13349
298.10772
298.08256
298.05752
298.03438
298.0101
297.99236
297.96455
297.96638
297.92289
297.98901
297.89386
298.03992
297.90117
296.81788
297.26051
297.09613
297.25633
297.23545
297.31556
297.33859
297.39467
297.43288
297.48192
297.52607
297.5737
297.62038
297.66823
297.71611
297.7644
297.81277
297.86116
297.90942
297.95738
298.00488
298.05175
298.09781
298.14287
298.18675
298.22924
298.27018
298.30937
298.34664
298.38182
298.41477
298.44533
298.4734
298.49887
298.52165
298.5417
298.55897
298.57344
298.58513
298.59405
298.60026
298.60382
298.60481
298.60332
298.59946
298.59334
298.58508
298.5748
298.56264
298.54871
298.53314
298.51605
298.49758
298.47782
298.45691
298.43494
298.41199
298.38817
298.36358
298.33832
298.31245
298.28607
298.25924
298.23207
298.20469
298.17723
298.14991
298.12286
298.0964
298.07048
298.04595
298.02165
298.00148
297.97641
297.97092
297.93586
297.98787
297.90776
298.04268
298.00546
296.95292
297.38995
297.22825
297.39127
297.37478
297.45716
297.48446
297.54313
297.58516
297.63707
297.68467
297.73523
297.78501
297.83567
297.88629
297.93709
297.98778
298.03825
298.0883
298.13776
298.18644
298.23412
298.28061
298.32569
298.36916
298.41081
298.45044
298.48787
298.52291
298.5554
298.58521
298.61221
298.6363
298.65741
298.67549
298.69052
298.70249
298.71144
298.71741
298.72047
298.72073
298.71828
298.71324
298.70576
298.69597
298.68402
298.67007
298.65425
298.63673
298.61764
298.59714
298.57534
298.55239
298.52841
298.50352
298.47781
298.45138
298.42431
298.39672
298.36868
298.34027
298.31155
298.28259
298.25348
298.22433
298.19527
298.16647
298.13811
298.11042
298.08351
298.05782
298.03309
298.01116
297.98787
297.97752
297.94821
297.98852
297.92023
298.04757
298.13257
297.10363
297.54201
297.38461
297.54985
297.53868
297.62325
297.65534
297.7168
297.76299
297.81802
297.86928
297.923
297.97602
298.02962
298.08303
298.13635
298.18929
298.24169
298.29333
298.344
298.39346
298.44149
298.48785
298.53231
298.57464
298.61463
298.65206
298.68677
298.71856
298.7473
298.77287
298.79517
298.81414
298.82974
298.84197
298.85085
298.85644
298.85881
298.85806
298.85433
298.84774
298.83846
298.82665
298.81248
298.79615
298.77781
298.75766
298.73587
298.71261
298.68803
298.6623
298.63555
298.60792
298.57953
298.55051
298.52094
298.49093
298.46054
298.42988
298.39901
298.36801
298.33693
298.30584
298.27478
298.24387
298.21321
298.18297
298.15332
298.12446
298.09655
298.06987
298.04457
298.02138
297.99887
297.98475
297.96039
297.99068
297.93262
298.0539
298.28363
297.27705
297.7171
297.56574
297.73275
297.7279
297.81476
297.85223
297.91678
297.96751
298.02599
298.08118
298.1383
298.19472
298.25137
298.30761
298.36339
298.41845
298.47254
298.52544
298.57687
298.62657
298.67429
298.71976
298.76274
298.80298
298.84027
298.8744
298.90519
298.9325
298.95622
298.97624
298.99254
299.00508
299.01389
299.01902
299.02056
299.01862
299.01334
299.00487
298.99341
298.97913
298.96225
298.94298
298.92153
298.89811
298.87293
298.8462
298.8181
298.78883
298.75854
298.7274
298.69555
298.66314
298.63026
298.59705
298.5636
298.52998
298.49626
298.46254
298.42887
298.3953
298.36189
298.32868
298.29573
298.26309
298.23089
298.19925
298.16836
298.13839
298.10952
298.08198
298.05603
298.03197
298.00989
297.99312
297.97242
297.9939
297.94469
298.05997
298.45875
297.47434
297.91592
297.7725
297.94099
297.94359
298.03298
298.07647
298.14457
298.20026
298.26258
298.32199
298.38277
298.44272
298.50248
298.56148
298.61958
298.67647
298.73187
298.7855
298.83704
298.88622
298.93273
298.9763
299.01667
299.0536
299.08687
299.1163
299.14175
299.16311
299.1803
299.19329
299.2021
299.20678
299.20741
299.20412
299.19707
299.18644
299.17243
299.15527
299.1352
299.11246
299.08731
299.05999
299.03076
298.99985
298.96749
298.93391
298.8993
298.86385
298.82775
298.79114
298.75416
298.71695
298.67962
298.64226
298.60497
298.56781
298.53084
298.49412
298.45772
298.42167
298.38602
298.35078
298.316
298.28174
298.24807
298.21512
298.18307
298.15207
298.12232
298.09402
298.06743
298.04276
298.02078
298.00219
297.98437
297.99797
297.95667
298.06749
298.65801
297.69838
298.1401
298.00663
298.1764
298.18757
298.27986
298.33001
298.40213
298.4632
298.52976
298.59362
298.65825
298.72178
298.7846
298.84618
298.90626
298.96451
299.02059
299.07416
299.12489
299.17245
299.21653
299.25686
299.29316
299.32521
299.35284
299.37589
299.39427
299.40794
299.41689
299.42117
299.42087
299.41614
299.40713
299.39407
299.37718
299.35673
299.333
299.30626
299.27683
299.24498
299.21101
299.17521
299.13785
299.09919
299.05947
299.01891
298.97773
298.93611
298.89421
298.85219
298.81018
298.76828
298.72661
298.68524
298.64425
298.60369
298.56361
298.52406
298.48507
298.44668
298.40891
298.37178
298.3353
298.29953
298.26452
298.23038
298.19726
298.16535
298.1348
298.10585
298.07869
298.0536
298.03152
298.01179
297.99612
298.00273
297.9684
298.07349
298.87879
297.95074
298.3915
298.27006
298.44102
298.4619
298.55756
298.615
298.69172
298.75855
298.82972
298.89822
298.96678
299.03381
299.09947
299.1632
299.22468
299.28351
299.3393
299.39168
299.44027
299.48474
299.52477
299.56008
299.59045
299.61569
299.63567
299.65032
299.65963
299.66364
299.66244
299.65619
299.64507
299.62932
299.60922
299.58507
299.55718
299.5259
299.49156
299.45453
299.41513
299.37371
299.33058
299.28604
299.2404
299.19391
299.14682
299.09935
299.05169
299.00402
298.9565
298.90926
298.86241
298.81606
298.77027
298.72512
298.68065
298.63693
298.59395
298.55177
298.5104
298.46986
298.43016
298.3913
298.3533
298.31618
298.27998
298.24479
298.21076
298.17804
298.14683
298.11732
298.08968
298.06431
298.042
298.02169
298.00755
298.00795
297.98028
298.08011
299.12257
298.23336
298.67212
298.56493
298.7372
298.76897
298.86864
298.93401
299.01592
299.08887
299.16495
299.23815
299.31057
299.38079
299.44876
299.5139
299.57581
299.63402
299.68811
299.73766
299.78229
299.82167
299.85551
299.88356
299.90568
299.92174
299.93172
299.93564
299.93362
299.9258
299.91242
299.89374
299.87007
299.84177
299.8092
299.77278
299.73289
299.68995
299.64437
299.59653
299.54681
299.49558
299.44316
299.38988
299.33601
299.28182
299.22754
299.17338
299.11951
299.06609
299.01326
298.96112
298.90976
298.85927
298.80969
298.76107
298.71344
298.66684
298.62125
298.57671
298.53321
298.49076
298.44936
298.409
298.36968
298.3314
298.2942
298.25813
298.22334
298.18996
298.15821
298.12826
298.10026
298.07471
298.0521
298.03161
298.01852
298.0134
297.99108
298.08523
299.39543
298.54891
298.98467
298.8941
299.06796
299.11181
299.21627
299.29014
299.37782
299.45712
299.53824
299.61595
299.69185
299.76456
299.8339
299.89922
299.96004
300.01585
300.0662
300.11066
300.14889
300.18057
300.20549
300.22351
300.23457
300.23868
300.23596
300.22657
300.21078
300.18888
300.16126
300.12832
300.09049
300.04826
300.00208
299.95245
299.89984
299.84472
299.78752
299.72867
299.66857
299.60758
299.54602
299.48421
299.42241
299.36087
299.29979
299.23934
299.17969
299.12096
299.06326
299.00665
298.95122
298.897
298.84404
298.79234
298.74193
298.69281
298.64496
298.59837
298.55305
298.50898
298.46614
298.42452
298.38411
298.3449
298.3069
298.27016
298.23478
298.20092
298.16876
298.13849
298.11028
298.08463
298.06171
298.04131
298.02885
298.01923
298.00136
298.08947
299.69944
298.90079
299.33256
299.26107
299.43696
299.49401
299.60412
299.68699
299.78085
299.86652
299.95249
300.03415
300.11264
300.1866
300.25572
300.31928
300.37675
300.4276
300.47138
300.50773
300.53635
300.55704
300.56971
300.57438
300.57114
300.5602
300.54184
300.51644
300.48442
300.44626
300.4025
300.35369
300.30038
300.24316
300.18257
300.11918
300.0535
299.98603
299.91723
299.84752
299.77729
299.70689
299.63663
299.56678
299.49759
299.42924
299.36193
299.29579
299.23094
299.16746
299.10544
299.04492
298.98593
298.9285
298.87262
298.81831
298.76554
298.71431
298.66457
298.61631
298.5695
298.52412
298.48015
298.43755
298.39631
298.35641
298.31784
298.28063
298.24487
298.2107
298.17829
298.14783
298.11954
298.09386
298.0707
298.05057
298.03806
298.02485
298.01078
298.09265
300.0375
299.29281
299.71969
299.66982
299.84841
299.9197
300.0364
300.12852
300.22871
300.32037
300.41049
300.4949
300.57437
300.64751
300.71392
300.77282
300.82369
300.86604
300.8995
300.9238
300.93881
300.94451
300.94103
300.92858
300.90751
300.87825
300.84131
300.79728
300.74678
300.69048
300.62905
300.56317
300.49352
300.42073
300.34543
300.2682
300.18957
300.11003
300.03004
299.95
299.87025
299.79112
299.71287
299.63572
299.55987
299.48548
299.41268
299.34156
299.27221
299.20467
299.13899
299.07517
299.01322
298.95313
298.89488
298.83845
298.7838
298.7309
298.67969
298.63014
298.58221
298.53587
298.49107
298.44779
298.40599
298.36565
298.32676
298.28932
298.25339
298.21909
298.1866
298.15609
298.12785
298.1022
298.07891
298.05923
298.04642
298.03046
298.01995
298.09428
300.4129
299.72971
300.15084
300.1252
300.30735
300.39377
300.51798
300.61903
300.72518
300.82176
300.91448
300.99947
301.07722
301.1463
301.20627
301.25638
301.2962
301.32535
301.34366
301.35108
301.34772
301.33387
301.30992
301.2764
301.23392
301.18321
301.12502
301.06015
300.98941
300.91364
300.83362
300.75012
300.66388
300.57558
300.48584
300.39524
300.30428
300.21344
300.1231
300.03363
299.94531
299.85841
299.77312
299.68962
299.60805
299.52852
299.4511
299.37585
299.3028
299.23196
299.16333
299.09689
299.03262
298.97047
298.91042
298.8524
298.79636
298.74225
298.69001
298.63957
298.5909
298.54394
298.49865
298.45499
298.41292
298.37241
298.33343
298.296
298.26012
298.22591
298.1935
298.16309
298.13501
298.10944
298.08618
298.06695
298.05355
298.03604
298.02845
298.09389
300.82896
300.2173
300.63191
300.63306
300.81976
300.92178
301.0547
301.16278
301.27359
301.37289
301.46536
301.54736
301.61914
301.67935
301.72759
301.76328
301.78621
301.79626
301.7936
301.77852
301.75153
301.71327
301.66452
301.60615
301.5391
301.46434
301.38288
301.29571
301.20379
301.10804
301.00933
300.90845
300.80615
300.70307
300.59981
300.49689
300.39475
300.29379
300.19434
300.09667
300.001
299.90753
299.81636
299.72764
299.64142
299.55776
299.47669
299.39821
299.32231
299.24897
299.17815
299.10979
299.04386
298.98028
298.91899
298.85992
298.80299
298.74815
298.69531
298.6444
298.59536
298.54815
298.50269
298.45895
298.41689
298.37647
298.33767
298.30046
298.26487
298.23095
298.1988
298.16865
298.14081
298.1154
298.09234
298.07356
298.05917
298.0411
298.03595
298.09168
301.28736
300.76413
301.17094
301.20132
301.39273
301.51024
301.64789
301.7632
301.87594
301.97419
302.06165
302.13508
302.1946
302.23914
302.2685
302.2825
302.28131
302.26532
302.23515
302.19161
302.13568
302.06846
301.99112
301.90487
301.81096
301.7106
301.60495
301.49512
301.38213
301.26694
301.15039
301.03325
300.91618
300.79978
300.68453
300.57086
300.45914
300.34964
300.24261
300.13823
300.03665
299.93796
299.84221
299.74947
299.65975
299.57304
299.48932
299.40855
299.33068
299.25565
299.18339
299.11383
299.04688
298.98247
298.92052
298.86092
298.80361
298.74848
298.69547
298.64449
298.59547
298.54834
298.50304
298.45953
298.41776
298.37768
298.33928
298.30253
298.26743
298.23401
298.20234
298.1726
298.1451
298.11988
298.09719
298.0788
298.06331
298.04534
298.04195
298.08798
301.80191
301.38368
301.77762
301.84006
302.03263
302.16199
302.30569
302.42326
302.53229
302.62294
302.69778
302.75427
302.79266
302.81242
302.81388
302.79747
302.76402
302.71457
302.65037
302.57282
302.48343
302.38373
302.27526
302.15952
302.03794
301.91185
301.78249
301.65097
301.51827
301.38526
301.25272
301.12128
300.99149
300.8638
300.7386
300.61618
300.49678
300.38059
300.26772
300.15827
300.05231
299.94985
299.85087
299.75537
299.6633
299.57461
299.48924
299.4071
299.32811
299.25218
299.17922
299.10913
299.0418
298.97715
298.91507
298.85546
298.79822
298.74326
298.69049
298.63981
298.59116
298.54445
298.49963
298.45663
298.41541
298.37593
298.33816
298.30207
298.26766
298.23494
298.20393
298.1748
298.14775
298.1228
298.1005
298.08234
298.06592
298.04873
298.04659
298.08254
302.38104
302.07827
302.45368
302.54423
302.736
302.88767
303.02819
303.14045
303.2367
303.30929
303.36051
303.38862
303.39451
303.37851
303.34181
303.28573
303.21194
303.12227
303.01865
302.90305
302.77743
302.64367
302.50351
302.35859
302.21038
302.06018
301.90915
301.75827
301.60839
301.46022
301.31435
301.17126
301.03133
300.89485
300.76207
300.63313
300.50816
300.38721
300.27033
300.15751
300.04873
299.94393
299.84304
299.74599
299.6527
299.56307
299.47699
299.39435
299.31505
299.23897
299.16599
299.09601
299.02889
298.96454
298.90284
298.84368
298.78695
298.73256
298.68041
298.63039
298.58244
298.53647
298.49241
298.4502
298.40979
298.37113
298.3342
298.29897
298.26543
298.23357
298.20343
298.1751
298.14866
298.12412
298.1022
298.08411
298.06729
298.05126
298.04927
298.07545
303.03191
302.84906
303.1989
303.33561
303.54607
303.68002
303.80833
303.90245
303.97265
304.01296
304.02626
304.01209
303.97249
303.90904
303.8241
303.72006
303.5995
303.46498
303.31903
303.16399
303.00208
302.83526
302.66531
302.49375
302.32191
302.15091
301.98167
301.81496
301.65139
301.49145
301.3355
301.18384
301.03666
300.8941
300.75623
300.62308
300.49466
300.37092
300.2518
300.13724
300.02713
299.92135
299.81979
299.72234
299.62886
299.53924
299.45332
299.371
299.29212
299.21656
299.14419
299.07488
299.00851
298.94495
298.88408
298.8258
298.76999
298.71654
298.66535
298.61632
298.56938
298.52443
298.4814
298.44023
298.40087
298.36325
298.32736
298.29317
298.26066
298.22982
298.20069
298.17333
298.14773
298.12385
298.10246
298.08441
298.0671
298.05145
298.0505
298.06747
303.76373
303.71822
304.07791
304.22023
304.40679
304.52717
304.62833
304.68606
304.71198
304.7019
304.66035
304.58878
304.49082
304.36959
304.22867
304.07143
303.90117
303.72091
303.5334
303.34107
303.14601
302.95004
302.75464
302.56106
302.37029
302.18313
302.0002
301.82197
301.64876
301.48082
301.31831
301.1613
301.00982
300.86386
300.72335
300.58822
300.45836
300.33365
300.21396
300.09915
299.98907
299.88354
299.78243
299.68559
299.59286
299.50409
299.41912
299.33781
299.26001
299.18557
299.11436
299.04624
298.98108
298.91875
298.85913
298.80211
298.74756
298.69538
298.64547
298.59772
298.55206
298.50839
298.46664
298.42675
298.38864
298.35228
298.31761
298.28463
298.2533
298.22362
298.19562
298.16936
298.14475
298.12179
298.10121
298.08328
298.06533
298.04964
298.05025
298.05897
304.59804
304.71232
305.03009
305.16913
305.32554
305.40575
305.45365
305.45081
305.40947
305.32903
305.21593
305.07398
304.9084
304.72364
304.52415
304.3138
304.09608
303.87395
303.64995
303.42612
303.20416
302.9854
302.77087
302.56136
302.35745
302.15955
301.96793
301.78276
301.6041
301.43197
301.26631
301.10704
300.95404
300.80717
300.66627
300.53116
300.40167
300.27761
300.15881
300.04508
299.9362
299.83201
299.73233
299.63698
299.5458
299.45862
299.37526
299.29558
299.21941
299.14662
299.07705
299.01056
298.94702
298.88631
298.82829
298.77286
298.71989
298.66927
298.62091
298.57471
298.53057
298.48841
298.44817
298.40975
298.37311
298.33818
298.30493
298.27332
298.24333
298.21494
298.18819
298.16309
298.13957
298.11769
298.0981
298.08061
298.06282
298.04767
298.04721
298.04948
305.53664
305.78697
306.04956
306.155
306.24625
306.25561
306.22075
306.13137
306.00145
305.83449
305.63897
305.42066
305.18581
304.93944
304.68603
304.42919
304.17191
303.91654
303.66489
303.41834
303.17791
302.9443
302.71801
302.49932
302.28839
302.08526
301.88991
301.70222
301.52206
301.34924
301.18356
301.0248
300.87275
300.72717
300.58782
300.45448
300.32692
300.20491
300.08825
299.97671
299.87005
299.76811
299.67068
299.57758
299.48864
299.40366
299.32249
299.24497
299.17093
299.10022
299.0327
298.96823
298.90668
298.84791
298.79181
298.73826
298.68714
298.63835
298.59179
298.54736
298.50497
298.46454
298.42599
298.38925
298.35426
298.32095
298.28929
298.25922
298.23073
298.20378
298.17841
298.1546
298.13227
298.11157
298.09299
298.07604
298.05889
298.04464
298.04269
298.03991
306.55407
306.89744
307.07312
307.10427
307.09174
306.99454
306.84752
306.64998
306.41775
306.15794
305.87996
305.59025
305.29467
304.99758
304.70245
304.41181
304.12753
303.85093
303.58288
303.32392
303.07434
302.83425
302.60362
302.38234
302.1702
301.96697
301.77237
301.58611
301.4079
301.23744
301.07441
300.91853
300.7695
300.62705
300.49089
300.36076
300.23642
300.11761
300.00412
299.89568
299.79208
299.69314
299.59865
299.50842
299.42228
299.34004
299.26153
299.1866
299.11509
299.04685
298.98173
298.91961
298.86035
298.80382
298.74991
298.69849
298.64947
298.60274
298.55819
298.51574
298.4753
298.43678
298.40011
298.36522
298.33205
298.30053
298.27061
298.24225
298.21542
298.19008
298.16625
298.14388
298.12291
298.10351
298.08601
298.06981
298.05367
298.04066
298.037
298.03035
307.80079
307.96549
308.00261
307.90609
307.745
307.51052
307.23377
306.92282
306.59276
306.25161
305.9072
305.5645
305.22744
304.89854
304.57956
304.27154
303.97506
303.69035
303.4174
303.15606
302.90604
302.66701
302.43857
302.22032
302.01183
301.81268
301.62247
301.4408
301.26728
301.10155
300.94325
300.79206
300.64766
300.50974
300.37801
300.2522
300.13206
300.01734
299.9078
299.80318
299.70329
299.60794
299.51693
299.43007
299.34718
299.26809
299.19264
299.12067
299.05203
298.98657
298.92416
298.86467
298.80797
298.75394
298.70246
298.65342
298.60672
298.56226
298.51994
298.47966
298.44136
298.40494
298.37033
298.33747
298.30628
298.27671
298.24871
298.22223
298.19723
298.17368
298.15156
298.13082
298.11142
298.09352
298.07727
298.06206
298.04721
298.03545
298.03048
298.0219
308.72285
308.77411
308.61081
308.34767
308.02401
307.65717
307.2697
306.8725
306.47588
306.08548
305.70556
305.33838
304.98539
304.64725
304.32403
304.01552
303.7213
303.44085
303.17359
302.91892
302.67623
302.44492
302.22441
302.01412
301.81355
301.62219
301.43959
301.26531
301.09896
300.94015
300.78853
300.64375
300.50551
300.37351
300.24745
300.12708
300.01216
299.90244
299.79767
299.69764
299.60217
299.51106
299.42412
299.34117
299.26206
299.1866
299.11466
299.04607
298.9807
298.91841
298.85907
298.80255
298.74873
298.6975
298.64875
298.60237
298.55826
298.51633
298.47648
298.43863
298.40269
298.36859
298.33626
298.30563
298.27663
298.24921
298.22332
298.19891
298.17593
298.15435
298.13415
298.11527
298.09769
298.08153
298.06681
298.05297
298.0398
298.02962
298.02404
298.01333
309.00328
308.9109
308.571
308.17413
307.74654
307.30992
306.8767
306.45404
306.04626
305.65528
305.282
304.9264
304.58804
304.26611
303.95988
303.6685
303.39115
303.12704
302.87543
302.63561
302.40692
302.18879
301.98067
301.78204
301.59245
301.41145
301.23861
301.07355
300.91591
300.76533
300.6215
300.4841
300.35284
300.22745
300.10766
299.99324
299.88396
299.77959
299.67992
299.58477
299.49396
299.40731
299.32465
299.24582
299.17065
299.099
299.03071
298.96566
298.9037
298.84471
298.78857
298.73516
298.68436
298.63607
298.59017
298.54658
298.5052
298.46593
298.42868
298.39338
298.35995
298.32831
298.29839
298.27012
298.24346
298.21833
298.19468
298.17248
298.15167
298.13222
298.11409
298.09725
298.08167
298.06742
298.05446
298.04245
298.03137
298.02256
298.01654
298.00801
307.92432
307.96536
307.6294
307.29769
306.91504
306.53054
306.14706
305.77374
305.41249
305.06502
304.73163
304.41228
304.10668
303.81441
303.53501
303.26796
303.01275
302.76885
302.53576
302.31299
302.10003
301.89646
301.70188
301.51592
301.33819
301.16834
301.00601
300.85087
300.70261
300.56092
300.42553
300.29616
300.17257
300.05451
299.94177
299.83413
299.73137
299.63324
299.53955
299.45015
299.36484
299.28347
299.20588
299.13192
299.06144
298.9943
298.93037
298.86952
298.81164
298.75659
298.70427
298.65456
298.60737
298.56258
298.52011
298.47985
298.44172
298.40563
298.3715
298.33925
298.3088
298.28009
298.25305
298.22762
298.20373
298.18132
298.16036
298.14079
298.12257
298.10567
298.09004
298.07564
298.06248
298.05055
298.03982
298.03014
298.02155
298.01459
298.00936
298.00385
304.83503
305.34718
305.47996
305.49792
305.37629
305.1978
304.97676
304.73454
304.48034
304.22161
303.96281
303.70703
303.45631
303.21197
302.97486
302.74547
302.52408
302.31078
302.10556
301.90833
301.71895
301.53721
301.36287
301.19565
301.03531
300.88161
300.73429
300.59313
300.45789
300.32836
300.20433
300.0856
299.97196
299.86324
299.75928
299.65988
299.56487
299.47406
299.38733
299.30451
299.22547
299.15007
299.07818
299.00965
298.94437
298.88223
298.82309
298.76685
298.7134
298.66264
298.61445
298.56875
298.52544
298.48442
298.44561
298.40892
298.37427
298.34158
298.31077
298.28177
298.25451
298.22893
298.20496
298.18255
298.16162
298.14215
298.12406
298.10733
298.09191
298.07776
298.06484
298.05314
298.04261
298.03326
298.02505
298.01795
298.01196
298.00718
298.00363
298.00099
308.0155
308.08705
307.67891
306.96922
306.12008
305.30559
304.60076
304.00454
303.49773
303.05855
302.64659
302.2911
301.96676
301.67012
301.38949
301.12863
300.88291
300.65961
300.45194
300.26421
300.09006
299.93627
299.79423
299.66819
299.55199
299.4493
299.35535
299.27234
299.19449
299.12477
299.0624
299.00504
298.9517
298.90152
298.85395
298.80859
298.76512
298.72332
298.68298
298.64413
298.60664
298.57039
298.53546
298.50174
298.46913
298.43763
298.40723
298.37788
298.34954
298.32219
298.29577
298.27023
298.24551
298.22157
298.19835
298.17582
298.15383
298.13246
298.11142
298.09108
298.07064
298.0513
298.03093
298.01287
297.99178
297.97602
297.95295
297.94135
297.91263
297.90977
297.87542
297.88625
297.83678
297.87286
297.80068
297.8758
297.78267
297.89931
297.80829
297.93715
306.10874
305.46085
304.84166
304.06198
303.2211
302.49785
301.93771
301.53012
301.23757
301.01267
300.82997
300.67274
300.53193
300.40113
300.27515
300.15817
300.04115
299.93744
299.8313
299.73832
299.64317
299.56137
299.47831
299.40683
299.33548
299.27113
299.2073
299.15186
299.09668
299.04431
298.99505
298.948
298.90245
298.85827
298.81543
298.77388
298.73358
298.69452
298.65662
298.62
298.58457
298.55025
298.51705
298.48505
298.45407
298.42412
298.39518
298.36722
298.34021
298.3141
298.28886
298.26443
298.24075
298.21779
298.19548
298.17379
298.15258
298.13193
298.11153
298.09177
298.07186
298.05296
298.03303
298.01525
297.99455
297.97886
297.95614
297.9446
297.91633
297.91314
297.87971
297.88962
297.84059
297.87647
297.80433
297.87954
297.78561
297.9051
297.80855
297.94493
300.46641
300.41091
299.87854
299.14905
298.75737
298.70586
298.75515
298.83574
298.9288
299.01988
299.10183
299.17167
299.22895
299.27289
299.30323
299.3274
299.33411
299.33803
299.31529
299.30075
299.26791
299.24512
299.20711
299.1785
299.13882
299.10442
299.06684
299.03241
298.99355
298.9545
298.91593
298.87747
298.8389
298.80063
298.76294
298.72594
298.68973
298.65437
298.61987
298.5865
298.55399
298.52238
298.49185
298.46214
298.43336
298.40548
298.3785
298.35236
298.32705
298.30255
298.2788
298.25577
298.23339
298.21166
298.19046
298.16985
298.14956
298.12984
298.11017
298.09125
298.07186
298.05374
298.03407
298.0171
297.99634
297.98163
297.95836
297.94799
297.91847
297.91729
297.88151
297.89423
297.84232
297.88161
297.80589
297.88565
297.78632
297.91113
297.80898
297.95072
302.8437
302.87383
302.29752
301.05343
300.23874
300.04197
299.97193
299.92475
299.88516
299.82305
299.76419
299.70481
299.64896
299.59265
299.56385
299.49201
299.49707
299.40242
299.40676
299.31702
299.31913
299.23453
299.2273
299.15353
299.1221
299.06957
299.05263
298.99607
298.95558
298.91627
298.87722
298.83924
298.80218
298.76601
298.73067
298.69613
298.66239
298.62943
298.59735
298.56611
298.5356
298.5059
298.47702
298.44898
298.42176
298.39536
298.36976
298.34493
298.32085
298.2975
298.27483
298.25282
298.23139
298.21055
298.19017
298.1703
298.15069
298.1316
298.11247
298.09406
298.07504
298.05734
298.03789
298.02124
298.00053
297.98608
297.96273
297.9526
297.92313
297.92187
297.88604
297.89878
297.84674
297.88584
297.80914
297.88955
297.78924
297.9157
297.81056
297.95534
302.03417
301.66611
300.73713
299.58527
299.14568
299.0353
299.05699
299.06271
299.06791
299.06551
299.06881
299.06816
299.0684
299.06555
299.06221
299.05586
299.04866
299.03844
299.02714
299.01745
298.99835
298.99247
298.97137
298.95856
298.93693
298.91568
298.88617
298.86275
298.83653
298.80927
298.78151
298.75334
298.72487
298.69623
298.66756
298.639
298.61063
298.58254
298.55491
298.52773
298.50096
298.47471
298.44904
298.42395
298.39947
298.3756
298.35235
298.32971
298.30765
298.28619
298.26526
298.24485
298.2249
298.20542
298.18628
298.16757
298.14898
298.13083
298.11251
298.09487
298.07645
298.05937
298.04031
298.02421
298.00364
297.98972
297.96625
297.95664
297.92652
297.92627
297.88862
297.90345
297.84941
297.89059
297.81151
297.89468
297.79079
297.92082
297.81152
297.96006
302.10683
301.74908
300.77401
299.59961
299.0359
298.95025
298.98097
298.97657
298.97463
298.96635
298.9671
298.96314
298.96065
298.95526
298.95006
298.94243
298.93475
298.92479
298.91459
298.90126
298.88939
298.8722
298.8573
298.83862
298.82079
298.80146
298.78326
298.76236
298.7411
298.71938
298.69717
298.67452
298.65153
298.62828
298.60486
298.58133
298.55778
298.53427
298.51099
298.48785
298.46487
298.44218
298.41982
298.39783
298.37623
298.35506
298.33431
298.31399
298.29409
298.27462
298.25554
298.23684
298.21846
298.20042
298.18259
298.16506
298.14754
298.13036
298.11289
298.09601
298.07823
298.06173
298.04309
298.02743
298.00709
297.99353
297.97006
297.96078
297.93065
297.93063
297.89293
297.90791
297.85296
297.89512
297.81433
297.8991
297.79305
297.92559
297.8127
297.96446
301.76092
301.32238
300.23684
299.11815
298.70179
298.63262
298.66165
298.66912
298.68383
298.68708
298.69504
298.69763
298.70236
298.70443
298.70696
298.70748
298.70751
298.70645
298.70445
298.70176
298.69751
298.69316
298.68694
298.68018
298.67182
298.66242
298.65137
298.63966
298.62683
298.61306
298.59843
298.58299
298.56684
298.55007
298.53276
298.51501
298.49691
298.47854
298.46011
298.4415
298.42281
298.40415
298.38557
298.36712
298.34883
298.33075
298.31288
298.29524
298.27783
298.26067
298.24371
298.22697
298.21039
298.194
298.17767
298.1615
298.1452
298.12911
298.1126
298.09657
298.07952
298.06367
298.04554
298.03036
298.01032
297.99712
297.97372
297.96476
297.93443
297.93488
297.89707
297.91206
297.85556
297.89962
297.81712
297.90353
297.79503
297.93028
297.8138
297.96869
301.60912
301.10225
299.92782