/*--------------------------------*- C++ -*----------------------------------*\
  =========                 |
  \\      /  F ield         | OpenFOAM: The Open Source CFD Toolbox
   \\    /   O peration     | Website:  https://openfoam.org
    \\  /    A nd           | Version:  6
     \\/     M anipulation  |
\*---------------------------------------------------------------------------*/
FoamFile
{
    version     2.0;
    format      ascii;
    class       volVectorField;
    location    "650";
    object      U;
}
// * * * * * * * * * * * * * * * * * * * * * * * * * * * * * * * * * * * * * //

dimensions      [0 1 -1 0 0 0 0];

internalField   nonuniform List<vector> 
16000
(
(150.70455 1.2849361e-15 -17.372534)
(158.93705 -1.1462231e-15 -11.321369)
(155.80122 4.4337245e-18 -16.408996)
(157.25706 4.0094679e-18 -12.300844)
(156.04414 0 -15.321276)
(156.45559 -9.1600315e-16 -12.979582)
(155.86046 8.6705812e-16 -14.553308)
(155.89915 0 -13.326489)
(155.53112 -1.8911042e-19 -14.047227)
(155.41607 1.7886399e-19 -13.429391)
(155.13523 3.388391e-19 -13.700841)
(154.95108 -6.5725082e-16 -13.379009)
(154.70062 6.2309632e-16 -13.431719)
(154.48374 4.9070863e-18 -13.237528)
(154.24017 5.6046712e-16 -13.187899)
(154.00609 -5.319157e-16 -13.039629)
(153.76056 -1.0107369e-15 -12.940671)
(153.51614 9.5903974e-16 -12.801788)
(153.26618 0 -12.67536)
(153.01502 8.6619133e-16 -12.530546)
(152.76096 -8.235084e-16 -12.384734)
(152.5057 -7.8391655e-16 -12.227835)
(152.24918 -7.2715279e-19 -12.065269)
(151.99237 -3.469659e-19 -11.893909)
(151.73575 6.6416705e-16 -11.715379)
(151.48016 0 -11.528808)
(151.2263 6.1258976e-16 -11.334744)
(150.975 -5.7352374e-16 -11.133075)
(150.72709 -5.4197542e-19 -10.924131)
(150.48343 -5.1645439e-19 -10.708118)
(150.2449 -5.0438163e-16 -10.485412)
(150.01239 4.8014311e-16 -10.256412)
(149.78677 -1.4332268e-17 -10.021616)
(149.56894 -1.281493e-17 -9.7815829)
(149.35973 8.3410215e-16 -9.5369454)
(149.15999 -1.5919736e-15 -9.2883988)
(148.97049 7.5902096e-16 -9.0366989)
(148.79197 1.1326835e-17 -8.7826532)
(148.62512 1.0811748e-17 -8.5271128)
(148.47056 0 -8.2709629)
(148.32881 -1.2308926e-18 -8.0151102)
(148.20037 1.1755396e-18 -7.7604708)
(148.08561 -5.7405855e-16 -7.5079593)
(147.98485 5.50434e-16 -7.2584745)
(147.8983 5.239988e-16 -7.0128874)
(147.82612 -5.0164475e-16 -6.7720285)
(147.76836 -9.3627777e-19 -6.5366771)
(147.72501 0 -6.3075492)
(147.69598 4.3831824e-16 -6.0852902)
(147.68111 -4.1912057e-16 -5.8704648)
(147.68016 0 -5.6635532)
(147.69284 0 -5.4649424)
(147.71877 2.2939725e-17 -5.2749344)
(147.75751 -1.371535e-18 -5.0937426)
(147.80861 2.1017386e-17 -4.921477)
(147.87163 0 -4.7581592)
(147.94603 0 -4.6037311)
(148.03118 0 -4.4580587)
(148.1264 0 -4.3209244)
(148.23096 -3.6030222e-17 -4.1920649)
(148.34424 -3.2510432e-17 -4.0711183)
(148.46534 0 -3.9577702)
(148.59385 2.9905997e-17 -3.8514617)
(148.7282 0 -3.752019)
(148.86886 -3.0988476e-17 -3.6584033)
(149.01182 -4.2644133e-16 -3.5712168)
(149.16106 4.0656684e-16 -3.4878374)
(149.30461 -3.0521497e-18 -3.411777)
(149.45938 3.7561107e-16 -3.3349725)
(149.58846 -3.8123119e-16 -3.2712639)
(149.75242 0 -3.1931166)
(149.83755 -3.3503547e-16 -3.1491596)
(150.04212 6.4563336e-16 -3.0440834)
(150.01035 -3.1161674e-16 -3.0617665)
(150.3445 4.6921294e-18 -2.8554499)
(150.00569 0 -3.0929448)
(150.64731 -1.4021793e-16 -2.4888103)
(149.66777 1.7191201e-17 -3.4659785)
(150.84333 1.3150733e-16 -1.598464)
(149.19249 -3.2071629e-17 -4.6324828)
(150.35186 -1.2950213e-15 -19.053039)
(158.60312 1.1572346e-15 -12.733368)
(155.28379 -4.3753337e-18 -18.05881)
(156.8252 1.0497871e-15 -13.716972)
(155.53104 -1.0005097e-15 -16.897251)
(155.98056 7.3020419e-18 -14.407469)
(155.34122 0 -16.060556)
(155.38866 0 -14.751082)
(154.9955 7.7895571e-16 -15.496844)
(154.87563 -7.6009443e-16 -14.833418)
(154.57825 6.9830518e-16 -15.100805)
(154.38383 -6.7180182e-16 -14.749467)
(154.12003 0 -14.78473)
(153.89131 5.9965118e-16 -14.565694)
(153.63554 -5.7320427e-16 -14.492726)
(153.38959 0 -14.319318)
(153.13258 0 -14.193919)
(152.87696 0 -14.027916)
(152.6164 -9.1838916e-16 -13.872717)
(152.35514 8.8631786e-16 -13.698397)
(152.09173 0 -13.521621)
(151.82788 8.0179169e-16 -13.332849)
(151.56368 -7.5041451e-16 -13.137165)
(151.30019 -7.2574185e-16 -12.931719)
(151.03802 3.2030542e-17 -12.718033)
(150.77808 6.36661e-16 -12.49539)
(150.52119 6.4568031e-16 -12.264354)
(150.26828 -1.2016066e-15 -12.024933)
(150.02025 1.1357644e-15 -11.777535)
(149.77805 -5.2401641e-16 -11.522482)
(149.5426 5.1572919e-16 -11.260268)
(149.31485 -9.8288997e-16 -10.991418)
(149.09571 9.5162528e-16 -10.716568)
(148.88606 -8.794412e-16 -10.436418)
(148.68675 4.2589867e-16 -10.15175)
(148.49857 0 -9.8634081)
(148.32227 2.4239403e-17 -9.572301)
(148.15852 -1.1550138e-17 -9.279383)
(148.00788 -7.1686681e-16 -8.9856484)
(147.87089 7.1556673e-16 -8.6921186)
(147.74794 0 -8.3998306)
(147.63937 -6.138485e-16 -8.1098182)
(147.54541 3.6520935e-17 -7.8231035)
(147.46621 1.1192879e-15 -7.5406785)
(147.40182 -5.3447079e-16 -7.2634949)
(147.35221 -5.1062469e-16 -6.9924493)
(147.31726 5.1827956e-16 -6.7283731)
(147.29679 -4.0784309e-16 -6.4720201)
(147.29055 8.3518612e-16 -6.2240608)
(147.29822 -4.2574922e-16 -5.9850718)
(147.31942 0 -5.7555343)
(147.35373 0 -5.5358272)
(147.40068 -2.3250971e-17 -5.326228)
(147.45973 -7.1178272e-16 -5.1269259)
(147.53032 6.5970865e-16 -4.9380034)
(147.61194 6.108421e-16 -4.7594358)
(147.70404 -6.0921321e-20 -4.5911161)
(147.80597 -6.7163421e-16 -4.432861)
(147.91703 0 -4.2844038)
(148.03651 3.4204242e-17 -4.1454101)
(148.16375 -3.2782921e-17 -4.0154757)
(148.29798 -6.2798074e-17 -3.8941739)
(148.43859 -4.5123445e-16 -3.7809664)
(148.58458 9.1985257e-20 -3.6754226)
(148.73553 4.1483143e-16 -3.5767825)
(148.88935 0 -3.4848942)
(149.04673 -4.0710695e-16 -3.3983192)
(149.202 3.9083142e-16 -3.3181712)
(149.36094 -4.6904119e-17 -3.2404834)
(149.50652 3.8288889e-16 -3.1713792)
(149.66498 -6.9266255e-16 -3.0969171)
(149.78016 3.7470275e-16 -3.0433981)
(149.95205 3.2024576e-16 -2.953716)
(149.99153 -1.202939e-19 -2.9433339)
(150.24072 -3.2003262e-16 -2.7732163)
(150.04224 2.6844776e-16 -2.9433758)
(150.5206 -2.7151525e-16 -2.4398618)
(149.76129 -1.6724208e-17 -3.2748022)
(150.70309 1.6050556e-17 -1.5953205)
(149.33492 3.1252565e-17 -4.3511071)
(149.84013 1.3097318e-15 -20.764265)
(158.08377 -8.2858513e-21 -14.205726)
(154.6258 -1.1406602e-15 -19.711529)
(156.24208 1.0564074e-15 -15.203324)
(154.87591 7.8996063e-18 -18.475961)
(155.34926 9.4517292e-16 -15.897032)
(154.67309 -1.8046845e-15 -17.576343)
(154.72058 1.2951505e-17 -16.224012)
(154.30591 8.0723364e-16 -16.960515)
(154.17625 1.193525e-17 -16.273469)
(153.8633 -7.357117e-16 -16.517096)
(153.65582 6.8614533e-16 -16.145928)
(153.37843 0 -16.152856)
(153.13622 0 -15.91158)
(152.86769 -5.8601086e-16 -15.808783)
(152.60894 5.5601158e-16 -15.609256)
(152.34 0 -15.452752)
(152.07276 1.5689575e-17 -15.256944)
(151.80151 -1.4888394e-17 -15.068888)
(151.53025 8.7810187e-16 -14.861573)
(151.25788 4.5053623e-19 -14.64982)
(150.98609 -7.9350783e-16 -14.425295)
(150.7152 7.6741958e-16 -14.19242)
(150.4463 -7.4135646e-16 -13.948831)
(150.18019 -7.2792744e-16 -13.69588)
(149.91786 6.9254624e-16 -13.433087)
(149.66027 2.0031605e-17 -13.161041)
(149.40842 3.8094066e-17 -12.879915)
(149.16331 3.6281767e-17 -12.590229)
(148.92595 -5.6992085e-16 -12.292464)
(148.69734 4.9338906e-16 -11.987264)
(148.47843 5.3314251e-16 -11.675327)
(148.27016 -4.7801664e-16 -11.357459)
(148.0734 -4.5584367e-16 -11.034537)
(147.88896 8.6900555e-16 -10.70752)
(147.71757 -8.2860868e-16 -10.37743)
(147.55989 -3.7055228e-16 -10.045346)
(147.41648 7.5357329e-16 -9.7123881)
(147.28779 0 -9.3797048)
(147.17417 -6.8595973e-16 -9.0484551)
(147.07588 6.1349189e-16 -8.7198015)
(146.99306 0 -8.3948864)
(146.92574 -3.7240437e-17 -8.0748223)
(146.87388 0 -7.7606719)
(146.83732 6.7944945e-17 -7.4534406)
(146.81582 0 -7.1540584)
(146.80907 -3.0947093e-17 -6.8633733)
(146.8167 4.9073015e-20 -6.5821392)
(146.83826 1.1297834e-16 -6.3110112)
(146.87326 0 -6.0505381)
(146.92117 0 -5.8011613)
(146.98144 0 -5.5632116)
(147.05347 0 -5.33691)
(147.13663 0 -5.1223737)
(147.23028 8.6077792e-17 -4.9196279)
(147.3338 4.1134677e-17 -4.7285874)
(147.44662 6.2955838e-16 -4.5490634)
(147.56809 -6.0231764e-16 -4.3808)
(147.6975 -7.2035286e-17 -4.2234617)
(147.83413 0 -4.0766373)
(147.97731 6.5944843e-17 -3.9398566)
(148.12636 5.6814567e-16 -3.8126059)
(148.28063 -5.4404946e-16 -3.6943083)
(148.43932 0 -3.5843903)
(148.60176 -5.5461006e-17 -3.4821636)
(148.76665 -1.0624404e-16 -3.3871134)
(148.93341 4.071585e-16 -3.2982949)
(149.09908 -3.9038563e-16 -3.2156454)
(149.26462 4.6779453e-17 -3.1372324)
(149.42204 -3.5893935e-16 -3.0650586)
(149.58095 9.6566752e-20 -2.9927209)
(149.71513 2.8936472e-16 -2.9319324)
(149.87188 0 -2.8540588)
(149.94978 0 -2.8225759)
(150.15292 1.8314021e-17 -2.6865264)
(150.04748 1.7639442e-17 -2.7905972)
(150.40987 2.9647663e-17 -2.3822886)
(149.8145 -1.144873e-16 -3.0646945)
(150.59039 1.1406972e-16 -1.5794279)
(149.36623 -6.0384584e-17 -4.12755)
(149.17494 3.1666817e-17 -22.516206)
(157.38709 9.4300903e-18 -15.706759)
(153.8163 1.1784478e-15 -21.3988)
(155.50714 4.710336e-19 -16.719749)
(154.0667 -1.0298962e-15 -20.082416)
(154.56318 -9.7060995e-16 -17.414468)
(153.84877 9.1933484e-16 -19.114393)
(153.89478 -1.3572122e-17 -17.720851)
(153.45765 8.3637463e-16 -18.442062)
(153.31668 -7.549469e-16 -17.732022)
(152.98738 -7.3906546e-16 -17.946932)
(152.76571 1.3787725e-15 -17.554906)
(152.47405 -6.6407405e-16 -17.529554)
(152.21767 1.9709016e-17 -17.26375)
(151.93594 0 -17.127651)
(151.66412 0 -16.898974)
(151.38321 -5.3935481e-16 -16.707947)
(151.10459 4.9608825e-16 -16.4789)
(150.82312 0 -16.254442)
(150.54265 9.5437547e-16 -16.010479)
(150.26239 -9.0690152e-16 -15.760062)
(149.98407 4.4258687e-20 -15.496022)
(149.70822 0 -15.222197)
(149.43603 -4.7351869e-17 -14.936698)
(149.16844 -7.2042213e-16 -14.64077)
(148.90657 6.4241142e-16 -14.334176)
(148.65147 -6.9342129e-16 -14.017583)
(148.40425 5.8228904e-16 -13.691357)
(148.16599 -3.6944565e-17 -13.356171)
(147.93775 -3.5245998e-17 -13.012698)
(147.72054 -5.0326912e-16 -12.66177)
(147.51536 4.792395e-16 -12.304288)
(147.32309 0 -11.941256)
(147.14457 0 -11.573758)
(146.98053 0 -11.202949)
(146.8316 -5.276459e-17 -10.830044)
(146.6983 -5.0226316e-17 -10.456302)
(146.58104 8.1480633e-16 -10.083007)
(146.48008 -9.1292989e-17 -9.7114612)
(146.39561 -6.5356418e-16 -9.3429549)
(146.32763 4.1544312e-17 -8.9787569)
(146.27609 6.3451691e-16 -8.6200975)
(146.24079 -5.2956792e-16 -8.2681538)
(146.22145 -5.7759991e-16 -7.9240297)
(146.21767 -6.8897942e-17 -7.5887498)
(146.229 9.8626694e-16 -7.2632427)
(146.25492 -3.7650371e-16 -6.9483355)
(146.29483 -5.9888024e-17 -6.644745)
(146.34811 4.0042065e-16 -6.3530739)
(146.4141 -5.4622724e-16 -6.0738071)
(146.49212 -4.1723342e-16 -5.8073121)
(146.58148 3.9851022e-16 -5.5538395)
(146.68147 0 -5.3135256)
(146.79139 7.2714111e-16 -5.0863963)
(146.91052 -7.8161566e-16 -4.8723839)
(147.03817 0 -4.6713218)
(147.17373 6.3444385e-16 -4.4829375)
(147.31657 -9.8553512e-16 -4.3068805)
(147.46597 5.0734024e-16 -4.1427376)
(147.62123 5.5430489e-16 -3.9900177)
(147.78172 -1.3266228e-16 -3.8481735)
(147.94677 -5.0704965e-16 -3.7166146)
(148.11578 -4.8490192e-16 -3.594701)
(148.28806 5.8001256e-16 -3.4817701)
(148.46293 -4.4390406e-16 -3.3771082)
(148.6394 1.0631025e-16 -3.2800417)
(148.81655 4.0672214e-16 -3.1897495)
(148.99244 -3.8929159e-16 -3.105709)
(149.16632 5.5932908e-16 -3.0267123)
(149.3338 0 -2.9530486)
(149.49752 0 -2.8816669)
(149.64472 0 -2.8171661)
(149.79705 0 -2.7455041)
(149.90132 1.5078861e-16 -2.7006085)
(150.07286 -2.8919964e-16 -2.5903113)
(150.03687 3.4730346e-16 -2.6422025)
(150.31792 -3.6645432e-16 -2.3137271)
(149.84565 4.9723758e-16 -2.8599711)
(150.49553 -3.7323289e-16 -1.5494333)
(149.39034 -1.0064209e-19 -3.8652634)
(148.35871 1.3713932e-15 -24.301619)
(156.49644 5.2687837e-19 -17.237605)
(152.84968 -1.2162214e-15 -23.109894)
(154.61118 0 -18.271831)
(153.09761 -1.6391526e-17 -21.706399)
(153.61166 -3.0911402e-17 -18.963809)
(152.86038 0 -20.666294)
(152.90032 -8.5801122e-16 -19.242311)
(152.44119 8.3878521e-16 -19.934635)
(152.28572 -8.195835e-16 -19.206655)
(151.93974 7.529698e-16 -19.383856)
(151.70184 -3.819639e-20 -18.971455)
(151.39528 0 -18.907701)
(151.12353 6.2271941e-16 -18.615131)
(150.82812 -6.0974891e-16 -18.440876)
(150.54275 0 -18.179439)
(150.24982 5.5006572e-16 -17.949376)
(149.96 -5.5491339e-16 -17.68284)
(149.66887 4.9649213e-16 -17.417442)
(149.38009 4.4262087e-16 -17.132291)
(149.09326 -8.6863853e-16 -16.838594)
(148.81012 -2.6626333e-17 -16.530407)
(148.53145 5.0745137e-17 -16.211019)
(148.25854 -9.6089155e-20 -15.87905)
(147.9925 0 -15.53568)
(147.73455 -8.7017883e-20 -15.180959)
(147.48586 0 -14.815678)
(147.24762 3.958604e-17 -14.440439)
(147.02096 0 -14.056112)
(146.80697 3.5812758e-17 -13.663609)
(146.60668 0 -13.263985)
(146.42103 0 -12.858381)
(146.25085 6.1995264e-17 -12.448033)
(146.09688 0 -12.034253)
(145.95972 -4.4978889e-16 -11.618412)
(145.83983 4.8200309e-16 -11.201927)
(145.73756 0 -10.786239)
(145.65308 -4.8620684e-17 -10.372797)
(145.58645 -6.4946498e-16 -9.9630344)
(145.53758 6.190417e-16 -9.5583572)
(145.50624 -6.7457061e-16 -9.1601156)
(145.49209 7.2362861e-16 -8.7695938)
(145.49468 -7.6676245e-16 -8.3879954)
(145.51346 5.8501777e-16 -8.0164259)
(145.54778 -1.3959304e-16 -7.6558847)
(145.59695 6.6508774e-17 -7.3072551)
(145.66022 -1.2691053e-16 -6.9712982)
(145.73678 1.2121174e-16 -6.6486492)
(145.82583 -4.6241668e-16 -6.3398158)
(145.92655 9.9294021e-16 -6.0451786)
(146.0381 -5.3243642e-20 -5.764994)
(146.15967 -5.0265092e-16 -5.4993973)
(146.29047 1.9197657e-16 -5.2484091)
(146.42971 0 -5.0119409)
(146.57664 0 -4.7898044)
(146.73052 0 -4.5817307)
(146.89069 -6.3812953e-16 -4.3873502)
(147.05656 4.5730391e-16 -4.2062095)
(147.22744 1.4555985e-16 -4.0378018)
(147.40264 -1.3912014e-16 -3.8815546)
(147.58155 1.3288155e-16 -3.7368388)
(147.76359 -7.6198748e-16 -3.6029897)
(147.94817 9.7100376e-16 -3.4793008)
(148.13471 -1.0440858e-15 -3.3650386)
(148.32257 9.9806025e-16 -3.2594401)
(148.51096 -2.1218141e-16 -3.1617417)
(148.6989 -6.0832006e-16 -3.0711278)
(148.8849 0 -2.9868744)
(149.06762 -1.8542921e-16 -2.9080182)
(149.24418 1.7741647e-16 -2.8341192)
(149.41419 0 -2.7635332)
(149.57126 0 -2.6974545)
(149.72365 -1.5551137e-16 -2.6297169)
(149.84491 -2.9781383e-16 -2.5754418)
(149.99828 -2.8514998e-16 -2.4849042)
(150.0117 6.8358866e-17 -2.4950686)
(150.23382 -6.552866e-17 -2.2323126)
(149.85702 2.5160936e-16 -2.6564904)
(150.40654 -6.0149513e-17 -1.5103939)
(149.38064 2.2726753e-16 -3.6200242)
(147.38159 1.3696602e-15 -26.118133)
(155.42178 -1.2492589e-15 -18.799929)
(151.71279 1.8721057e-17 -24.845756)
(153.5409 0 -19.858806)
(151.95574 1.6649307e-17 -23.346178)
(152.48206 1.0376621e-15 -20.54212)
(151.6954 -9.2320718e-16 -22.2284)
(151.72509 -5.6364057e-17 -20.783054)
(151.24445 0 -21.432784)
(151.07173 -8.0949733e-16 -20.690017)
(150.70883 7.1531579e-17 -20.820473)
(150.45312 2.2293275e-17 -20.38649)
(150.13124 6.4657902e-16 -20.277953)
(149.84342 0 -19.955024)
(149.53418 6.2148208e-16 -19.737248)
(149.23527 -1.1427731e-15 -19.438364)
(148.93075 1.1202519e-15 -19.164091)
(148.63051 -4.9866295e-16 -18.854921)
(148.33091 0 -18.543344)
(148.03546 2.9991888e-17 -18.211698)
(147.74414 -9.1340676e-16 -17.86944)
(147.45876 1.7362113e-15 -17.511829)
(147.18033 -1.7024186e-15 -17.141705)
(146.91028 8.8293587e-16 -16.7582)
(146.64987 -7.4688231e-16 -16.362514)
(146.40042 7.1006342e-16 -15.955017)
(146.16321 0 -15.53669)
(145.93947 -6.0297731e-16 -15.108413)
(145.73036 6.1199192e-16 -14.671311)
(145.53696 7.2918011e-17 -14.226573)
(145.36026 6.9415322e-17 -13.775524)
(145.20109 -5.9429706e-16 -13.319576)
(145.06016 9.4296326e-16 -12.860225)
(144.93805 1.357102e-19 -12.399024)
(144.83515 -9.1226383e-16 -11.937572)
(144.7517 5.4316946e-16 -11.477484)
(144.68777 0 -11.020374)
(144.64329 3.9438839e-16 -10.567833)
(144.61799 -4.6977163e-16 -10.121402)
(144.6115 0 -9.6825593)
(144.62327 -6.8258237e-16 -9.2526999)
(144.65267 8.1490319e-17 -8.8331145)
(144.69893 5.4250097e-16 -8.4249819)
(144.76124 0 -8.0293577)
(144.83868 1.4084886e-16 -7.6471636)
(144.93031 6.7196477e-16 -7.2791852)
(145.03514 -5.1262814e-16 -6.9260678)
(145.15219 1.2115151e-19 -6.5883171)
(145.28047 -4.6624646e-16 -6.2663022)
(145.419 8.8955009e-16 -5.9602589)
(145.56684 -7.8864433e-20 -5.6702965)
(145.72308 -1.0119857e-16 -5.3964038)
(145.88685 -1.9303984e-16 -5.1384584)
(146.05733 1.8431227e-16 -4.8962338)
(146.23372 1.7587213e-16 -4.6694089)
(146.41528 6.7107338e-16 -4.4575877)
(146.60134 -6.4066541e-16 -4.2602927)
(146.79133 0 -4.0769696)
(146.98461 0 -3.9070066)
(147.18056 1.3929674e-16 -3.7497485)
(147.37859 5.3200892e-16 -3.604486)
(147.57818 -2.5413401e-16 -3.4704823)
(147.77881 -4.8506509e-16 -3.3469677)
(147.97998 -2.3153936e-16 -3.2331479)
(148.18115 2.2126555e-16 -3.1282087)
(148.38164 4.2258872e-16 -3.0313253)
(148.58056 8.0724464e-16 -2.9416526)
(148.77664 -3.8565669e-16 -2.8583663)
(148.9684 3.6833396e-16 -2.7805576)
(149.1536 -7.0403294e-16 -2.7074898)
(149.33067 -3.3631224e-16 -2.6380192)
(149.49592 3.215351e-16 -2.5718599)
(149.65131 1.5364127e-16 -2.5065607)
(149.78478 1.4690216e-16 -2.446787)
(149.92632 -2.809554e-16 -2.369997)
(149.9756 1.3440209e-16 -2.3485905)
(150.15447 1.2858761e-16 -2.1415679)
(149.85857 -4.9274395e-16 -2.4559933)
(150.32627 2.9444337e-16 -1.4612269)
(149.35746 0 -3.3662194)
(146.22639 2.2065936e-17 -27.966047)
(154.22368 -1.2314276e-15 -20.393774)
(150.39366 3.7550374e-17 -26.59646)
(152.28316 1.1418615e-15 -21.473243)
(150.62923 -1.0848564e-15 -24.990754)
(151.16152 1.0553341e-15 -22.141052)
(150.34171 -6.0611957e-17 -23.790448)
(150.35645 2.8648768e-17 -22.333433)
(149.85504 0 -22.926252)
(149.66219 8.2384162e-16 -22.171323)
(149.28219 -8.7807579e-16 -22.245807)
(149.00714 0 -21.788111)
(148.66959 7.4613998e-16 -21.6281)
(148.36515 -6.6590546e-16 -21.27026)
(148.04214 6.3234875e-16 -21.003043)
(147.73004 -6.3735783e-16 -20.661104)
(147.41475 4.9863149e-16 -20.336715)
(147.10538 -1.0822463e-15 -19.978884)
(146.79911 5.1386573e-16 -19.615087)
(146.49934 -4.8852299e-16 -19.230818)
(146.20643 5.2205459e-16 -18.833954)
(145.92233 -5.5215355e-17 -18.420925)
(145.64826 -5.2488369e-17 -17.994248)
(145.38578 -4.9776235e-17 -17.553591)
(145.13628 0 -17.100269)
(144.90121 4.5015822e-17 -16.635021)
(144.68187 6.8603722e-16 -16.15909)
(144.47952 -7.337988e-16 -15.673694)
(144.29529 5.4319991e-16 -15.180266)
(144.13019 -1.474677e-16 -14.680322)
(143.98506 -6.3221941e-16 -14.175494)
(143.86058 -1.5215583e-19 -13.667492)
(143.75726 -5.0931448e-16 -13.158087)
(143.6754 4.8473397e-16 -12.649082)
(143.61513 1.155149e-16 -12.142293)
(143.57636 -1.0976609e-16 -11.639516)
(143.55884 0 -11.142509)
(143.56213 -3.985854e-16 -10.652962)
(143.58562 4.7444985e-16 -10.172479)
(143.62858 -7.2324567e-16 -9.7025578)
(143.69012 8.6141748e-16 -9.2445743)
(143.76926 -1.6399775e-16 -8.7997661)
(143.86494 7.8175492e-16 -8.3692242)
(143.97602 -1.3412744e-15 -7.9538904)
(144.10134 -1.4202876e-16 -7.5545486)
(144.2397 4.0620412e-16 -7.1718281)
(144.38993 0 -6.8062051)
(144.55085 1.2318356e-16 -6.4580071)
(144.72132 0 -6.1274205)
(144.90026 -2.2368886e-16 -5.8144985)
(145.08663 0 -5.5191705)
(145.27945 -4.0657066e-16 -5.2412517)
(145.47782 1.9391845e-16 -4.9804542)
(145.68089 -3.6973403e-16 -4.736396)
(145.88788 -1.7625614e-16 -4.5086122)
(146.09807 0 -4.2965673)
(146.31081 0 -4.0996709)
(146.52554 0 -3.917263)
(146.74174 -5.8376886e-16 -3.7486315)
(146.95881 2.7872751e-16 -3.5930363)
(147.17625 1.6153628e-19 -3.4496943)
(147.3936 5.0712649e-16 -3.3178015)
(147.61042 0 -3.1965322)
(147.8263 6.9233685e-16 -3.0850406)
(148.04077 -6.6075469e-16 -2.9824678)
(148.25328 -2.1000964e-16 -2.8879437)
(148.46306 -2.0040754e-16 -2.8005883)
(148.669 7.6556255e-16 -2.71952)
(148.86966 -3.6536866e-16 -2.6438234)
(149.06306 -5.2289283e-16 -2.5726375)
(149.24724 2.144703e-19 -2.5049314)
(149.41956 2.0794482e-19 -2.439925)
(149.57907 1.5163909e-15 -2.3765074)
(149.7212 -5.7922509e-16 -2.3141163)
(149.85651 5.5296996e-16 -2.2462748)
(149.93126 0 -2.2020776)
(150.07701 5.0444126e-16 -2.0419364)
(149.85001 -4.8268755e-16 -2.2591137)
(150.24619 0 -1.4027397)
(149.32098 2.1396403e-16 -3.1204757)
(144.88183 1.4095157e-15 -29.84455)
(152.85648 -2.5846177e-15 -22.012557)
(148.88625 -3.9290533e-17 -28.352917)
(150.82977 -7.066461e-19 -23.109614)
(149.10986 1.1021415e-15 -26.631967)
(149.64036 -1.0412527e-15 -23.753221)
(148.7893 2.002717e-15 -25.344087)
(148.78357 -9.3281962e-16 -23.884277)
(148.26167 0 -24.405667)
(148.04541 0 -23.639655)
(147.64777 9.9225928e-17 -23.648742)
(147.35173 -7.5276146e-16 -23.163603)
(146.99808 7.5808981e-16 -22.94488)
(146.67662 0 -22.546142)
(146.34014 0 -22.2227)
(146.01563 6.0985018e-16 -21.830837)
(145.69096 -5.0630161e-16 -21.449403)
(145.37449 0 -21.03576)
(145.06425 5.2201329e-16 -20.612699)
(144.76356 -4.955269e-16 -20.168704)
(144.4732 -5.8784985e-17 -19.710324)
(144.19521 5.5855058e-17 -19.235117)
(143.93104 5.3079362e-17 -18.745437)
(143.68239 0 -18.241527)
(143.45075 0 -17.72492)
(143.23759 0 -17.196789)
(143.04423 0 -16.658723)
(142.87187 0 -16.112333)
(142.72151 7.0658442e-16 -15.55942)
(142.594 -5.2270498e-16 -15.001862)
(142.48995 0 -14.441631)
(142.40978 6.0818683e-16 -13.880745)
(142.35366 9.5688411e-20 -13.32125)
(142.32155 7.0260407e-20 -12.765182)
(142.31318 -9.3139222e-16 -12.214541)
(142.32808 4.4334758e-16 -11.671263)
(142.36557 5.276479e-16 -11.137193)
(142.42479 -4.0176435e-16 -10.614058)
(142.50473 -3.8249742e-16 -10.103454)
(142.60425 -3.6416572e-16 -9.6068215)
(142.72208 -1.7319396e-16 -9.1254398)
(142.85691 6.6067074e-16 -8.6604169)
(143.00733 -1.5741809e-16 -8.2126821)
(143.17193 -4.4954959e-16 -7.7829902)
(143.34931 1.4278056e-16 -7.3719222)
(143.53804 6.8008752e-16 -6.9798905)
(143.73678 -2.5927486e-16 -6.6071485)
(143.94422 2.4697009e-16 -6.2537993)
(144.1591 -2.3524876e-16 -5.9198075)
(144.38026 2.2412728e-16 -5.6050113)
(144.60663 0 -5.3091341)
(144.8372 -1.4888579e-19 -5.0317977)
(145.07107 -1.9405178e-16 -4.7725337)
(145.30741 1.8496681e-16 -4.5307951)
(145.54548 -3.5282315e-16 -4.3059671)
(145.7846 0 -4.0973761)
(146.02418 -3.2057834e-16 -3.9043136)
(146.26373 3.053919e-16 -3.7260153)
(146.50281 -1.1652728e-15 -3.5616829)
(146.74091 5.5568456e-16 -3.4104914)
(146.9776 5.2953093e-16 -3.2715945)
(147.21252 -2.5252681e-16 -3.1441292)
(147.4453 4.813601e-16 -3.0272236)
(147.67561 -9.1804083e-16 -2.9199912)
(147.90309 -4.3754488e-16 -2.8215384)
(148.12731 8.3462917e-16 -2.7309625)
(148.34761 9.9457724e-20 -2.6473542)
(148.56303 3.7935707e-16 -2.5697958)
(148.77222 3.6165626e-16 -2.4973544)
(148.97337 0 -2.429105)
(149.16445 9.8599285e-16 -2.3640127)
(149.34305 -1.8808372e-15 -2.3012056)
(149.50723 1.0361366e-19 -2.2397424)
(149.6555 8.5497889e-16 -2.1773219)
(149.78799 -1.3590053e-15 -2.1150908)
(149.88164 2.2024879e-19 -2.0552044)
(150.00121 2.4733897e-16 -1.9329456)
(149.83459 -4.719506e-16 -2.0656413)
(150.16868 1.1257135e-15 -1.3390187)
(149.28449 -2.0779008e-16 -2.8762418)
(143.33924 0 -31.750763)
(151.28657 -1.3147894e-15 -23.652483)
(147.1791 1.2579563e-15 -30.112961)
(149.16793 3.6973942e-17 -24.765698)
(147.38479 1.155631e-15 -28.265498)
(147.90453 -3.230732e-17 -25.373482)
(147.02394 -1.0016306e-15 -26.882947)
(146.99163 8.8930814e-16 -25.427257)
(146.4492 -8.9781471e-16 -25.862163)
(146.20613 -9.0436147e-16 -25.083749)
(145.79017 -3.9750248e-19 -25.017402)
(145.4717 7.63944e-16 -24.498889)
(145.10171 1.3743629e-19 -24.213214)
(144.76333 -6.8740421e-16 -23.765748)
(144.41425 6.5161504e-16 -23.378017)
(144.07892 7.7440589e-17 -22.927786)
(143.74723 6.6060287e-16 -22.481062)
(143.42686 -5.5690144e-16 -22.003109)
(143.11669 -5.2902561e-16 -21.51255)
(142.81999 4.3911396e-16 -21.000643)
(142.53796 -4.7699553e-16 -20.472911)
(142.27273 4.5277665e-16 -19.928015)
(142.02596 -4.3032954e-16 -19.368325)
(141.7994 3.0626512e-16 -18.794708)
(141.59459 0 -18.209045)
(141.41297 7.3821531e-16 -17.613004)
(141.25575 -7.0130825e-16 -17.008605)
(141.12395 -6.6682546e-16 -16.397908)
(141.01836 -1.8127697e-19 -15.783126)
(140.93951 6.0247441e-16 -15.166525)
(140.88766 5.7297055e-16 -14.55042)
(140.86282 -5.4476527e-16 -13.937129)
(140.86473 1.2970197e-16 -13.328937)
(140.89287 -4.9283354e-16 -12.728066)
(140.94647 8.2052946e-16 -12.136639)
(141.02458 -4.4600982e-16 -11.556654)
(141.12602 -7.427293e-16 -10.989957)
(141.24945 4.0383388e-16 -10.438221)
(141.39342 0 -9.9029381)
(141.55634 -1.8304675e-16 -9.3853966)
(141.73659 -6.962585e-16 -8.8866861)
(141.93249 6.6297845e-16 -8.4076935)
(142.14235 7.8870161e-16 -7.9491047)
(142.3645 -7.5134653e-16 -7.5114121)
(142.59731 -2.8584291e-16 -7.0949263)
(142.83922 6.8149444e-16 -6.6997863)
(143.08873 2.5935324e-16 -6.3259744)
(143.34446 2.4727421e-16 -5.97333)
(143.6051 2.3543855e-16 -5.6415649)
(143.86947 -1.6855624e-19 -5.3302789)
(144.13649 -6.4101801e-16 -5.0389738)
(144.40518 6.1035366e-16 -4.7670672)
(144.67468 3.8751651e-16 -4.5139055)
(144.94424 -7.3893788e-16 -4.2787755)
(145.21317 3.5182847e-16 -4.0609149)
(145.4809 -6.7044493e-16 -3.8595208)
(145.74691 1.5971096e-15 -3.6737681)
(146.0108 -3.0454008e-16 -3.5028012)
(146.27221 -2.9005402e-16 -3.3457464)
(146.53077 -2.762748e-16 -3.2017044)
(146.78613 0 -3.0697771)
(147.03801 -7.5260204e-16 -2.9490555)
(147.28615 -4.7779753e-16 -2.8386331)
(147.5303 1.3663809e-15 -2.7375954)
(147.7702 4.338125e-16 -2.6450256)
(148.00552 -4.1331893e-16 -2.5600012)
(148.23575 -1.5749996e-15 -2.4815937)
(148.46005 -3.7489423e-16 -2.4088648)
(148.6772 3.5747818e-16 -2.3408689)
(148.88552 0 -2.2766398)
(149.083 9.7248394e-16 -2.2151369)
(149.26725 -6.1772154e-16 -2.1555011)
(149.43611 8.8244412e-16 -2.0965005)
(149.58873 -8.4040639e-16 -2.0360006)
(149.72054 1.8317658e-19 -1.9773644)
(149.82707 5.0852945e-16 -1.9082549)
(149.92684 2.4211908e-16 -1.8155087)
(149.81382 0 -1.8769696)
(150.09074 -2.1966443e-16 -1.271826)
(149.24575 0 -2.6370789)
(141.58398 -1.4736849e-15 -33.683335)
(149.50202 -4.1760564e-17 -25.312444)
(145.25484 -4.0004962e-17 -31.872833)
(147.27909 -3.7500706e-17 -26.438037)
(145.436 -3.5515082e-17 -29.885073)
(145.93512 -1.0760521e-15 -26.994643)
(145.02686 1.0811394e-15 -28.398567)
(144.96173 6.0124693e-17 -26.951393)
(144.39868 9.6932245e-16 -27.284242)
(144.12569 -7.553808e-16 -26.489228)
(143.69094 -1.0227817e-16 -26.336616)
(143.34917 8.2408674e-16 -25.776289)
(142.96321 -7.8034386e-16 -25.41413)
(142.60892 0 -24.908028)
(142.2492 0 -24.446402)
(141.90595 -7.0480821e-16 -23.927608)
(141.57113 4.4541855e-16 -23.405844)
(141.25182 0 -22.853645)
(140.9477 -6.0207311e-16 -22.28611)
(140.66207 1.01506e-15 -21.697045)
(140.39644 2.7745351e-19 -21.091299)
(140.15306 -8.0022974e-16 -20.468623)
(139.93368 4.3414811e-16 -19.831607)
(139.74004 -7.2194329e-16 -19.181809)
(139.57362 8.8106294e-16 -18.521582)
(139.43567 -9.3138124e-17 -17.853167)
(139.32716 0 -17.179077)
(139.2488 0 -16.501864)
(139.20095 4.7809878e-16 -15.824171)
(139.18369 8.8428849e-20 -15.148646)
(139.19677 1.4423636e-16 -14.477917)
(139.23964 -1.0947279e-15 -13.814544)
(139.31144 5.20654e-16 -13.160984)
(139.41108 -4.9465223e-16 -12.519551)
(139.53719 5.8809447e-16 -11.892387)
(139.68824 -4.4723405e-16 -11.281437)
(139.86251 6.3789356e-16 -10.688432)
(140.05814 0 -10.11487)
(140.27322 0 -9.5620189)
(140.50575 3.661951e-16 -9.0309032)
(140.75373 -1.7435759e-16 -8.5223188)
(141.01519 -8.2893247e-16 -8.0368358)
(141.28818 -1.576478e-16 -7.5748107)
(141.57084 1.0514029e-15 -7.1364036)
(141.86139 2.8594195e-16 -6.7215948)
(142.15818 -1.0886899e-15 -6.3302014)
(142.45966 0 -5.9618972)
(142.7644 -7.3977642e-16 -5.6162309)
(143.07113 4.6982215e-16 -5.2926435)
(143.37869 2.2371003e-16 -4.9904863)
(143.68607 4.2562469e-16 -4.7090354)
(143.99238 -8.1106263e-16 -4.4475061)
(144.29683 7.7213997e-16 -4.2050656)
(144.59878 -1.1034526e-15 -3.9808436)
(144.89767 3.5025888e-16 -3.7739422)
(145.19301 3.3352768e-16 -3.583443)
(145.48441 0 -3.4084199)
(145.77158 0 -3.2479407)
(146.05427 5.7591072e-16 -3.1010678)
(146.33224 5.4833388e-16 -2.9668487)
(146.60525 -5.2253003e-16 -2.8443456)
(146.8731 4.9703899e-16 -2.7326197)
(147.13565 -4.7349303e-16 -2.6307434)
(147.39272 4.5062868e-16 -2.5377881)
(147.64416 -1.2877769e-15 -2.4528273)
(147.88974 -8.1708348e-16 -2.3749311)
(148.12906 1.1670104e-15 -2.3031637)
(148.36144 3.7020932e-16 -2.2365812)
(148.5858 0 -2.174233)
(148.80057 6.7064258e-16 -2.1151294)
(149.00381 -6.3844387e-16 -2.0582566)
(149.19308 0 -2.0027339)
(149.36635 -5.781272e-16 -1.9470312)
(149.5221 -5.5011969e-16 -1.8899443)
(149.65475 0 -1.833847)
(149.76945 0 -1.761323)
(149.85462 0 -1.6908321)
(149.7892 -4.5123322e-16 -1.6942445)
(150.01685 0 -1.2020554)
(149.21474 -7.7516496e-16 -2.4004024)
(139.5962 -4.6842316e-17 -35.640244)
(147.48089 0 -26.988863)
(143.09323 -1.2594581e-15 -33.625721)
(145.14154 1.2597985e-15 -28.120582)
(143.24237 0 -31.481634)
(143.71015 -1.0935588e-15 -28.606186)
(142.77606 9.6867024e-16 -29.87941)
(142.67188 0 -28.441964)
(142.08809 8.6795801e-16 -28.656696)
(141.78257 -9.3036978e-16 -27.837544)
(141.32893 5.1750202e-17 -27.586787)
(140.96391 7.3688038e-16 -26.973389)
(140.56336 -9.2635351e-17 -26.523568)
(140.19557 -6.1651293e-16 -25.9466)
(139.82877 5.8475634e-16 -25.399642)
(139.48247 7.979648e-17 -24.800174)
(139.15063 -5.2530474e-16 -24.191972)
(138.8398 0 -23.55412)
(138.55045 6.7362573e-17 -22.898931)
(138.28585 1.9216113e-16 -22.222564)
(138.04778 -1.2167031e-16 -21.529561)
(137.83849 -2.3041064e-16 -20.820798)
(137.65968 0 -20.099287)
(137.51296 1.0391231e-16 -19.367359)
(137.39953 -9.8262718e-17 -18.62795)
(137.32029 9.327224e-17 -17.883928)
(137.27576 0 -17.138345)
(137.26611 -1.6869558e-16 -16.394244)
(137.29109 -4.8001338e-16 -15.65467)
(137.35013 4.5536659e-16 -14.922592)
(137.44226 -1.4405174e-16 -14.200868)
(137.56623 0 -13.492192)
(137.72046 3.9072449e-16 -12.799061)
(137.90316 -6.1880653e-16 -12.12374)
(138.1123 1.1799467e-16 -11.468242)
(138.3457 -2.237749e-16 -10.834307)