/*--------------------------------*- C++ -*----------------------------------*\
  =========                 |
  \\      /  F ield         | OpenFOAM: The Open Source CFD Toolbox
   \\    /   O peration     | Website:  https://openfoam.org
    \\  /    A nd           | Version:  6
     \\/     M anipulation  |
\*---------------------------------------------------------------------------*/
FoamFile
{
    version     2.0;
    format      ascii;
    class       volScalarField;
    location    "600";
    object      alphat;
}
// * * * * * * * * * * * * * * * * * * * * * * * * * * * * * * * * * * * * * //

dimensions      [1 -1 -1 0 0 0 0];

internalField   nonuniform List<scalar> 
16000
(
5.8137765e-06
2.4596836e-05
2.7094042e-05
3.8303935e-05
3.2876066e-05
4.2225051e-05
4.1426822e-05
4.6767128e-05
4.8079657e-05
4.8247909e-05
4.8951205e-05
4.7423634e-05
4.7575065e-05
4.6344261e-05
4.635348e-05
4.5783198e-05
4.5984557e-05
4.603295e-05
4.6523086e-05
4.7060487e-05
4.7893198e-05
4.8870937e-05
5.0096991e-05
5.1527183e-05
5.3214617e-05
5.5163613e-05
5.7417136e-05
6.0007087e-05
6.2985339e-05
6.6408762e-05
7.0351392e-05
7.4902274e-05
8.0171839e-05
8.629474e-05
9.3436698e-05
0.00010180119
0.00011163851
0.00012325664
0.00013703466
0.00015343848
0.0001730411
0.00019654954
0.00022483318
0.00025895958
0.00030023791
0.00035026943
0.00041100242
0.00048479471
0.00057447826
0.00068342144
0.00081558239
0.0009755639
0.0011687155
0.0012234447
0.0012246994
0.0012249132
0.0012243814
0.0012234334
0.0012222766
0.0012209134
0.0012192348
0.0012172341
0.0012148661
0.0012120494
0.0012087361
0.0012049958
0.0012010217
0.0011971944
0.0011936498
0.0011905996
0.0011876864
0.0011855159
0.0011829546
0.0011817348
0.0011791538
0.0011803129
0.0011768354
0.0011839361
0.0011739338
0.0011830699
4.8509924e-06
2.4336728e-05
2.4836483e-05
3.5037622e-05
3.0343427e-05
3.8092031e-05
3.8151472e-05
4.1844694e-05
4.3910313e-05
4.3066716e-05
4.4217887e-05
4.2283887e-05
4.2620647e-05
4.1244309e-05
4.1346487e-05
4.0771681e-05
4.0981589e-05
4.1005307e-05
4.1451154e-05
4.1926027e-05
4.2670821e-05
4.354238e-05
4.4635961e-05
4.5910993e-05
4.7414426e-05
4.9150279e-05
5.1156035e-05
5.3460151e-05
5.6107997e-05
5.9149744e-05
6.2650244e-05
6.6687687e-05
7.1359016e-05
7.6782323e-05
8.3103016e-05
9.0499384e-05
9.9190311e-05
0.00010944464
0.00012159301
0.00013604163
0.00015328859
0.00017394747
0.00019877178
0.00022868532
0.00026481927
0.00030855672
0.000361581
0.00042593231
0.00050406977
0.00059893536
0.00071401936
0.00085342282
0.0010219548
0.0012222747
0.0012237523
0.0012241027
0.0012236161
0.0012226583
0.0012214908
0.0012201809
0.0012186845
0.0012168465
0.0012146353
0.0012119612
0.0012087635
0.0012050771
0.0012011018
0.0011972131
0.001193648
0.0011905178
0.001187648
0.0011853296
0.0011829624
0.0011816066
0.0011792246
0.0011796669
0.0011767392
0.0011828323
0.0011739698
0.0011827772
4.1493642e-06
2.4078169e-05
2.3044443e-05
3.2239206e-05
2.8340441e-05
3.4568538e-05
3.5669655e-05
3.7489095e-05
4.0348129e-05
3.8318073e-05
3.9875009e-05
3.7522103e-05
3.8017405e-05
3.6596915e-05
3.6774473e-05
3.6217499e-05
3.6434824e-05
3.6452839e-05
3.6864746e-05
3.7297155e-05
3.7972893e-05
3.8762807e-05
3.9750819e-05
4.0902444e-05
4.2257948e-05
4.3822333e-05
4.5628177e-05
4.7701587e-05
5.0082683e-05
5.2816448e-05
5.5960532e-05
5.9584671e-05
6.3775145e-05
6.8637014e-05
7.429956e-05
8.0921327e-05
8.869684e-05
9.7864729e-05
0.00010871778
0.0001216153
0.00013699734
0.00015540509
0.00017750182
0.00020409941
0.00023619026
0.00027498632
0.00032196174
0.00037890295
0.00044796619
0.00053173848
0.0006333045
0.00075631477
0.00090507137
0.0010846574
0.0012228332
0.0012233347
0.0012229
0.0012219264
0.0012207268
0.0012193958
0.0012179137
0.0012162324
0.001214212
0.0012117137
0.0012086633
0.0012050651
0.0012011064
0.0011971787
0.0011935873
0.0011904119
0.0011875559
0.001185161
0.0011828954
0.0011814603
0.0011792568
0.0011792303
0.001176701
0.0011818608
0.0011739575
0.0011819093
3.6931766e-06
2.3735908e-05
2.1527753e-05
2.9621573e-05
2.6459269e-05
3.134602e-05
3.3264776e-05
3.3583666e-05
3.6890143e-05
3.4070367e-05
3.5788296e-05
3.32521e-05
3.3821086e-05
3.2472531e-05
3.2670521e-05
3.2167078e-05
3.2375589e-05
3.2404448e-05
3.2783663e-05
3.3186413e-05
3.3803283e-05
3.4526609e-05
3.5425626e-05
3.6473815e-05
3.7704537e-05
3.9124359e-05
4.0761519e-05
4.2640422e-05
4.4796896e-05
4.7271764e-05
5.0116826e-05
5.3395015e-05
5.7184037e-05
6.1578606e-05
6.669507e-05
7.2676115e-05
7.9696801e-05
8.7971909e-05
9.7764964e-05
0.00010939857
0.00012326704
0.00013985574
0.00015975868
0.00018370184
0.00021257168
0.00024745035
0.0002896535
0.00034077564
0.0004027435
0.00047787369
0.00056893888
0.00067923871
0.00081268116
0.00097389979
0.0011683994
0.0012225944
0.0012222214
0.0012212298
0.0012199898
0.001218624
0.0012171189
0.0012154449
0.0012135443
0.0012112611
0.0012083974
0.0012049266
0.0012010128
0.0011970666
0.0011934578
0.0011902592
0.0011874118
0.0011849745
0.0011827773
0.001181205
0.0011792573
0.0011789604
0.001176678
0.0011808723
0.0011739763
0.0011813864
3.3164236e-06
2.3270589e-05
2.0297919e-05
2.7195824e-05
2.4734581e-05
2.840294e-05
3.1006093e-05
3.004474e-05
3.3568051e-05
3.0209899e-05
3.1937806e-05
2.9435152e-05
2.9995953e-05
2.8771001e-05
2.8960145e-05
2.8528359e-05
2.8722008e-05
2.8770611e-05
2.9121223e-05
2.9503121e-05
3.007072e-05
3.0739247e-05
3.1563362e-05
3.2524395e-05
3.3649432e-05
3.4946625e-05
3.6440572e-05
3.8154273e-05
4.0120053e-05
4.2375318e-05
4.4967044e-05
4.7952545e-05
5.1402519e-05
5.5403119e-05
6.0060152e-05
6.5503466e-05
7.1892238e-05
7.9421635e-05
8.8331544e-05
9.8915708e-05
0.00011153153
0.00012661956
0.00014471908
0.00016648841
0.00019273044
0.00022442581
0.00026276638
0.00030919718
0.00036546629
0.00043367914
0.00051636327
0.00061653946
0.00073780428
0.00088443441
0.0010615352
0.0012218664
0.0012215706
0.001220562
0.0012192761
0.0012178691
0.0012163303
0.0012146361
0.0012127477
0.0012105885
0.0012079557
0.0012046561
0.0012008201
0.001196876
0.0011932613
0.0011900568
0.00118722
0.0011847665
0.0011826165
0.0011809592
0.0011792122
0.001178693
0.0011766648
0.001179989
0.0011740071
0.0011806545
2.9989708e-06
2.062082e-05
1.922938e-05
2.4908334e-05
2.316457e-05
2.5682124e-05
2.8872088e-05
2.6818856e-05
3.038389e-05
2.6741479e-05
2.8356897e-05
2.604255e-05
2.6542234e-05
2.5470489e-05
2.5633561e-05
2.528117e-05
2.5457907e-05
2.5530257e-05
2.5856866e-05
2.6224e-05
2.6751047e-05
2.7374688e-05
2.8136525e-05
2.9024836e-05
3.0061491e-05
3.1255943e-05
3.2629868e-05
3.4205091e-05
3.6011125e-05
3.8082575e-05
4.0462494e-05
4.32036e-05
4.6370883e-05
5.0043548e-05
5.4318853e-05
5.9316156e-05
6.5181925e-05
7.209557e-05
8.027755e-05
8.9998769e-05
0.00010158735
0.0001154478
0.00013207564
0.00015207573
0.00017618434
0.00020530153
0.00024052115
0.00028316932
0.0003348521
0.00039750591
0.00047346073
0.00056551012
0.00067699333
0.00081189451
0.00097498174
0.0011719593
0.0012209342
0.0012199129
0.001218577
0.0012171239
0.0012155462
0.0012138223
0.001211921
0.00120979
0.0012073223
0.0012042441
0.0012005248
0.0011966047
0.001192998
0.0011898031
0.0011869833
0.0011845334
0.0011824207
0.0011807155
0.0011791221
0.0011784241
0.0011766571
0.0011792678
0.0011740564
0.0011801438
2.7082586e-06
1.9057834e-05
1.8015055e-05
2.2744444e-05
2.1744375e-05
2.317636e-05
2.6841139e-05
2.3878763e-05
2.7341204e-05
2.3679783e-05
2.5098047e-05
2.3031834e-05
2.3439621e-05
2.2530467e-05
2.2659115e-05
2.2384706e-05
2.254481e-05
2.2640567e-05
2.2947235e-05
2.3303e-05
2.3796441e-05
2.4382573e-05
2.5092263e-05
2.5919362e-05
2.6881675e-05
2.7989541e-05
2.9262365e-05
3.0720935e-05
3.2392477e-05
3.4309313e-05
3.6511259e-05
3.9047204e-05
4.1977512e-05
4.5375659e-05
4.9331886e-05
5.395705e-05
5.9387204e-05
6.5788985e-05
7.3367071e-05
8.2373939e-05
9.3114062e-05
0.00010596303
0.00012138105
0.00013993025
0.0001622935
0.00018930634
0.0002219845
0.00026155899
0.0003095224
0.00036767584
0.00043819008
0.0005236745
0.00062725777
0.0007526857
0.00090444801
0.0010879383
0.0012202983
0.001219273
0.0012178842
0.001216382
0.0012147617
0.0012130036
0.0012110802
0.0012089497
0.0012065374
0.0012036809
0.0012001242
0.0011962517
0.001192668
0.0011894973
0.0011867036
0.0011842727
0.0011821928
0.0011804716
0.0011789914
0.0011781413
0.0011766471
0.0011786348
0.0011741087
0.0011796384
2.4492385e-06
1.8523888e-05
1.6793301e-05
2.0711124e-05
2.0441615e-05
2.0852213e-05
2.4849254e-05
2.1247468e-05
2.4409597e-05
2.0961063e-05
2.2135183e-05
2.0349434e-05
2.0654693e-05
1.9906089e-05
2.0000872e-05
1.9799482e-05
1.9946493e-05
2.0064476e-05
2.0356134e-05
2.0703531e-05
2.1170116e-05
2.1725495e-05
2.2392313e-05
2.3168614e-05
2.4069127e-05
2.5104833e-05
2.6293347e-05
2.7654537e-05
2.9213824e-05
3.1001617e-05
3.3055168e-05
3.5420131e-05
3.8153144e-05
4.1323011e-05
4.5014218e-05
4.9330734e-05
5.4400161e-05
6.0378795e-05
6.7458385e-05
7.5876839e-05
8.5919345e-05
9.7938236e-05
0.00011236529
0.00012972831
0.0001506671
0.00017596518
0.0002065756
0.00024365267
0.00028859761
0.00034310193
0.00040920719
0.00048937207
0.00058655172
0.00070429409
0.00084685892
0.001019376
0.0012196463
0.0012186315
0.0012171886
0.0012156356
0.0012139708
0.001212176
0.0012102264
0.0012080863
0.0012056987
0.0012029563
0.0011996171
0.0011958181
0.001192273
0.0011891407
0.001186384
0.0011839853
0.0011819381
0.0011802254
0.0011788284
0.0011778516
0.0011766293
0.0011780457
0.0011741672
0.0011792155
2.2262497e-06
1.7936978e-05
1.5672662e-05
1.8784307e-05
1.9227204e-05
1.8662389e-05
2.284496e-05
1.8889039e-05
2.16186e-05
1.8528819e-05
1.9446419e-05
1.794843e-05
1.8156143e-05
1.7557728e-05
1.7624954e-05
1.7489563e-05
1.7628687e-05
1.7767217e-05
1.8048886e-05
1.8390561e-05
1.8836367e-05
1.9367006e-05
1.9999067e-05
2.0733689e-05
2.1583355e-05
2.2559362e-05
2.3678055e-05
2.4958444e-05
2.6424529e-05
2.8105162e-05
3.0035496e-05
3.2258546e-05
3.4827896e-05
3.7808563e-05
4.128039e-05
4.5341681e-05
5.0113273e-05
5.5743193e-05
6.2412295e-05
7.0347401e-05
7.9817938e-05
9.1157455e-05
0.00010477466
0.00012117025
0.00014094896
0.00016485247
0.00019378358
0.00022883451
0.00027133304
0.00032288218
0.00038541865
0.00046127835
0.00055327424
0.00066479091
0.00079990034
0.00096351327
0.0011615429
0.0012179779
0.0012164813
0.0012148769
0.0012131672
0.0012113349
0.0012093572
0.0012072029
0.0012048253
0.0012021454
0.001199003
0.0011953064
0.0011918156
0.0011887355
0.0011860276
0.0011836727
0.0011816622
0.0011799766
0.0011786414
0.0011775932
0.0011766015
0.0011775061
0.0011742404
0.0011787991
2.0326816e-06
1.7275904e-05
1.4622325e-05
1.6938857e-05
1.8083835e-05
1.6681112e-05
2.0805654e-05
1.6766695e-05
1.9021346e-05
1.6346392e-05
1.7020346e-05
1.5796659e-05
1.5920899e-05
1.5456415e-05
1.5504808e-05
1.5427171e-05
1.5563764e-05
1.5720961e-05
1.5997143e-05
1.6335417e-05
1.676585e-05
1.7277102e-05
1.7881608e-05
1.8582609e-05
1.939108e-05
2.0318404e-05
2.1379988e-05
2.2594105e-05
2.3983621e-05
2.5576151e-05
2.7405165e-05
2.9511486e-05
3.1946263e-05
3.4771475e-05
3.8063216e-05
4.1915193e-05
4.6442904e-05
5.178789e-05
5.8121599e-05
6.5662951e-05
7.4668428e-05
8.5456423e-05
9.8416903e-05
0.00011402971
0.0001328709
0.00015564834
0.00018322496
0.0002166427
0.00025717058
0.0003063402
0.00036600354
0.00043839685
0.000526217
0.00063271438
0.00076180661
0.00091822323
0.0011076713
0.0012173017
0.0012157535
0.0012140986
0.0012123447
0.0012104755
0.0012084698
0.0012062996
0.0012039254
0.0012012868
0.0011982817
0.0011947208
0.0011912996
0.0011882853
0.0011856381
0.0011833376
0.0011813704
0.001179726
0.0011784375
0.001177364
0.001176563
0.001177028
0.0011743323
0.0011783982
1.8646741e-06
1.6508269e-05
1.3646208e-05
1.5162422e-05
1.6984053e-05
1.4885648e-05
1.8720886e-05
1.4851314e-05
1.6629736e-05
1.4384655e-05
1.4843498e-05
1.386742e-05
1.3926657e-05
1.3577411e-05
1.361622e-05
1.3588129e-05
1.3727096e-05
1.3901236e-05
1.4116329e-05
1.4443739e-05
1.4856277e-05
1.5347057e-05
1.5925044e-05
1.6594347e-05
1.7364523e-05
1.8246662e-05
1.9255212e-05
2.0407587e-05
2.1725509e-05
2.3235409e-05
2.4969235e-05
2.696568e-05
2.9273718e-05
3.1952567e-05
3.5074975e-05
3.8730548e-05
4.3030023e-05
4.8109756e-05
5.4493321e-05
6.1717525e-05
7.0349227e-05
8.0694864e-05
9.3128918e-05
0.00010811587
0.00012620832
0.00014808689
0.00017458355
0.00020669943
0.00024565722
0.00029293146
0.00035030622
0.00041993772
0.00050442919
0.00060692239
0.00073120937
0.00088187201
0.001064448
0.0012165928
0.001214997
0.0012132937
0.0012114977
0.0012095934
0.0012075612
0.0012053756
0.0012030021
0.0012003904
0.0011974598
0.0011940671
0.00119073
0.0011877943
0.0011852196
0.0011829832
0.0011810679
0.0011794746
0.0011782234
0.001177161
0.001176513
0.0011766237
0.0011744413
0.0011780294
1.7186666e-06
1.5617641e-05
1.2733277e-05
1.3444107e-05
1.5884642e-05
1.3253987e-05
1.6612383e-05
1.3115972e-05
1.4448673e-05
1.2617527e-05
1.2899002e-05
1.2137494e-05
1.2151669e-05
1.189935e-05
1.1880631e-05
1.1873731e-05
1.2007249e-05
1.2190462e-05
1.2461416e-05
1.2796782e-05
1.3208047e-05
1.3692435e-05
1.4257546e-05
1.4908646e-05
1.5654752e-05
1.6507018e-05
1.7479431e-05
1.8588943e-05
1.9856561e-05
2.1307975e-05
2.2974232e-05
2.4892382e-05
2.7109968e-05
2.9684321e-05
3.2685829e-05
3.6201118e-05
4.0337429e-05
4.5228528e-05
5.1034418e-05
5.7953322e-05
6.6227754e-05
7.6154015e-05
8.8777298e-05
0.00010327334
0.00012077923
0.00014195341
0.00016760503
0.00019870181
0.00023643096
0.00028222206
0.00033780555
0.00040527437
0.00048715753
0.00058651046
0.00070702538
0.00085316668
0.001030337
0.0012158415
0.0012142044
0.001212456
0.001210621
0.0012086847
0.0012066287
0.0012044299
0.0012020579
0.0011994705
0.0011966043
0.0011933526
0.0011901131
0.0011872681
0.0011847768
0.0011826135
0.0011807595
0.001179224
0.0011780058
0.0011769804
0.0011764496
0.0011762961
0.001174563
0.0011777305
1.5924602e-06
1.4598468e-05
1.1884144e-05
1.188551e-05
1.4747994e-05
1.1765617e-05
1.4571182e-05
1.1538989e-05
1.2480208e-05
1.1024488e-05
1.1169904e-05
1.0588413e-05
1.04935e-05
1.0295184e-05
1.0325482e-05
1.0371966e-05
1.0527732e-05
1.0734873e-05
1.10167e-05
1.1359438e-05
1.1771027e-05
1.2251345e-05
1.2807268e-05
1.3444855e-05
1.4172712e-05
1.5002035e-05
1.5946469e-05
1.7022565e-05
1.8250744e-05
1.9656128e-05
2.1269249e-05
2.3125656e-05
2.5271907e-05
2.7763925e-05
3.0670372e-05
3.4075572e-05
3.8083565e-05
4.282636e-05
4.8459705e-05
5.5177371e-05
6.3216383e-05
7.2866846e-05
8.4485732e-05
9.8501603e-05
0.00011544032
0.00013706858
0.00016207809
0.00019239925
0.00022919348
0.00027385585
0.00032807549
0.00039389656
0.00047379075
0.00057074684
0.00068838013
0.00083106551
0.0010041038
0.0012139074
0.0012133697
0.0012115804
0.0012097106
0.0012077462
0.0012056702
0.0012034615
0.001201093
0.0011985292
0.0011957198
0.0011925861
0.001189456
0.0011867125
0.0011843144
0.0011822325
0.001180449
0.0011789757
0.0011777904
0.0011768187
0.0011763701
0.0011760333
0.0011746929
0.0011774836
1.4836846e-06
1.3452301e-05
1.1090891e-05
1.0471584e-05
1.3534393e-05
1.0407006e-05
1.2633122e-05
1.0106207e-05
1.0723384e-05
9.5908793e-06
9.5468909e-06
9.0680811e-06
9.023468e-06
8.9157088e-06
8.9748444e-06
9.0642497e-06
9.2405959e-06
9.46799e-06
9.760503e-06
1.0110556e-05
1.0524113e-05
1.1002696e-05
1.1552849e-05
1.2181231e-05
1.2896099e-05
1.3708678e-05
1.4632379e-05
1.5683418e-05
1.6881717e-05
1.8251928e-05
1.9748327e-05
2.1542841e-05
2.3617539e-05
2.6026961e-05
2.8838179e-05
3.213348e-05
3.6220235e-05
4.0851015e-05
4.6354636e-05
5.2921772e-05
6.0785399e-05
7.022963e-05
8.1607805e-05
9.5339389e-05
0.00011194163
0.00013204665
0.00015641506
0.00018758171
0.0002236953
0.00026753569
0.00032076134
0.00038538039
0.00046382211
0.00055902594
0.00067455062
0.00081470732
0.00098472497
0.0011909379
0.0012124881
0.0012106632
0.0012087636
0.001206776
0.0012046846
0.0012024702
0.0012001085
0.0011975691
0.0011948115
0.0011917775
0.0011887667
0.001186134
0.0011838372
0.0011818445
0.0011801398
0.0011787313
0.0011775816
0.0011766741
0.0011762724
0.0011757792
0.0011748242
0.0011772866
1.3910134e-06
1.2192266e-05
1.0344538e-05
9.1871568e-06
1.2205515e-05
9.1634924e-06
1.082788e-05
8.8027863e-06
9.1698893e-06
8.1597721e-06
8.0958603e-06
7.7740114e-06
7.755943e-06
7.7191648e-06
7.8057805e-06
7.930215e-06
8.1257897e-06
8.3708862e-06
8.6741071e-06
9.0317971e-06
9.4489684e-06
9.928109e-06
1.0475627e-05
1.1072178e-05
1.1771983e-05
1.2566177e-05
1.3467697e-05
1.4492208e-05
1.5658918e-05
1.6991581e-05
1.8519161e-05
2.0277232e-05
2.230955e-05
2.4670013e-05
2.7425028e-05
3.0656456e-05
3.4465156e-05
3.8975378e-05
4.4340024e-05
5.0747062e-05
5.8426138e-05
6.8168742e-05
7.938116e-05
9.2917659e-05
0.00010928767
0.00012911843
0.00015316013
0.00018233123
0.00021972072
0.0002630051
0.00031555753
0.00037936138
0.00045681677
0.00055082929
0.00066491904
0.00080335558
0.00097132162
0.001175103
0.0012115569
0.0012097023
0.0012077784
0.0012057731
0.0012036717
0.0012014565
0.0011991058
0.0011965931
0.001193885
0.0011909374
0.001188054
0.0011855392
0.00118335
0.0011814532
0.0011798341
0.0011784924
0.0011773838
0.001176543
0.0011761612
0.0011755696
0.0011749457
0.001177113
1.3141116e-06
1.0832124e-05
9.6368871e-06
8.0206795e-06
1.0804359e-05
8.0234512e-06
9.1879605e-06
7.5574126e-06
7.6049221e-06
6.9186443e-06
6.857718e-06
6.6561714e-06
6.6667228e-06
6.6859292e-06
6.7985655e-06
6.952242e-06
7.1659229e-06
7.427039e-06
7.7411761e-06
8.1070682e-06
8.5096113e-06
8.986045e-06
9.5285629e-06
1.0143818e-05
1.0840347e-05
1.1628569e-05
1.2521398e-05
1.3534383e-05
1.4686434e-05
1.6001121e-05
1.7507133e-05
1.9239737e-05
2.1242362e-05
2.3568544e-05
2.6284294e-05
2.9471003e-05
3.3228929e-05
3.7681516e-05
4.2980688e-05
4.9313624e-05
5.6910341e-05
6.6048845e-05
7.7069488e-05
9.038448e-05
0.00010737815
0.00012704565
0.00015089111
0.00017983066
0.00021496234
0.00026003542
0.00031219168
0.00037551476
0.00045238765
0.0005456959
0.000658937
0.00079635825
0.00096311979
0.0011654868
0.0012105751
0.0012086971
0.0012067551
0.001204738
0.0012026323
0.0012004219
0.0011980873
0.0011956051
0.0011929465
0.0011900768
0.0011873264
0.0011849344
0.0011828573
0.0011810614
0.0011795327
0.0011782598
0.0011772001
0.0011764246
0.0011760377
0.0011753944
0.0011750419
0.0011769435
1.2540799e-06
9.3839717e-06
8.9461587e-06
6.959866e-06
9.3623288e-06
6.9597656e-06
8.0953215e-06
6.3514092e-06
6.3121694e-06
5.8496114e-06
5.8047899e-06
5.6944962e-06
5.7345869e-06
5.7989087e-06
5.9360878e-06
6.1149089e-06
6.3458521e-06
6.6219371e-06
6.9289394e-06
7.2992651e-06
7.7239192e-06
8.2067393e-06
8.7533213e-06
9.3705675e-06
1.0067091e-05
1.0853289e-05
1.1742078e-05
1.2748999e-05
1.3892641e-05
1.5196525e-05
1.6689205e-05
1.8405819e-05
2.0389702e-05
2.2694317e-05
2.5385636e-05
2.854503e-05
3.2272712e-05
3.6691891e-05
4.1954011e-05
4.8245546e-05
5.5797671e-05
6.4887252e-05
7.5855398e-05
8.9113987e-05
0.00010516411
0.00012461488
0.00014947908
0.00017832083
0.00021333878
0.00025585788
0.00031040899
0.00037353665
0.00045017232
0.00054319425
0.00065609081
0.00079310464
0.00095939415
0.0011612293
0.0012095437
0.001207649
0.0012056954
0.0012036725
0.0012015683
0.0011993684
0.0011970555
0.0011946086
0.0011920022
0.0011892068
0.0011865925
0.0011843255
0.0011823627
0.0011806712
0.001179235
0.0011780322
0.0011770302
0.0011763166
0.0011759054
0.0011752417
0.0011751135
0.0011767743
1.2157981e-06
7.8715033e-06
8.2370257e-06
6.004631e-06
7.9467113e-06
6.4476903e-06
6.5440209e-06
5.2827766e-06
5.2389422e-06
4.9302192e-06
4.9119927e-06
4.8728958e-06
4.9421225e-06
5.0438876e-06
5.2041789e-06
5.4051529e-06
5.6366779e-06
5.9229946e-06
6.2564586e-06
6.6383875e-06
7.0723146e-06
7.5625949e-06
8.1150072e-06
8.7366041e-06
9.4360845e-06
1.0223736e-05
1.1112504e-05
1.2091516e-05
1.3224505e-05
1.4514547e-05
1.5989856e-05
1.7685247e-05
1.9643756e-05
2.1918577e-05
2.4575473e-05
2.7695638e-05
3.1379126e-05
3.5748895e-05
4.0955723e-05
4.7495825e-05
5.5036845e-05
6.4116442e-05
7.5078668e-05
8.8335231e-05
0.00010438713
0.0001238445
0.00014744751
0.00017765244
0.00021269025
0.00025523763
0.0003068951
0.00037312605
0.00044981115
0.00054289623
0.00065587058
0.00079298757
0.00095942224
0.0011614716
0.0012084662
0.0012065616
0.0012046027
0.0012025801
0.0012004832
0.0011982994
0.0011960136
0.0011936074
0.0011910579
0.0011883379
0.0011858604
0.0011837181
0.0011818694
0.0011802829
0.0011789389
0.0011778075
0.0011768706
0.001176213
0.0011757683
0.0011751173
0.0011751685
0.0011765869
1.2025782e-06
7.1046405e-06
7.5104302e-06
6.017249e-06
7.5642179e-06
5.035424e-06
5.044234e-06
4.3847197e-06
4.3395047e-06
4.1529018e-06
4.1614185e-06
4.1793254e-06
4.2761514e-06
4.4092505e-06
4.5788442e-06
4.7948253e-06
5.0548425e-06
5.3571719e-06
5.7038172e-06
6.0970712e-06
6.5407646e-06
7.039597e-06
7.5994783e-06
8.227517e-06
8.9190087e-06
9.7067773e-06
1.05936e-05
1.1594664e-05
1.2728592e-05
1.4018297e-05
1.5492063e-05
1.7184849e-05
1.9139937e-05
2.1410884e-05
2.4063963e-05
2.718103e-05
3.0862991e-05
3.5233964e-05
4.0446422e-05
4.6687046e-05
5.418348e-05
6.3675322e-05
7.4669261e-05
8.7969149e-05
0.00010407652
0.00012360361
0.00014729327
0.00017604671
0.00021283388
0.00025553882
0.00030738424
0.00037032899
0.00045092979
0.00054435562
0.00065774402
0.00079537182
0.00096244639
0.0011653096
0.0012073481
0.0012054404
0.0012034825
0.0012014662
0.001199382
0.0011972191
0.0011949651
0.0011926044
0.0011901178
0.0011874794
0.0011851372
0.001183117
0.0011813796
0.0011798955
0.001178641
0.0011775818
0.0011767128
0.0011761014
0.001175629
0.0011750254
0.001175186
0.0011763686
1.2120242e-06
7.298418e-06
6.7264338e-06
6.5634789e-06
6.6014172e-06
4.0114685e-06
4.0930294e-06
3.6255893e-06
3.5938814e-06
3.5016934e-06
3.5384409e-06
3.6016785e-06
3.7244294e-06
3.8714602e-06
4.0688431e-06
4.3054275e-06
4.5820083e-06
4.8986838e-06
5.2578325e-06
5.6623873e-06
6.1164193e-06
6.6248438e-06
7.185575e-06
7.8190076e-06
8.5280269e-06
9.3228273e-06
1.021581e-05
1.1222143e-05
1.2360458e-05
1.3653742e-05
1.5130435e-05
1.6825764e-05
1.8783386e-05
2.1057388e-05
2.3714729e-05
2.6838125e-05
3.0529497e-05
3.4914267e-05
4.0146445e-05
4.6414281e-05
5.3947587e-05
6.3027251e-05
7.4553004e-05
8.792976e-05
0.00010413229
0.00012377592
0.00014760703
0.00017653083
0.0002135714
0.00025652717
0.00030867194
0.00037197456
0.00045312054
0.00054708516
0.00066112897
0.00079956134
0.00096763365
0.0011717465
0.0012061966
0.0012042925
0.001202342
0.0012003377
0.0011982712
0.0011961333
0.0011939139
0.0011916012
0.0011891817
0.0011866386
0.0011844284
0.0011825259
0.0011808949
0.0011795077
0.0011783376
0.0011773499
0.0011765464
0.0011759739
0.0011754976
0.0011749534
0.0011751431
0.0011761009
1.017511e-06
7.7397655e-06
5.855189e-06
4.3405767e-06
4.2606336e-06
3.330779e-06
3.270266e-06
3.0112485e-06
2.986842e-06
2.9651141e-06
3.0297067e-06
3.1284309e-06
3.2638906e-06
3.4420451e-06
3.6596822e-06
3.9136078e-06
4.2049225e-06
4.5348724e-06
4.9061804e-06
5.3221801e-06
5.7870988e-06
6.3002465e-06
6.8769232e-06
7.5202124e-06
8.2385111e-06
9.0419707e-06
9.9429527e-06
1.0956618e-05
1.2101651e-05
1.3401168e-05
1.4883833e-05
1.6585226e-05
1.8549488e-05
2.0831352e-05
2.3498587e-05
2.663486e-05
3.0343291e-05
3.4750845e-05
4.001324e-05
4.6319956e-05
5.3902539e-05
6.3512709e-05
7.4649003e-05
8.8122682e-05
0.00010444395
0.00012423206
0.00014823788
0.00017737196
0.00021467968
0.00025793808
0.00031044524
0.00037418278
0.00045592157
0.0005505327
0.00066536441
0.00080476435
0.00097403473
0.001179643
0.0012050204
0.0012031265
0.0012011897
0.001199203
0.0011971591
0.0011950499
0.0011928666
0.0011905996
0.0011882385
0.0011858209
0.0011837376
0.0011819476
0.0011804169
0.0011791191
0.001178026
0.0011771057
0.0011763651
0.0011758299
0.0011753519
0.0011748317
0.0011750291
0.0011757705
7.9411107e-07
6.1945745e-06
4.6042924e-06
3.2304784e-06
3.3053773e-06
2.6992214e-06
2.6359176e-06
2.490526e-06
2.4961059e-06
2.524861e-06
2.6179702e-06
2.7382369e-06
2.9025544e-06
3.1022827e-06
3.3371961e-06
3.6062852e-06
3.9111063e-06
4.2536425e-06
4.6368775e-06
5.0643783e-06
5.5371229e-06
6.0654188e-06
6.6529306e-06
7.3066331e-06
8.0348684e-06
8.8477371e-06
9.7575747e-06
1.0779555e-05
1.1932445e-05
1.3239533e-05
1.4729761e-05
1.6439106e-05
1.8412257e-05
2.0704652e-05
2.338488e-05
2.6537567e-05
3.0267063e-05
3.4701968e-05
4.0000136e-05
4.6351928e-05
5.4363831e-05
6.3650054e-05
7.4869488e-05
8.8444973e-05
0.00010489023
0.00012482854
0.00014901575
0.00017836776
0.00021590924
0.00025947412
0.00031234903
0.00037652915
0.00045881147
0.00055407374
0.00066970138
0.00081008147
0.00098056839
0.0011876977
0.0012038296
0.0012019521
0.001200035
0.0011980719
0.0011960561
0.0011939804
0.0011918368
0.001189617
0.0011873118
0.0011850292
0.0011830658
0.0011813821
0.0011799457
0.00117873
0.001177706
0.0011768467
0.001176162
0.0011756561
0.0011751813
0.0011747038
0.0011748739
0.0011753858
6.198615e-07
3.4209968e-06
3.6564724e-06
2.6279042e-06
2.5518527e-06
2.1831286e-06
2.1361897e-06
2.0714996e-06
2.1069448e-06
2.175406e-06
2.2937303e-06
2.4387643e-06
2.6237338e-06
2.8409824e-06
3.0906672e-06
3.3731811e-06
3.6904582e-06
4.0449148e-06
4.4396743e-06
4.8783939e-06
5.3653777e-06
5.9026146e-06
6.5007897e-06
7.1647568e-06
7.9028012e-06
8.7249807e-06
9.6436188e-06
1.0673925e-05
1.1834768e-05
1.3149625e-05
1.4647726e-05
1.6365465e-05
1.8348084e-05
2.0651714e-05
2.3345713e-05
2.6515594e-05
3.0266674e-05
3.4918442e-05
4.0291501e-05
4.6734387e-05
5.448443e-05
6.3831004e-05
7.5124697e-05
8.8790438e-05
0.00010534471
0.0001254142
0.00014975983
0.00018087574
0.00021698748
0.000260808
0.00031398993
0.00037854074
0.00046120426
0.00055700335
0.00067329113
0.00081448966
0.00098599991
0.0011944185
0.0012026349
0.0012007798
0.0011988882
0.0011969542
0.0011949719
0.0011929348
0.001190836
0.0011886681
0.0011864233
0.0011842646
0.0011824115
0.001180826
0.0011794768
0.0011783368
0.0011773766
0.0011765742
0.0011759383
0.0011754545
0.0011749943
0.0011745795
0.0011747141
0.001175041
5.0165473e-07
2.594724e-06
2.7999637e-06
2.0757862e-06
1.9881659e-06
1.7735386e-06
1.748569e-06
1.7415544e-06
1.8052928e-06
1.9052395e-06
2.0457213e-06
2.2133845e-06
2.4153096e-06
2.6472808e-06
2.9099664e-06
3.2045856e-06
3.5333188e-06
3.8988011e-06
4.3042104e-06
4.7532227e-06
5.2501054e-06
5.7998182e-06
6.4081871e-06
7.0821409e-06
7.8300201e-06
8.6619765e-06
9.5904797e-06
1.0630954e-05
1.1802562e-05
1.3129169e-05
1.4640506e-05
1.637359e-05
1.8374444e-05
2.0700093e-05
2.3420969e-05
2.6623976e-05
3.0416124e-05
3.4928504e-05
4.0320747e-05
4.6787895e-05
5.4568783e-05
6.3953964e-05
7.5295765e-05
8.9019475e-05
0.00010564239
0.00012685428
0.00015147382
0.00018133447
0.00021756112
0.00026151834
0.00031486393
0.00038319759
0.00046235764
0.00055843462
0.0006750732
0.00081671956
0.00098880785
0.0011979788
0.0012014467
0.0011996194
0.0011977584
0.0011958585
0.0011939143
0.0011919201
0.00118987
0.0011877576
0.0011855761
0.001183527
0.0011817717
0.0011802734
0.0011790017
0.0011779288
0.0011770262
0.0011762762
0.0011756822
0.001175217
0.0011747787
0.0011744236
0.0011745138
0.0011746859
3.8665042e-07
2.0212862e-06
2.1016993e-06
1.6476728e-06
1.5582539e-06
1.4463299e-06
1.4458838e-06
1.4817076e-06
1.5710134e-06
1.6959024e-06
1.8547208e-06
2.0409393e-06
2.2561013e-06
2.4997244e-06
2.7728943e-06
3.077294e-06
3.4152396e-06
3.789469e-06
4.2031727e-06
4.6600203e-06
5.1642549e-06
5.7208019e-06
6.335427e-06
7.0149861e-06
7.7677489e-06
8.6037992e-06
9.5355544e-06
1.0578406e-05
1.1751519e-05
1.3078786e-05
1.4590017e-05
1.6322357e-05
1.8321976e-05
2.0646057e-05
2.3365306e-05
2.6567158e-05
3.0358758e-05
3.4871035e-05
4.0263541e-05
4.6731757e-05
5.4514351e-05
6.4372016e-05
7.5801738e-05
8.962725e-05
0.00010636771
0.00012665294
0.00015124677
0.00018107585
0.00021726499
0.00026117591
0.00031733226
0.00038246685
0.00046151312
0.00055746479
0.00067397039
0.00081548317
0.00098744826
0.0011965233
0.001200278
0.001198483
0.0011966569
0.001194795
0.0011928925
0.0011909444
0.0011889455
0.0011868903
0.0011847732
0.0011828171
0.0011811446
0.0011797202
0.0011785138
0.0011774974
0.0011766444
0.0011759395
0.0011753798
0.0011749311
0.0011745194
0.0011742139
0.0011742554
0.0011743069
2.464578e-07
1.5953759e-06
1.5349524e-06
1.3198385e-06
1.2387557e-06
1.1961309e-06
1.2230099e-06
1.293526e-06
1.407028e-06
1.5532749e-06
1.728534e-06
1.9300988e-06
2.1578957e-06
2.4126938e-06
2.6960556e-06
3.0093846e-06
3.3561515e-06
3.7386867e-06
4.1601865e-06
4.6243337e-06
5.1354003e-06
5.6983117e-06
6.3187477e-06
7.0034865e-06
7.760726e-06
8.6004632e-06
9.5350428e-06
1.0579783e-05
1.1753779e-05
1.3080872e-05
1.4590822e-05
1.6320721e-05
1.8316617e-05
2.0635486e-05
2.3436153e-05
2.6650913e-05
3.0457324e-05
3.4986125e-05
4.0397222e-05
4.6886727e-05
5.4693107e-05
6.4105062e-05
7.5473265e-05
8.9223667e-05
0.00010587107
0.00012604077
0.00015049098
0.0001817498
0.0002179811
0.00026192674
0.00031524068
0.0003799336
0.00045845212
0.00055377607
0.00066953874
0.00081017652
0.00098111632
0.0011889952
0.0011991372
0.0011973784
0.0011955906
0.0011937698
0.0011919117
0.0011900117
0.0011880653
0.0011860678
0.001184014
0.001182132
0.0011805253
0.0011791595
0.0011780046
0.0011770327
0.0011762193
0.00117555
0.0011750161
0.0011745814
0.0011741964
0.0011739283
0.0011739204
0.0011738773
3.3112285e-07
1.2832404e-06
1.1271471e-06
1.058749e-06
1.013626e-06
1.0122719e-06
1.0620834e-06
1.1552062e-06
1.2838606e-06
1.4413708e-06
1.6242415e-06
1.8313877e-06
2.0631886e-06
2.3208198e-06
2.6059964e-06
2.9208161e-06
3.2677493e-06
3.6496446e-06
4.0697641e-06
4.5318401e-06
5.0400984e-06
5.5992757e-06
6.2144215e-06
6.8924967e-06
7.6416495e-06
8.4718399e-06
9.3953195e-06
1.0427289e-05
1.1586681e-05
1.2897138e-05
1.4388175e-05
1.6096552e-05
1.8067889e-05
2.0358681e-05
2.3038779e-05
2.6193967e-05
2.9929228e-05
3.4372899e-05
3.9682558e-05
4.6050884e-05
5.3711356e-05
6.294715e-05
7.4677594e-05
8.8274843e-05
0.00010473391
0.00012467275
0.00014884109
0.00017814884
0.00021370074
0.00025683888
0.00030919471
0.00037275304
0.0004499305
0.00054367226
0.0006575714
0.00079601777
0.00096438338
0.001169241
0.0011980198
0.0011963024
0.0011945577
0.001192782
0.0011909715
0.0011891222
0.0011872302
0.0011852915
0.0011833019
0.0011814721
0.0011799121
0.0011785875
0.0011774684
0.0011765271
0.0011757408
0.001175095
0.0011745758
0.0011741488
0.001173785