/*--------------------------------*- C++ -*----------------------------------*\
  =========                 |
  \\      /  F ield         | OpenFOAM: The Open Source CFD Toolbox
   \\    /   O peration     | Website:  https://openfoam.org
    \\  /    A nd           | Version:  6
     \\/     M anipulation  |
\*---------------------------------------------------------------------------*/
FoamFile
{
    version     2.0;
    format      ascii;
    class       volScalarField;
    location    "600";
    object      k;
}
// * * * * * * * * * * * * * * * * * * * * * * * * * * * * * * * * * * * * * //

dimensions      [0 2 -2 0 0 0 0];

internalField   nonuniform List<scalar> 
16000
(
0.12451481
0.031750038
0.02143519
0.017631877
0.015214555
0.014318215
0.013308328
0.012968897
0.012502891
0.01228345
0.012030683
0.011864507
0.011704532
0.011578024
0.011465278
0.011372583
0.011295061
0.011229809
0.011174232
0.011126568
0.011085357
0.011049503
0.011018109
0.010990471
0.010966016
0.010944277
0.010924867
0.010907465
0.010891802
0.010877649
0.010864812
0.010853123
0.010842437
0.010832624
0.010823568
0.010815163
0.010807312
0.010799922
0.010792908
0.010786187
0.01077968
0.010773312
0.01076701
0.010760703
0.010754321
0.010747793
0.010741052
0.010734029
0.010726654
0.010718856
0.010710566
0.010701709
0.010692209
0.010681982
0.010670932
0.010658927
0.010645795
0.010631299
0.010615038
0.010595944
0.010572294
0.010543989
0.010510357
0.010470143
0.0104227
0.01036906
0.010312427
0.010258307
0.010209409
0.0101678
0.010130179
0.010101964
0.010072627
0.010056838
0.010034544
0.010047826
0.010029739
0.010112888
0.010032906
0.01011365
0.10564884
0.032259439
0.020916427
0.017505511
0.015024177
0.014237283
0.01320719
0.012899312
0.012429486
0.012216464
0.011965796
0.011800101
0.011643268
0.011516788
0.011411256
0.01132463
0.011252175
0.011191199
0.011139268
0.011094734
0.011056231
0.011022731
0.010993394
0.01096756
0.010944688
0.010924342
0.010906157
0.010889832
0.010875112
0.010861781
0.010849656
0.010838579
0.010828413
0.010819035
0.010810335
0.010802214
0.01079458
0.010787346
0.010780433
0.010773762
0.01076726
0.010760856
0.010754482
0.010748071
0.010741558
0.010734877
0.010727965
0.010720757
0.010713186
0.010705187
0.010696691
0.010687627
0.010677921
0.010667492
0.01065625
0.010644077
0.010630822
0.010616286
0.010600233
0.010582324
0.010561829
0.01053635
0.010505417
0.010467664
0.010422211
0.010369624
0.010313092
0.010258274
0.010209035
0.010166601
0.01012925
0.010099684
0.010072243
0.010056406
0.01003419
0.01004081
0.010025503
0.010100419
0.010031173
0.010112461
0.091532659
0.032724257
0.020378437
0.01735549
0.014827567
0.014140648
0.013102116
0.012819533
0.012352895
0.012142568
0.0118978
0.011730759
0.011579045
0.011458991
0.011360576
0.011279803
0.011212245
0.011155399
0.011106992
0.011065481
0.011029593
0.010998365
0.01097101
0.01094691
0.010925558
0.010906544
0.010889527
0.010874223
0.010860391
0.010847828
0.010836362
0.010825844
0.010816143
0.010807145
0.010798747
0.010790854
0.010783381
0.010776246
0.010769375
0.010762696
0.010756139
0.010749639
0.010743132
0.010736557
0.010729853
0.010722959
0.010715816
0.010708362
0.010700536
0.010692275
0.010683515
0.010674187
0.010664219
0.010653533
0.010642042
0.010629639
0.010616185
0.010601495
0.010585357
0.010567519
0.010547613
0.0105249
0.01049723
0.01046248
0.010419551
0.010368558
0.010312468
0.01025727
0.010207731
0.010164879
0.010127658
0.01009744
0.010070961
0.010055317
0.010033906
0.010036303
0.01002307
0.010089541
0.010029149
0.010103037
0.082161881
0.032939951
0.019841041
0.017181817
0.014629614
0.014026715
0.01299589
0.012727956
0.012273898
0.012060627
0.011826629
0.011657568
0.011516451
0.011404769
0.011313217
0.011238076
0.01117524
0.011122373
0.011077361
0.011038763
0.011005389
0.010976343
0.010950889
0.010928446
0.010908543
0.010890793
0.010874877
0.010860529
0.010847522
0.010835666
0.010824797
0.010814776
0.01080548
0.010796801
0.010788643
0.010780918
0.010773545
0.01076645
0.010759562
0.010752815
0.010746145
0.010739491
0.010732795
0.010726
0.010719049
0.010711888
0.010704461
0.01069671
0.010688579
0.010680007
0.010670935
0.010661295
0.01065102
0.010640033
0.010628249
0.010615569
0.010601864
0.010586962
0.01057066
0.010552729
0.010532879
0.01051066
0.010485189
0.010454076
0.010414308
0.010365531
0.010310343
0.010255073
0.010205413
0.010162407
0.01012534
0.010094795
0.010069056
0.010052148
0.010033498
0.010033864
0.010021202
0.010077558
0.010027446
0.010096769
0.07394408
0.032796024
0.019315464
0.016982857
0.014431645
0.013894638
0.01288892
0.012624061
0.012192442
0.011970357
0.011751944
0.011588813
0.011457885
0.011354226
0.011269277
0.011199551
0.01114126
0.011092222
0.011050476
0.011014675
0.010983716
0.010956759
0.010933119
0.010912254
0.010893722
0.010877163
0.010862277
0.010848814
0.010836562
0.010825343
0.010815002
0.010805408
0.010796448
0.010788019
0.010780031
0.010772404
0.010765063
0.010757939
0.010750966
0.010744085
0.010737236
0.010730365
0.010723417
0.010716341
0.010709086
0.010701601
0.010693834
0.010685733
0.010677245
0.010668313
0.010658879
0.010648882
0.010638254
0.010626922
0.010614803
0.010601802
0.010587801
0.010572638
0.010556117
0.010538024
0.010518096
0.010495971
0.010471062
0.010442202
0.010406295
0.010360425
0.01030667
0.010251647
0.01020207
0.010159155
0.010122341
0.010091765
0.010066631
0.010048982
0.010032577
0.01003122
0.010019809
0.010066568
0.010026081
0.010086935
0.066735979
0.032139123
0.018813905
0.016756917
0.014235426
0.01374326
0.012781847
0.012507072
0.012108427
0.011877555
0.011675622
0.011524576
0.011403421
0.011307438
0.011228828
0.011164296
0.011110369
0.011065002
0.011026388
0.010993264
0.01096461
0.010939642
0.010917724
0.010898349
0.010881104
0.010865652
0.010851714
0.010839056
0.01082748
0.010816817
0.010806925
0.01079768
0.010788975
0.010780717
0.010772823
0.010765217
0.010757832
0.010750604
0.010743475
0.01073639
0.010729294
0.01072214
0.010714878
0.010707462
0.010699845
0.010691981
0.010683823
0.010675323
0.010666431
0.010657094
0.010647257
0.010636861
0.010625841
0.010614127
0.010601638
0.010588282
0.010573946
0.010558482
0.010541702
0.010523398
0.010503329
0.010481172
0.010456454
0.010428384
0.01039534
0.010353156
0.01030144
0.010247004
0.010197732
0.01015513
0.010118688
0.010088322
0.010063726
0.010045695
0.010031084
0.010028294
0.010018629
0.010057582
0.010024822
0.010079829
0.06041582
0.031085246
0.018341395
0.016501763
0.014042826
0.013571569
0.012675214
0.012376477
0.01202104
0.011790733
0.011604528
0.011464967
0.011353155
0.011264507
0.011191965
0.011132405
0.011082655
0.011040798
0.011005173
0.010974601
0.010948137
0.010925051
0.010904754
0.010886771
0.010870717
0.01085628
0.010843199
0.010831254
0.010820262
0.010810066
0.010800531
0.010791544
0.010783006
0.010774831
0.010766943
0.010759273
0.010751761
0.010744349
0.010736986
0.010729622
0.01072221
0.010714705
0.010707066
0.01069925
0.010691216
0.010682921
0.010674323
0.010665378
0.010656039
0.010646257
0.010635978
0.010625148
0.010613703
0.010601575
0.010588685
0.010574944
0.010560244
0.010544448
0.010527375
0.010508825
0.010488573
0.010466321
0.010441659
0.010413957
0.010382091
0.010343604
0.010294635
0.010241148
0.010192414
0.010150339
0.010114415
0.010084457
0.010060379
0.010042311
0.010029028
0.01002486
0.010017469
0.010049664
0.010023551
0.010072209
0.054874545
0.0299958
0.017885525
0.016215791
0.013855684
0.013379107
0.012569402
0.012248757
0.011928439
0.011709956
0.011538717
0.011410066
0.011307166
0.011225515
0.011158768
0.011103955
0.01105819
0.011019679
0.010986895
0.010958741
0.010934342
0.010913023
0.010894233
0.010877533
0.010862565
0.010849038
0.010836708
0.010825372
0.01081486
0.010805026
0.010795746
0.010786914
0.010778443
0.010770252
0.010762273
0.010754447
0.010746718
0.010739038
0.010731359
0.010723641
0.010715841
0.01070792
0.010699843
0.01069157
0.010683066
0.010674293
0.010665212
0.010655782
0.01064596
0.010635699
0.010624949
0.010613656
0.010601759
0.010589192
0.010575878
0.010561731
0.010546645
0.010530492
0.010513102
0.010494282
0.010473817
0.010451433
0.01042676
0.01039927
0.010368108
0.010331661
0.010286278
0.01023413
0.010186167
0.010144826
0.010109578
0.0100802
0.010056656
0.010038818
0.01002653
0.010021061
0.01001619
0.010042094
0.010022011
0.010065258
0.050010075
0.028996371
0.017442259
0.015898579
0.013675331
0.013165705
0.012462891
0.012129291
0.01183628
0.0116353
0.011478254
0.011359961
0.01126554
0.011190553
0.011129325
0.011079032
0.011037055
0.011001716
0.010971618
0.010945738
0.010923271
0.010903588
0.010886181
0.010870642
0.010856638
0.0108439
0.0108322
0.010821353
0.010811201
0.01080161
0.010792468
0.010783678
0.01077516
0.010766845
0.010758673
0.01075059
0.010742551
0.010734514
0.010726438
0.01071829
0.010710032
0.010701632
0.010693059
0.010684279
0.010675259
0.010665967
0.010656366
0.010646419
0.010636085
0.010625319
0.010614074
0.010602297
0.01058993
0.010576906
0.010563153
0.010548585
0.0105331
0.010516575
0.010498853
0.010479746
0.01045905
0.01043651
0.01041179
0.010384428
0.010353732
0.010318523
0.010276396
0.010226021
0.010179056
0.010138646
0.010104241
0.010075595
0.010052644
0.010035239
0.010023713
0.010017541
0.010014761
0.010034974
0.010020343
0.010058147
0.045731501
0.028065067
0.017014342
0.015549221
0.013502705
0.012964986
0.012353137
0.012018698
0.011751341
0.011566841
0.011423213
0.011314747
0.011228371
0.011159718
0.011103726
0.011057721
0.011019327
0.010986979
0.010959398
0.010935636
0.010914951
0.010896759
0.010880592
0.010866073
0.010852893
0.010840804
0.010829597
0.0108191
0.010809171
0.01079969
0.010790554
0.010781677
0.010772992
0.010764436
0.010755959
0.010747518
0.010739073
0.01073059
0.010722038
0.010713386
0.010704607
0.010695671
0.010686551
0.010677219
0.010667647
0.010657803
0.010647655
0.010637167
0.010626301
0.010615014
0.01060326
0.010590988
0.010578139
0.010564651
0.01055045
0.010535454
0.010519564
0.010502662
0.0104846
0.010465198
0.010444265
0.010421559
0.010396773
0.010369496
0.010339146
0.01030483
0.010265031
0.010216921
0.010171172
0.01013188
0.01009848
0.010070703
0.010048431
0.010031611
0.010020673
0.010014272
0.010013182
0.01002847
0.010018566
0.010051068
0.041960532
0.027180852
0.016602919
0.015166376
0.013336357
0.012777725
0.012236971
0.011916953
0.011673623
0.011504649
0.011373674
0.01127452
0.011195755
0.011133105
0.011082063
0.011040105
0.011005079
0.010975525
0.010950278
0.01092846
0.010909387
0.01089252
0.01087743
0.010863767
0.010851249
0.010839646
0.010828771
0.010818468
0.010808608
0.010799085
0.010789811
0.010780711
0.010771726
0.010762808
0.010753914
0.01074501
0.010736065
0.010727054
0.01071795
0.010708732
0.010699374
0.010689854
0.010680148
0.010670232
0.010660079
0.010649662
0.01063895
0.010627909
0.010616502
0.010604687
0.01059242
0.010579649
0.010566318
0.010552365
0.010537718
0.010522295
0.010506001
0.010488724
0.010470324
0.01045063
0.01042946
0.010406589
0.010381732
0.01035452
0.010324451
0.010290785
0.010252329
0.010206959
0.010162624
0.010124625
0.010092385
0.010065601
0.010044109
0.010027976
0.010017514
0.010011251
0.010011482
0.010022808
0.010016895
0.010044546
0.038629258
0.026321576
0.01620987
0.014748917
0.01317424
0.01260465
0.01211643
0.011824029
0.011603133
0.011448797
0.011329723
0.011239382
0.011167793
0.011110814
0.011064425
0.01102626
0.010994369
0.010967397
0.010944276
0.010924203
0.010906547
0.010890812
0.010876606
0.01086361
0.010851564
0.010840262
0.010829536
0.010819248
0.010809285
0.010799557
0.010789989
0.01078052
0.010771103
0.0107617
0.010752279
0.010742814
0.010733284
0.010723669
0.010713951
0.010704112
0.010694132
0.010683994
0.010673676
0.010663155
0.010652409
0.01064141
0.010630129
0.010618534
0.010606587
0.010594249
0.010581474
0.010568211
0.010554406
0.010539997
0.010524912
0.010509072
0.010492386
0.010474744
0.010456015
0.010436039
0.010414642
0.010391614
0.010366695
0.01033955
0.010309741
0.010276655
0.010239361
0.010196286
0.010153544
0.010116995
0.010086052
0.010060373
0.010039768
0.01002439
0.010014343
0.010008451
0.010009658
0.010018091
0.010015326
0.010039059
0.035678089
0.025463509
0.015837005
0.014367189
0.013013191
0.012446458
0.012006576
0.01173988
0.011539887
0.011399352
0.011291449
0.011209429
0.011144582
0.011092931
0.011050885
0.011016242
0.01098723
0.010962598
0.010941373
0.010922814
0.010906347
0.010891519
0.010877972
0.010865419
0.010853627
0.010842414
0.010831632
0.010821162
0.01081091
0.010800803
0.010790781
0.010780797
0.010770817
0.010760813
0.010750764
0.010740651
0.010730462
0.010720185
0.010709805
0.010699308
0.010688681
0.010677906
0.010666965
0.010655836
0.010644497
0.010632922
0.010621081
0.010608943
0.01059647
0.010583622
0.010570355
0.010556618
0.010542356
0.010527507
0.010512002
0.010495763
0.010478702
0.010460713
0.010441673
0.010421432
0.010399826
0.010376661
0.010351696
0.010324629
0.010295075
0.010262523
0.010226241
0.010185079
0.010144081
0.010109115
0.010079586
0.010055111
0.010035493
0.010020907
0.010011255
0.010005853
0.010007661
0.010014138
0.010013868
0.010034329
0.033056002
0.024581906
0.015483432
0.014019543
0.01284869
0.012302721
0.011907209
0.011664489
0.011483934
0.011356403
0.011258953
0.011184765
0.011126216
0.011079534
0.011041507
0.011010083
0.010983662
0.010961091
0.010941484
0.010924167
0.01090862
0.01089443
0.01088128
0.010868914
0.010857129
0.010845768
0.010834705
0.010823845
0.010813112
0.01080245
0.010791818
0.010781181
0.010770519
0.010759813
0.010749053
0.010738227
0.010727329
0.01071635
0.010705281
0.010694112
0.01068283
0.010671419
0.010659862
0.010648137
0.010636222
0.01062409
0.010611712
0.010599054
0.01058608
0.010572748
0.010559015
0.010544828
0.010530134
0.010514871
0.010498971
0.010482359
0.010464947
0.010446637
0.010427311
0.010406829
0.010385041
0.010361764
0.010336778
0.010309811
0.010280522
0.010248477
0.010213094
0.010173531
0.010134397
0.010101121
0.010073099
0.010049911
0.010031364
0.010017589
0.010008336
0.01000347
0.010005479
0.01001011
0.010012467
0.010030406
0.030718831
0.023649159
0.015147976
0.013704256
0.012674312
0.012173
0.011818153
0.011597834
0.011435328
0.011320029
0.01123233
0.011165474
0.011112781
0.011070682
0.011036304
0.011007753
0.010983583
0.01096274
0.010944424
0.010928026
0.010913079
0.010899217
0.010886163
0.010873697
0.010861646
0.010849883
0.010838307
0.010826846
0.010815445
0.010804066
0.010792682
0.010781276
0.010769836
0.010758354
0.010746827
0.010735249
0.010723616
0.010711924
0.010700166
0.010688333
0.010676411
0.010664387
0.01065224
0.010639948
0.010627488
0.010614833
0.010601951
0.010588809
0.010575369
0.010561588
0.010547422
0.01053282
0.010517728
0.010502083
0.010485821
0.010468866
0.010451136
0.010432535
0.010412955
0.010392264
0.010370323
0.010346966
0.010321993
0.010295156
0.010266154
0.010234611
0.010200052
0.010161847
0.010124662
0.010093152
0.010066702
0.010044866
0.010027457
0.010014505
0.010005679
0.010001319
0.010003266
0.010006598
0.010010967
0.010027027
0.028628745
0.022635266
0.014828721
0.01342062
0.012509774
0.012056877
0.011739274
0.011539902
0.011394132
0.011290302
0.011211683
0.011151643
0.011104315
0.011066359
0.011035204
0.011009114
0.010986791
0.010967278
0.010949863
0.010934002
0.010919287
0.010905402
0.01089211
0.010879232
0.010866633
0.010854212
0.010841898
0.010829641
0.010817407
0.010805174
0.010792932
0.010780674
0.010768397
0.0107561
0.010743784
0.010731448
0.010719088
0.010706702
0.010694281
0.010681816
0.010669293
0.010656696
0.010644002
0.010631189
0.010618231
0.010605098
0.010591758
0.010578177
0.010564314
0.010550128
0.010535571
0.010520594
0.010505142
0.010489156
0.010472569
0.01045531
0.010437298
0.010418444
0.010398646
0.010377782
0.010355725
0.010332325
0.010307401
0.010280733
0.01025205
0.010221023
0.01018725
0.010150238
0.01011505
0.010085347
0.010060504
0.010040064
0.01002383
0.010011711
0.010003367
0.0099994412
0.010001058
0.010003474
0.0100092
0.010023955
0.026754006
0.021508192
0.014522529
0.013167074
0.012362559
0.011954033
0.011670509
0.011490659
0.011360385
0.011267318
0.011197077
0.011143278
0.01110076
0.011066428
0.011037989
0.011013867
0.010992905
0.010974251
0.01095728
0.01094152
0.010926624
0.010912333
0.010898458
0.010884858
0.010871436
0.010858123
0.010844875
0.010831664
0.010818474
0.010805298
0.010792136
0.010778989
0.010765861
0.010752753
0.010739668
0.010726605
0.010713559
0.010700526
0.010687495
0.010674454
0.010661388
0.010648276
0.010635096
0.01062182
0.01060842
0.010594866
0.010581123
0.010567154
0.01055292
0.010538377
0.010523477
0.010508172
0.010492406
0.010476121
0.010459253
0.010441732
0.010423481
0.010404417
0.010384441
0.010363445
0.010341313
0.010317909
0.010293074
0.010266613
0.010238289
0.01020781
0.010174823
0.010138911
0.010105734
0.010077839
0.010054607
0.010035578
0.010020525
0.010009241
0.010001445
0.0099978949
0.0099989869
0.010000677
0.010007274
0.010021142
0.025069072
0.020235208
0.014223018
0.012941913
0.012231976
0.011864196
0.011611867
0.011450149
0.011334209
0.011251126
0.011188492
0.011140266
0.011101901
0.011070568
0.011044232
0.011021482
0.011001307
0.010982962
0.010965918
0.010949783
0.010934276
0.010919195
0.010904401
0.010889798
0.010875321
0.010860933
0.010846613
0.010832351
0.010818144
0.010803995
0.01078991
0.010775894
0.010761951
0.010748083
0.010734289
0.010720566
0.010706907
0.010693303
0.010679738
0.010666198
0.010652663
0.01063911
0.010625513
0.010611842
0.010598067
0.010584155
0.010570069
0.010555771
0.010541221
0.010526374
0.010511184
0.0104956
0.010479569
0.010463034
0.010445933
0.010428197
0.010409754
0.010390524
0.010370418
0.010349334
0.010327169
0.010303803
0.010279096
0.010252881
0.010224956
0.010195067
0.010162898
0.010128066
0.010096875
0.010070755
0.010049103
0.010031468
0.010017574
0.01000712
0.009999924
0.009996695
0.0099972002
0.0099983831
0.010005498
0.0100184
0.023555132
0.018993644
0.01391822
0.012743709
0.012117323
0.011786911
0.011562942
0.011418418
0.011315641
0.011241647
0.011185732
0.011142267
0.011107259
0.011078159
0.011053186
0.011031108
0.011011059
0.010992423
0.010974764
0.010957775
0.010941245
0.010925033
0.010909045
0.010893225
0.010877542
0.010861978
0.01084653
0.0108312
0.010815992
0.010800913
0.010785967
0.010771158
0.010756487
0.010741951
0.010727546
0.010713262
0.010699088
0.010685009
0.010671005
0.010657056
0.01064314
0.010629228
0.010615293
0.010601301
0.010587222
0.010573018
0.010558653
0.010544088
0.01052928
0.010514187
0.01049876
0.010482952
0.010466708
0.010449974
0.010432689
0.010414789
0.010396204
0.010376859
0.01035667
0.010335547
0.010313394
0.010290107
0.010265565
0.010239629
0.010212133
0.010182871
0.010151574
0.010117881
0.010088623
0.01006421
0.010044072
0.010027773
0.010014985
0.010005348
0.0099987593
0.0099957735
0.009995761
0.0099966978
0.010003728
0.010015582
0.022195395
0.017941346
0.013604582
0.012571662
0.012018466
0.011721609
0.011523946
0.011395536
0.011304564
0.011238548
0.011188265
0.011148553
0.011115929
0.011088149
0.011063687
0.011041507
0.011020896
0.011001363
0.010982578
0.010964316
0.010946436
0.010928848
0.0109115
0.010894364
0.010877432
0.010860699
0.01084417
0.010827847
0.010811735
0.010795836
0.010780151
0.010764675
0.010749405
0.010734329
0.010719437
0.010704713
0.010690138
0.010675693
0.010661353
0.010647094
0.010632889
0.010618706
0.010604513
0.010590279
0.010575966
0.01056154
0.010546962
0.010532191
0.010517186
0.010501904
0.010486297
0.010470318
0.010453915
0.010437035
0.01041962
0.010401608
0.010382933
0.010363526
0.010343308
0.010322196
0.010300105
0.01027694
0.010252599
0.010226965
0.010199907
0.010171273
0.010140881
0.010108505
0.010081102
0.010058306
0.010039584
0.010024521
0.010012757
0.010003904
0.0099978823
0.0099950589
0.0099947018
0.0099955669
0.010001813
0.010012506
0.020968105
0.017043735
0.013325928
0.012420859
0.01193357
0.011668142
0.011494763
0.011380945
0.011300257
0.011240898
0.011194957
0.011157804
0.011126448
0.011098974
0.011074128
0.011051073
0.011029255
0.011008309
0.010988003
0.010968191
0.010948782
0.010929729
0.010911003
0.010892597
0.010874504
0.010856725
0.010839258
0.010822101
0.010805252
0.010788703
0.010772446
0.010756467
0.010740754
0.010725287
0.010710048
0.010695014
0.010680163
0.010665466
0.010650898
0.010636428
0.010622025
0.010607657
0.010593289
0.010578887
0.010564414
0.010549834
0.010535106
0.010520192
0.01050505
0.010489636
0.010473906
0.010457811
0.010441304
0.010424332
0.010406841
0.010388771
0.010370062
0.010350648
0.010330456
0.010309411
0.010287433
0.01026444
0.010240338
0.010215028
0.0101884
0.01016033
0.010130684
0.010100058
0.010074409
0.010053129
0.010035714
0.010021765
0.010010908
0.010002767
0.0099972716
0.0099945844
0.0099938596
0.0099943006
0.0099996507
0.010008813
0.01985426
0.016254411
0.013078925
0.01228584
0.011861306
0.011626728
0.011474851
0.011373811
0.011301522
0.011247177
0.011204036
0.01116807
0.011136773
0.01110859
0.011082529
0.011057948
0.011034446
0.011011768
0.010989761
0.010968331
0.010947423
0.010927003
0.010907054
0.010887563
0.010868522
0.010849917
0.010831739
0.010813972
0.010796601
0.010779608
0.010762973
0.010746673
0.010730684
0.010714983
0.010699541
0.010684331
0.010669324
0.010654489
0.010639795
0.010625211
0.010610701
0.010596231
0.010581765
0.010567268
0.010552704
0.010538034
0.010523221
0.010508224
0.010493003
0.010477515
0.010461716
0.010445562
0.010429005
0.010411996
0.010394483
0.010376412
0.010357724
0.010338359
0.010318251
0.010297329
0.010275523
0.010252757
0.010228949
0.010204009
0.010177839
0.010150334
0.010121375
0.010092625
0.010068608
0.010048736
0.010032525
0.010019577
0.010009512
0.010001985
0.0099969402
0.0099943552
0.0099933313
0.0099934471
0.0099978053
0.010004955
0.01884314
0.0155432
0.012863357
0.012169612
0.011802938
0.01159641
0.011462853
0.011372258
0.011306115
0.011254862
0.011212842
0.011176676
0.011144342
0.011114622
0.011086764
0.011060299
0.011034942
0.011010513
0.010986903
0.01096404
0.010941875
0.010920371
0.010899497
0.010879229
0.010859538
0.010840398
0.010821782
0.010803661
0.010786005
0.010768785
0.010751971
0.010735531
0.010719434
0.010703648
0.010688141
0.01067288
0.010657832
0.010642963
0.010628241
0.010613631
0.010599096
0.010584601
0.01057011
0.010555588
0.010540998
0.010526303
0.010511464
0.010496443
0.0104812
0.010465694
0.010449883
0.010433724
0.010417172
0.010400181
0.010382701
0.010364683
0.010346072
0.010326813
0.010306845
0.010286104
0.010264527
0.010242047
0.010218589
0.010194076
0.010168423
0.010141537
0.010113318
0.010086262
0.010063721
0.010045127
0.010030007
0.010017963
0.01000861
0.010001637
0.0099969733
0.0099944572
0.0099932776
0.0099933426
0.0099969277
0.010002637
0.017928338
0.014888805
0.0126768
0.012072491
0.011756375
0.011574494
0.011455761
0.011372875
0.011310484
0.011260397
0.011217987
0.011180524
0.01114643
0.011114767
0.01108497
0.011056683
0.011029681
0.011003816
0.010978979
0.010955092
0.010932088
0.01090991
0.010888507
0.01086783
0.010847833
0.010828471
0.010809702
0.010791484
0.010773775
0.010756538
0.010739732
0.010723321
0.010707267
0.010691535
0.010676087
0.010660888
0.010645903
0.010631096
0.010616433
0.010601879
0.010587395
0.010572947
0.0105585
0.010544019
0.010529466
0.010514805
0.0105
0.010485012
0.010469803
0.010454335
0.010438567
0.010422457
0.010405965
0.010389047
0.010371656
0.010353745
0.010335267
0.010316168
0.010296395
0.010275889
0.010254595
0.010232452
0.010209396
0.010185358
0.010160266
0.01013404
0.010106597
0.010081016
0.010059758
0.010042274
0.010028104
0.010016843
0.010008114
0.010001635
0.0099972944
0.0099948345
0.0099935838
0.0099936574
0.0099966051
0.010001066
0.017109563
0.014331575
0.01251778
0.011991538
0.011718539
0.01155692
0.011449068
0.011370981
0.011310088
0.011259603
0.011215819
0.011176574
0.011140626
0.011107217
0.011075874
0.01104628
0.011018214
0.01099151
0.010966037
0.010941687
0.010918367
0.010895992
0.01087449
0.01085379
0.010833831
0.010814553
0.010795902
0.010777827
0.010760279
0.010743213
0.010726584
0.010710352
0.010694477
0.010678919
0.01066364
0.010648604
0.010633774
0.010619115
0.010604592
0.010590168
0.010575806
0.010561473
0.010547134
0.010532755
0.0105183
0.010503733
0.010489018
0.01047412
0.010459002
0.010443626
0.010427956
0.010411951
0.010395573
0.01037878
0.010361531
0.010343781
0.010325487
0.010306601
0.010287073
0.010266853
0.010245889
0.010224128
0.010201514
0.010177989
0.010153488
0.010127947
0.010101294
0.010076934
0.010056739
0.010040174
0.010026785
0.010016167
0.010007956
0.010001887
0.009997804
0.0099953983
0.0099941474
0.0099942517
0.0099966756
0.010000145
0.016397301
0.013879124
0.012384286
0.011922281
0.011683664
0.011537407
0.011436702
0.011361109
0.011300382
0.011248968
0.011203848
0.011163252
0.01112613
0.011091791
0.011059764
0.011029708
0.01100137
0.010974551
0.010949088
0.010924845
0.010901706
0.01087957
0.010858345
0.010837951
0.010818314
0.010799366
0.010781048
0.010763303
0.010746078
0.010729327
0.010713003
0.010697064
0.010681468
0.010666177
0.010651152
0.010636357
0.010621755
0.010607313
0.010592994
0.010578761
0.010564582
0.010550422
0.010536249
0.010522028
0.010507725
0.010493306
0.010478736
0.010463982
0.010449008
0.010433779
0.010418259
0.010402412
0.0103862
0.010369585
0.010352529
0.010334991
0.010316931
0.010298304
0.010279068
0.010259175
0.01023858
0.010217237
0.010195096
0.010172106
0.010148212
0.010123357
0.01009748
0.010074059
0.010054678
0.010038813
0.010026016
0.010015882
0.010008063
0.010002299
0.0099983971
0.009996029
0.0099948013
0.0099949103
0.009996882
0.0099995648
0.015698915
0.013477802
0.012256727
0.01184913
0.011637988
0.011504426
0.011409652
0.011336628
0.011276848
0.011225656
0.011180447
0.011139646
0.011102456
0.011068284
0.0110366
0.011007014
0.010979229
0.010953012
0.010928177
0.010904572
0.010882071
0.010860566
0.010839964
0.010820178
0.010801129
0.010782746
0.010764968
0.010747738
0.010731004
0.010714718
0.010698834
0.010683312
0.010668111
0.010653194
0.010638523
0.010624064
0.010609781
0.01059564
0.010581607
0.010567647
0.010553728
0.010539818
0.010525884
0.010511895
0.010497817
0.010483617
0.010469263
0.010454722
0.01043996
0.010424944
0.010409641
0.010394015
0.010378032
0.010361657
0.010344853
0.010327582
0.010309808
0.01029149
0.010272589
0.010253063
0.010232871
0.010211974
0.010190327
0.010167888
0.010144609
0.010120444
0.010095344
0.010072526
0.01005367
0.010038254
0.010025827
0.010015992
0.010008409
0.010002822
0.0099989992
0.0099966234
0.0099954176
0.0099955525
0.0099972207
0.0099993842
0.014475104
0.012832604
0.011998866
0.01168935
0.0115204
0.011410189
0.011330074
0.011267262
0.011215329
0.011170696
0.011131286
0.011095811
0.011063241
0.011032915
0.011004461
0.010977604
0.010952133
0.01092788
0.010904709
0.010882506
0.010861176
0.010840636
0.010820947
0.010802021
0.010783779
0.010766152
0.010749079
0.010732506
0.010716383
0.010700667
0.010685314
0.010670286
0.010655547
0.010641061
0.010626795
0.010612716
0.010598794
0.010584996
0.01057129
0.010557643
0.010544027
0.010530409
0.010516759
0.010503045
0.010489236
0.010475302
0.01046121
0.010446929
0.010432427
0.010417674
0.010402635
0.010387279
0.010371572
0.010355481
0.010338972
0.010322008
0.010304556
0.010286577
0.010268035
0.010248891
0.010229107
0.010208647
0.010187471
0.01016554
0.010142812
0.010119247
0.0100948
0.010072275
0.010053668
0.010038455
0.010026183
0.010016455
0.010008937
0.010003359
0.0099994678
0.009996982
0.0099957104
0.0099956961
0.0099968543
0.009998469
0.014028774
0.012618643
0.011858306
0.011581704
0.011431439
0.011333664
0.011262249
0.011205935
0.011158945
0.011118179
0.011081846
0.011048859
0.011018519
0.01099036
0.010964051
0.010939339
0.010916025
0.010893944
0.010872957
0.010852945
0.010833802
0.010815433
0.010797635
0.010780362
0.010763573
0.01074723
0.010731296
0.010715738
0.010700524
0.010685621
0.010671001
0.010656636
0.010642495
0.010628553
0.010614783
0.010601158
0.010587669
0.010574298
0.010561011
0.010547776
0.010534564
0.010521343
0.010508083
0.010494754
0.010481325
0.010467765
0.010454046
0.010440135
0.010426004
0.010411621
0.010396955
0.010381974
0.010366647
0.010350942
0.010334825
0.010318263
0.010301222
0.010283667
0.010265561
0.010246868
0.010227552
0.010207576
0.010186904
0.010165498
0.010143319
0.010120326
0.01009648
0.010073671
0.010054855
0.010039486
0.010027092
0.010017266
0.010009663
0.010003991
0.0099999834
0.0099973897
0.0099960401
0.0099958608
0.0099966749
0.0099980885
0.013596472
0.012400313
0.011683267
0.011443808
0.011315596
0.011234569
0.011175557
0.011129016
0.011089858
0.011055536
0.011024605
0.010996223
0.01096986
0.010945157
0.01092186
0.010899776
0.010878753
0.010858672
0.010839432
0.010820951
0.010803158
0.010785992
0.010769396
0.010753325
0.01073774
0.010722601
0.010707871
0.010693514
0.010679496
0.010665784
0.010652346
0.010639151
0.010626167
0.010613365
0.010600717
0.010588194
0.010575748
0.010563338
0.010550942
0.010538537
0.010526101
0.010513609
0.010501037
0.010488359
0.010475551
0.010462587
0.01044944
0.010436084
0.010422491
0.010408634
0.010394485
0.010380014
0.010365192
0.01034999
0.010334375
0.010318318
0.010301785
0.010284743
0.010267159
0.010248996
0.01023022
0.010210796
0.010190689
0.010169862
0.010148278
0.010125898
0.010102681
0.010078929
0.010059309
0.010043253
0.010030271
0.010019939
0.010011896
0.010005829
0.010001463
0.0099985605
0.0099969352
0.0099964359
0.009996882
0.0099980847
55.45877
100.68038
59.42361
39.954377
27.583684
19.213937
13.568161
9.7103334
7.0104165
5.0794314
3.6786175
2.6616811
1.9172151
1.3784218
0.98203982
0.69600179
0.48859848
0.34092597
0.23703068
0.16437916
0.11400185
0.079436454
0.05599999
0.040306124
0.029940435
0.023184656
0.018845248
0.016092643
0.014366071
0.013292505
0.012627516
0.012214021
0.011953061
0.011783493
0.011668305
0.011585535
0.011522391
0.011471527
0.011428752
0.011391699
0.011358942
0.011329603
0.011303145
0.011279098
0.0112571
0.011236795
0.01121746
0.011195756
0.011164335
0.011121275
0.011070392
0.011016397
0.010962983
0.010912039
0.010864524
0.010821069
0.01078348
0.010751122
0.010721872
0.010695367
0.010667015
0.010639234
0.010603206
0.010568363