/*--------------------------------*- C++ -*----------------------------------*\
  =========                 |
  \\      /  F ield         | OpenFOAM: The Open Source CFD Toolbox
   \\    /   O peration     | Website:  https://openfoam.org
    \\  /    A nd           | Version:  6
     \\/     M anipulation  |
\*---------------------------------------------------------------------------*/
FoamFile
{
    version     2.0;
    format      ascii;
    class       volScalarField;
    location    "600";
    object      nut;
}
// * * * * * * * * * * * * * * * * * * * * * * * * * * * * * * * * * * * * * //

dimensions      [0 2 -1 0 0 0 0];

internalField   nonuniform List<scalar> 
16000
(
5.0283447e-06
2.117554e-05
2.3358125e-05
3.2984728e-05
2.8321305e-05
3.6352393e-05
3.5666195e-05
4.024634e-05
4.1370447e-05
4.1500391e-05
4.2096229e-05
4.0769282e-05
4.0888598e-05
3.981809e-05
3.9814205e-05
3.9311695e-05
3.9472074e-05
3.9500543e-05
3.990788e-05
4.0355152e-05
4.105515e-05
4.1878741e-05
4.2914363e-05
4.4123953e-05
4.555284e-05
4.720451e-05
4.9115536e-05
5.1312973e-05
5.3840931e-05
5.6747742e-05
6.0096359e-05
6.3962491e-05
6.8440038e-05
7.3643492e-05
7.9713765e-05
8.682385e-05
9.5186532e-05
0.00010506366
0.00011677748
0.00013072405
0.00014739049
0.00016737781
0.00019142506
0.00022043977
0.00025553493
0.00029807188
0.00034970712
0.00041244553
0.00048869536
0.00058132139
0.00069369044
0.00082971842
0.00099395736
0.0010404805
0.0010415405
0.0010417304
0.0010413007
0.0010405311
0.0010395974
0.0010385011
0.001037149
0.0010355345
0.0010336193
0.0010313322
0.0010286347
0.0010255807
0.0010223446
0.0010192316
0.0010163933
0.0010139458
0.0010117044
0.0010099714
0.0010081549
0.0010070751
0.0010056014
0.0010060905
0.0010047724
0.0010090638
0.0010041118
0.0010079765
4.193949e-06
2.0943025e-05
2.1404386e-05
3.0159768e-05
2.6129357e-05
3.2780007e-05
3.2832099e-05
3.5993546e-05
3.7765024e-05
3.7025335e-05
3.8006214e-05
3.6331266e-05
3.6610222e-05
3.5415976e-05
3.5492514e-05
3.4987129e-05
3.5155444e-05
3.5163506e-05
3.5533404e-05
3.5927653e-05
3.6552762e-05
3.7285828e-05
3.8208355e-05
3.9285419e-05
4.0557069e-05
4.2026563e-05
4.3725782e-05
4.5678854e-05
4.7924337e-05
5.050485e-05
5.3475508e-05
5.690276e-05
6.0869001e-05
6.5474596e-05
7.0843124e-05
7.7126112e-05
8.4509581e-05
9.3221998e-05
0.00010354434
0.00011582181
0.00013047771
0.00014803347
0.0001691295
0.00019455092
0.00022525923
0.00026243006
0.00030749444
0.00036218693
0.00042859849
0.00050923104
0.00060705322
0.00072555379
0.00086882465
0.0010391318
0.0010404058
0.0010407354
0.0010403667
0.00103961
0.0010386872
0.0010376548
0.0010364749
0.0010350148
0.0010332473
0.0010310953
0.0010285075
0.0010255118
0.0010222815
0.0010191298
0.0010162725
0.0010137789
0.0010115523
0.0010097434
0.0010080329
0.0010069498
0.0010054799
0.0010055938
0.0010044302
0.0010082583
0.0010039035
0.0010077882
3.5854066e-06
2.0709225e-05
1.984989e-05
2.7735321e-05
2.4390979e-05
2.9730242e-05
3.0677897e-05
3.2226747e-05
3.4679061e-05
3.2920893e-05
3.4249951e-05
3.2217089e-05
3.2632441e-05
3.1401893e-05
3.1543662e-05
3.1054702e-05
3.122996e-05
3.1233927e-05
3.1575261e-05
3.19337e-05
3.2500091e-05
3.3163655e-05
3.3996131e-05
3.4967861e-05
3.6113155e-05
3.7436135e-05
3.8964489e-05
4.0720347e-05
4.2737785e-05
4.5054994e-05
4.7720947e-05
5.0794876e-05
5.4350077e-05
5.8475796e-05
6.3281861e-05
6.8902951e-05
7.5504315e-05
8.3288677e-05
9.2504747e-05
0.00010345778
0.0001165216
0.00013215601
0.00015092457
0.00017351711
0.00020077699
0.00023373419
0.00027364168
0.00032201808
0.0003806966
0.00045187705
0.00053818288
0.00064271936
0.00076914676
0.00092179079
0.0010392641
0.0010397482
0.0010394484
0.0010387017
0.0010377736
0.0010367437
0.0010355949
0.0010342857
0.0010326966
0.0010307092
0.00102826
0.0010253521
0.0010221461
0.001018973
0.0010160987
0.0010135813
0.0010113615
0.0010095155
0.0010078585
0.0010067855
0.0010053602
0.0010052358
0.0010041872
0.0010075404
0.001003679
0.001007144
3.1889685e-06
2.0400665e-05
1.8530907e-05
2.5464717e-05
2.2755405e-05
2.693809e-05
2.8587368e-05
2.8846258e-05
3.1680833e-05
2.9246655e-05
3.0713012e-05
2.8525323e-05
2.9003963e-05
2.7836896e-05
2.7996618e-05
2.7554686e-05
2.7722893e-05
2.7736889e-05
2.8050663e-05
2.8384193e-05
2.8900527e-05
2.9507413e-05
3.0263965e-05
3.1147384e-05
3.2186063e-05
3.3385481e-05
3.4769616e-05
3.6359149e-05
3.8184491e-05
4.0280289e-05
4.2690517e-05
4.5468601e-05
4.8680521e-05
5.2406693e-05
5.6745905e-05
6.1819313e-05
6.7775563e-05
7.4797032e-05
8.3107508e-05
9.2980949e-05
0.00010475222
0.00011883357
0.00013572956
0.00015605692
0.00018056877
0.00021018465
0.00024602261
0.00028943794
0.00034206854
0.00040588407
0.00048324245
0.00057695025
0.00069033223
0.0008273313
0.00099263277
0.0010387627
0.0010385435
0.001037808
0.0010368703
0.0010358338
0.0010346865
0.0010334029
0.0010319335
0.0010301451
0.0010278693
0.0010250831
0.0010219266
0.0010187488
0.001015867
0.0010133403
0.0010111285
0.0010092635
0.0010076472
0.0010065025
0.0010052313
0.0010049918
0.0010039742
0.0010067596
0.0010034736
0.001006685
2.8611802e-06
1.998403e-05
1.7457587e-05
2.3358375e-05
2.1253037e-05
2.4385941e-05
2.6620876e-05
2.5781121e-05
2.8798839e-05
2.5905961e-05
2.7379583e-05
2.5223628e-05
2.569517e-05
2.4635913e-05
2.4788436e-05
2.440901e-05
2.4564956e-05
2.4596546e-05
2.488624e-05
2.5202357e-05
2.5676828e-05
2.6237096e-05
2.6929762e-05
2.7738779e-05
2.8687166e-05
2.9781771e-05
3.1043459e-05
3.2491719e-05
3.4153971e-05
3.6061943e-05
3.8255492e-05
4.0783251e-05
4.370521e-05
4.7094482e-05
5.1040858e-05
5.5654538e-05
6.1070619e-05
6.7454752e-05
7.501056e-05
8.3987411e-05
9.4688721e-05
0.00010748855
0.00012284487
0.00014131675
0.0001635862
0.00019048632
0.00022302982
0.00026244474
0.00031021695
0.00036813638
0.00043835228
0.00052343385
0.00062644067
0.00075101173
0.00090149205
0.0010377706
0.0010376473
0.001036926
0.0010359757
0.0010349287
0.0010337754
0.0010324952
0.0010310549
0.0010293891
0.0010273249
0.0010246982
0.0010216201
0.0010184551
0.001015577
0.0010130543
0.0010108557
0.0010089881
0.0010074048
0.0010062176
0.0010050716
0.0010047347
0.0010037865
0.0010060341
0.0010032888
0.0010060352
2.5846175e-06
1.7690708e-05
1.6521617e-05
2.1370468e-05
1.988236e-05
2.2025003e-05
2.4760219e-05
2.2985838e-05
2.6035629e-05
2.2903378e-05
2.4279081e-05
2.2287707e-05
2.2706766e-05
2.1780579e-05
2.1911143e-05
2.1600737e-05
2.1742651e-05
2.1795178e-05
2.20647e-05
2.2368554e-05
2.2808589e-05
2.3330677e-05
2.3970226e-05
2.4717154e-05
2.5590019e-05
2.6596788e-05
2.7755834e-05
2.9085642e-05
3.0611234e-05
3.2361945e-05
3.4374282e-05
3.6692951e-05
3.9373071e-05
4.2481818e-05
4.6101687e-05
5.0333922e-05
5.5302775e-05
6.1160456e-05
6.8094017e-05
7.6333342e-05
8.6156909e-05
9.7908068e-05
0.00011200748
0.00012896874
0.00014941708
0.00017411705
0.00020399789
0.00024018644
0.0002840477
0.00033722777
0.00040170771
0.00047986329
0.00057453501
0.0006891127
0.00082765404
0.00099501452
0.0010367552
0.0010360531
0.0010350882
0.0010340278
0.0010328649
0.001031581
0.0010301493
0.001028525
0.0010266171
0.0010241927
0.0010212262
0.0010180925
0.0010152301
0.0010127237
0.0010105447
0.0010086878
0.0010071337
0.0010059243
0.0010048783
0.0010044602
0.00100361
0.0010054209
0.0010031125
0.0010055455
2.3312164e-06
1.6329938e-05
1.5459394e-05
1.9488942e-05
1.8639351e-05
1.9849596e-05
2.2987357e-05
2.0437563e-05
2.3395214e-05
2.0251811e-05
2.1457166e-05
1.968147e-05
2.0021795e-05
1.9236495e-05
1.9337995e-05
1.9095248e-05
1.9223366e-05
1.9296448e-05
1.9549248e-05
1.9843689e-05
2.0255203e-05
2.0745386e-05
2.1340457e-05
2.2035115e-05
2.2844446e-05
2.3777177e-05
2.4849743e-05
2.6079747e-05
2.7490257e-05
2.9108656e-05
3.0968688e-05
3.3111788e-05
3.558912e-05
3.8462969e-05
4.1809834e-05
4.5723702e-05
5.0319932e-05
5.5739833e-05
6.2156997e-05
6.9785587e-05
7.888392e-05
8.9770704e-05
0.00010283652
0.00011855853
0.00013751655
0.00016042015
0.00018813209
0.00022169825
0.00026238704
0.00031172937
0.00037157081
0.00044413031
0.00053206905
0.00063857386
0.00076746532
0.00092333411
0.0010358612
0.0010351867
0.0010342055
0.0010331297
0.0010319547
0.0010306635
0.0010292327
0.0010276266
0.0010257816
0.0010235598
0.0010207439
0.0010176612
0.0010148272
0.0010123489
0.0010101976
0.0010083623
0.0010068362
0.0010056239
0.0010046518
0.0010041563
0.0010034341
0.0010048683
0.0010029383
0.0010050341
2.1052909e-06
1.5849948e-05
1.4390553e-05
1.7720422e-05
1.7496479e-05
1.7831613e-05
2.1248167e-05
1.8156371e-05
2.0852591e-05
1.7896823e-05
1.8891973e-05
1.7359231e-05
1.7611923e-05
1.6965461e-05
1.7038436e-05
1.6858929e-05
1.697627e-05
1.7068801e-05
1.7309064e-05
1.75966e-05
1.798533e-05
1.8449346e-05
1.9007842e-05
1.9659106e-05
2.0415602e-05
2.1286609e-05
2.2287032e-05
2.3433691e-05
2.474811e-05
2.6256039e-05
2.7989031e-05
2.9985754e-05
3.2294189e-05
3.4972625e-05
3.8092645e-05
4.1742349e-05
4.6029882e-05
5.108772e-05
5.7078426e-05
6.4203725e-05
7.2705489e-05
8.2882611e-05
9.5101435e-05
0.00010980989
0.00012755112
0.00014899037
0.00017493708
0.00020637182
0.0002444852
0.00029071488
0.0003467964
0.00041482043
0.00049730038
0.00059725456
0.0007183076
0.00086482544
0.0010349586
0.0010343241
0.0010333257
0.0010322328
0.001031044
0.0010297433
0.0010283097
0.0010267129
0.0010249045
0.0010227933
0.0010201742
0.0010171642
0.0010143713
0.0010119323
0.0010098175
0.0010080134
0.0010065163
0.0010053161
0.0010043995
0.0010038311
0.0010032517
0.0010043365
0.0010027525
0.0010045667
1.910573e-06
1.5322936e-05
1.3408533e-05
1.6044783e-05
1.6428999e-05
1.5931047e-05
1.9499444e-05
1.6111606e-05
1.8433897e-05
1.5790136e-05
1.6565057e-05
1.5280942e-05
1.5450503e-05
1.4933681e-05
1.4983582e-05
1.4861137e-05
1.4972135e-05
1.5082584e-05
1.5314563e-05
1.5597399e-05
1.5968504e-05
1.6411454e-05
1.6940284e-05
1.7555923e-05
1.8268926e-05
1.9088839e-05
2.002949e-05
2.1106962e-05
2.2341563e-05
2.3757715e-05
2.5385173e-05
2.7260352e-05
2.9428616e-05
3.1945019e-05
3.4877171e-05
3.8308333e-05
4.2340864e-05
4.710018e-05
5.2739545e-05
5.9451209e-05
6.746361e-05
7.7059618e-05
8.8585927e-05
0.00010246736
0.00011921719
0.00013946504
0.00016397755
0.00019368246
0.00022970785
0.00027341603
0.00032645331
0.00039080581
0.00046886587
0.00056351262
0.00067821075
0.00081713948
0.00098533221
0.0010334627
0.0010324468
0.001031336
0.0010301322
0.0010288206
0.001027382
0.0010257898
0.0010240046
0.0010219595
0.0010195189
0.0010166052
0.0010138661
0.0010114774
0.0010094082
0.0010076438
0.001006179
0.0010050025
0.0010041286
0.0010035215
0.0010030613
0.0010038316
0.0010025632
0.0010040965
1.741329e-06
1.4731255e-05
1.2486998e-05
1.444093e-05
1.5422187e-05
1.4211514e-05
1.7722848e-05
1.4271809e-05
1.618505e-05
1.3900406e-05
1.4466755e-05
1.3419118e-05
1.3517811e-05
1.3116401e-05
1.3150721e-05
1.3078125e-05
1.3187326e-05
1.3313997e-05
1.3541494e-05
1.3821557e-05
1.4179616e-05
1.4606037e-05
1.5111322e-05
1.5698196e-05
1.6375931e-05
1.7154148e-05
1.8045874e-05
1.9066562e-05
2.0235552e-05
2.1576204e-05
2.3116833e-05
2.4891981e-05
2.6944926e-05
2.9328119e-05
3.2105966e-05
3.5357793e-05
3.9181394e-05
4.3696638e-05
4.9048768e-05
5.5423264e-05
6.3037528e-05
7.2161503e-05
8.3125913e-05
9.6337804e-05
0.00011228601
0.00013157139
0.0001549266
0.0001832366
0.00021757944
0.00025925664
0.00030984236
0.0003712379
0.0004457367
0.0005361036
0.00064567178
0.00077846601
0.00093934402
0.0010326004
0.0010315675
0.0010304381
0.0010292188
0.0010278957
0.0010264509
0.0010248608
0.0010230922
0.001021094
0.00101878
0.0010159901
0.0010133166
0.0010109886
0.0010089741
0.0010072572
0.0010058296
0.0010046855
0.0010038449
0.0010032262
0.0010028637
0.0010033635
0.0010023718
0.0010036337
1.5941852e-06
1.4047823e-05
1.1629375e-05
1.2898813e-05
1.445278e-05
1.2653603e-05
1.5910663e-05
1.2612093e-05
1.4116498e-05
1.2202727e-05
1.2585525e-05
1.1750914e-05
1.1794708e-05
1.1492437e-05
1.151908e-05
1.1489175e-05
1.1600719e-05
1.1742056e-05
1.1918114e-05
1.2189096e-05
1.2532013e-05
1.2941031e-05
1.3423711e-05
1.398352e-05
1.4628531e-05
1.5368118e-05
1.6214492e-05
1.7182374e-05
1.8290127e-05
1.95601e-05
2.1019304e-05
2.2700463e-05
2.4644992e-05
2.6902979e-05
2.9535968e-05
3.2619779e-05
3.6248131e-05
4.0536456e-05
4.5926689e-05
5.2029418e-05
5.9323465e-05
6.8068573e-05
7.8582277e-05
9.1258504e-05
0.00010656613
0.0001250828
0.00014751482
0.00017471239
0.00020771415
0.00024777301
0.00029640535
0.00035544429
0.00042710357
0.00051405549
0.0006195262
0.00074741464
0.00090243409
0.0010317349
0.0010306866
0.0010295387
0.0010283038
0.001026969
0.0010255177
0.0010239287
0.0010221729
0.001020208
0.001017966
0.001015326
0.0010127293
0.0010104717
0.0010085205
0.0010068581
0.0010054736
0.0010043679
0.0010035546
0.0010029455
0.0010026608
0.0010029455
0.0010021905
0.0010032073
1.4660424e-06
1.3259573e-05
1.082634e-05
1.1409708e-05
1.3484316e-05
1.1238518e-05
1.4082653e-05
1.1109458e-05
1.2232495e-05
1.067478e-05
1.0906809e-05
1.0256423e-05
1.0262463e-05
1.0043438e-05
1.002202e-05
1.0010719e-05
1.0118032e-05
1.0267354e-05
1.0490734e-05
1.0768483e-05
1.1110268e-05
1.1513752e-05
1.1985342e-05
1.2529493e-05
1.315382e-05
1.3867752e-05
1.4683105e-05
1.5614207e-05
1.6678806e-05
1.7898614e-05
1.9299868e-05
2.0913887e-05
2.2780856e-05
2.4949242e-05
2.7478567e-05
3.0442099e-05
3.3930564e-05
3.8057153e-05
4.2957322e-05
4.8798934e-05
5.5787432e-05
6.4173913e-05
7.4841218e-05
8.7096955e-05
0.0001019024
0.00011981631
0.00014152555
0.00016785188
0.00019980374
0.00023859578
0.00028569871
0.0003428918
0.00041232555
0.00049659876
0.00059885249
0.00072288557
0.00087329617
0.0010308643
0.0010298035
0.0010286375
0.0010273876
0.0010260415
0.0010245841
0.001022996
0.0010212519
0.0010193165
0.0010171363
0.0010146217
0.0010121117
0.0010099332
0.0010080532
0.0010064517
0.0010051164
0.0010040532
0.0010032644
0.0010026785
0.0010024532
0.0010025836
0.0010020195
0.0010028437
1.3549846e-06
1.2362745e-05
1.0078351e-05
1.0060092e-05
1.2485359e-05
9.9487117e-06
1.2317069e-05
9.7453682e-06
1.0534646e-05
9.2989772e-06
9.4158959e-06
8.9197634e-06
8.8344043e-06
8.6621405e-06
8.6826392e-06
8.7169239e-06
8.8432939e-06
9.0130019e-06
9.2456263e-06
9.5295852e-06
9.8715542e-06
1.027145e-05
1.0735073e-05
1.1267548e-05
1.1876151e-05
1.257034e-05
1.3361642e-05
1.4264037e-05
1.5294777e-05
1.6475077e-05
1.7830729e-05
1.9391772e-05
2.1197537e-05
2.3295284e-05
2.5743048e-05
2.8612125e-05
3.1990508e-05
3.5989854e-05
4.074199e-05
4.6410968e-05
5.3197542e-05
6.1347512e-05
7.1163449e-05
8.3008767e-05
9.7329533e-05
0.0001156192
0.00013677886
0.00016244177
0.00019359435
0.00023142193
0.00027736005
0.00033314645
0.00040088284
0.00048311122
0.00058290714
0.00070399315
0.0008508805
0.0010290276
0.0010289183
0.0010277351
0.0010264711
0.0010251147
0.001023652
0.0010220655
0.0010203328
0.0010184243
0.0010162977
0.0010138871
0.0010114722
0.0010093805
0.0010075784
0.0010060435
0.0010047632
0.001003745
0.0010029799
0.0010024247
0.0010022383
0.0010022681
0.0010018591
0.0010025271
1.2589248e-06
1.1359902e-05
9.3786482e-06
8.8370426e-06
1.1423166e-05
8.7726132e-06
1.0644869e-05
8.5077078e-06
9.0218349e-06
8.0627051e-06
8.0204512e-06
7.6128796e-06
7.5705948e-06
7.4755199e-06
7.5207613e-06
7.5915856e-06
7.7354952e-06
7.9223782e-06
8.1640246e-06
8.454098e-06
8.7976159e-06
9.1958906e-06
9.6544457e-06
1.0178915e-05
1.0776281e-05
1.1456024e-05
1.2229472e-05
1.3110318e-05
1.4115384e-05
1.5265482e-05
1.6522583e-05
1.8030786e-05
1.9775456e-05
2.1802666e-05
2.4169086e-05
2.6944266e-05
3.038674e-05
3.4289896e-05
3.8930631e-05
4.4470348e-05
5.1106338e-05
5.9079303e-05
6.8688688e-05
8.0290176e-05
9.4322495e-05
0.00011132198
0.00013193427
0.00015830338
0.00018887385
0.00022599886
0.00027108787
0.00032584799
0.0003923448
0.00047307833
0.0005710759
0.00069000577
0.00083431786
0.0010094039
0.0010280318
0.0010268328
0.0010255559
0.0010241907
0.0010227241
0.0010211404
0.0010194196
0.0010175365
0.0010154574
0.0010131334
0.0010108204
0.0010088216
0.0010071027
0.0010056393
0.0010044192
0.0010034474
0.0010027067
0.0010021852
0.0010020162
0.0010019522
0.0010017064
0.0010022599
1.1766636e-06
1.0263544e-05
8.7195825e-06
7.7275437e-06
1.0266726e-05
7.6977263e-06
9.091437e-06
7.3837975e-06
7.6865679e-06
6.8341956e-06
6.7759165e-06
6.5018537e-06
6.4825146e-06
6.4477755e-06
6.5164774e-06
6.6170173e-06
6.7772287e-06
6.9790523e-06
7.2296883e-06
7.5261159e-06
7.8725608e-06
8.2711552e-06
8.7273125e-06
9.2250042e-06
9.8095079e-06
1.0473562e-05
1.122809e-05
1.2086323e-05
1.3064471e-05
1.4182584e-05
1.5465106e-05
1.6942068e-05
1.8650406e-05
2.0635636e-05
2.2953849e-05
2.5674214e-05
2.8881986e-05
3.2682232e-05
3.7204305e-05
4.2607288e-05
4.9085631e-05
5.7306516e-05
6.6773485e-05
7.8207463e-05
9.204054e-05
0.00010880488
0.00012913729
0.00015381758
0.00018545896
0.00022210871
0.00026662269
0.00032068695
0.00038634231
0.00046605996
0.00056283437
0.00068029829
0.00082286225
0.00099587653
0.0010271457
0.0010259324
0.0010246445
0.0010232721
0.0010218035
0.0010202243
0.0010185167
0.0010166588
0.0010146229
0.0010123723
0.0010101663
0.0010082647
0.0010066329
0.0010052449
0.001004089
0.0010031647
0.0010024505
0.0010019616
0.0010017958
0.0010016695
0.0010015528
0.001002027
1.1078254e-06
9.0867959e-06
8.0942061e-06
6.7216667e-06
9.0538866e-06
6.7141677e-06
7.6841275e-06
6.3138439e-06
6.3488504e-06
5.7709524e-06
5.7159455e-06
5.5439238e-06
5.5491335e-06
5.5618332e-06
5.6526352e-06
5.7778827e-06
5.9533682e-06
6.1686521e-06
6.4284173e-06
6.7316604e-06
7.0659075e-06
7.4621573e-06
7.9140219e-06
8.4271352e-06
9.0087147e-06
9.6675639e-06
1.0414583e-05
1.1262899e-05
1.222847e-05
1.3331177e-05
1.4595229e-05
1.6050383e-05
1.7733292e-05
1.9689151e-05
2.1973705e-05
2.4655712e-05
2.7819907e-05
3.1570661e-05
3.6036489e-05
4.1375793e-05
4.7783314e-05
5.5494556e-05
6.4797965e-05
7.6043041e-05
9.0398383e-05
0.00010702265
0.00012718691
0.00015166901
0.00018140162
0.00021955747
0.00026373345
0.00031738789
0.00038254708
0.00046166521
0.00055771754
0.00067431786
0.00081585749
0.00098766905
0.0010262623
0.0010250369
0.0010237399
0.0010223624
0.0010208938
0.0010193212
0.0010176287
0.001015797
0.0010138024
0.0010116161
0.0010095199
0.0010077181
0.0010061756
0.0010048658
0.0010037764
0.0010029005
0.0010022164
0.0010017567
0.0010015796
0.0010014129
0.0010013888
0.0010018151
1.0532263e-06
7.8415539e-06
7.4842875e-06
5.8088814e-06
7.8124693e-06
5.7991137e-06
6.7406818e-06
5.28281e-06
5.2459828e-06
4.8572772e-06
4.8164825e-06
4.7216318e-06
4.7520014e-06
4.8027873e-06
4.9143261e-06
5.0607301e-06
5.250714e-06
5.4785332e-06
5.7324799e-06
6.0394319e-06
6.3920322e-06
6.7935538e-06
7.2487414e-06
7.7634379e-06
8.3449239e-06
9.0019818e-06
9.7455109e-06
1.0588625e-05
1.154701e-05
1.26405e-05
1.3893179e-05
1.5334691e-05
1.7001599e-05
1.8939029e-05
2.1202684e-05
2.3861297e-05
2.6999557e-05
3.0721635e-05
3.5155636e-05
4.045937e-05
4.6828543e-05
5.4497708e-05
6.3755956e-05
7.4952513e-05
8.8512431e-05
0.00010495258
0.00012597377
0.00015037243
0.00018000821
0.00021600693
0.00026220423
0.00031569333
0.00038065209
0.00045952855
0.0005552903
0.00067154724
0.00081268923
0.00098405294
0.0010253853
0.0010241499
0.001022846
0.0010214657
0.0010199994
0.0010184357
0.0010167606
0.0010149569
0.0010130039
0.0010108769
0.0010088914
0.0010071898
0.0010057371
0.0010045066
0.0010034846
0.0010026576
0.0010020077
0.0010015742
0.0010013755
0.0010011793
0.0010012204
0.0010016211
1.016783e-06
6.5494252e-06
6.8604733e-06
4.9888235e-06
6.6000279e-06
5.346864e-06
5.4225015e-06
4.3724657e-06
4.332569e-06
4.0737049e-06
4.0557435e-06
4.0208826e-06
4.0759141e-06
4.1581768e-06
4.2891487e-06
4.4541223e-06
4.6448045e-06
4.8812251e-06
5.1571622e-06
5.4737898e-06
5.8341235e-06
6.2418706e-06
6.701929e-06
7.2202668e-06
7.8042343e-06
8.4625214e-06
9.2060472e-06
1.002602e-05
1.0975526e-05
1.2057456e-05
1.3295601e-05
1.4719324e-05
1.6364934e-05
1.8277322e-05
2.0512008e-05
2.313757e-05
2.6238561e-05
2.9918939e-05
3.4306252e-05
3.9817978e-05
4.617765e-05
5.3838293e-05
6.3091499e-05
7.4286388e-05
8.7847976e-05
0.00010429404
0.00012425296
0.00014980132
0.00017945519
0.00021547957
0.00025923493
0.0003153485
0.00038035294
0.00045928764
0.00055512113
0.00067147256
0.00081274608
0.00098430145
0.001024519
0.0010232762
0.001021968
0.0010205871
0.0010191254
0.0010175729
0.0010159175
0.0010141444
0.0010122349
0.0010101664
0.0010082907
0.0010066876
0.0010053232
0.0010041715
0.0010032158
0.0010024378
0.0010018253
0.0010014155
0.0010011919
0.0010009786
0.0010010648
0.0010014343
1.0009051e-06
5.8825941e-06
6.2237274e-06
4.9737086e-06
6.249421e-06
4.1536871e-06
4.1573249e-06
3.6096372e-06
3.5694333e-06
3.4131711e-06
3.4180246e-06
3.4309879e-06
3.5092546e-06
3.6177535e-06
3.7567241e-06
3.934317e-06
4.1486747e-06
4.3984609e-06
4.6854158e-06
5.0115276e-06
5.3800622e-06
5.7950139e-06
6.2613901e-06
6.7852047e-06
7.3627419e-06
8.0212782e-06
8.7633424e-06
9.6017445e-06
1.0552187e-05
1.163399e-05
1.2871002e-05
1.4292705e-05
1.5935612e-05
1.7844918e-05
2.0076576e-05
2.2699727e-05
2.5799643e-05
2.9481275e-05
3.3873612e-05
3.9134667e-05
4.5457226e-05
5.3464421e-05
6.2745147e-05
7.3977583e-05
8.7587268e-05
0.00010409383
0.000124128
0.00014845519
0.00017958778
0.00021574942
0.0002596687
0.00031301116
0.00038133295
0.00046056499
0.00055675972
0.00067355644
0.00081538704
0.00098764974
0.0010236694
0.0010224219
0.0010211118
0.0010197328
0.0010182779
0.0010167385
0.0010151048
0.0010133645
0.0010115017
0.0010094953
0.0010077266
0.0010062186
0.0010049391
0.0010038631
0.0010029712
0.0010022419
0.0010016675
0.0010012772
0.0010010327
0.001000817
0.0010009141
0.0010012464
1.0033212e-06
6.0104026e-06
5.5430086e-06
5.3948543e-06
5.4220784e-06
3.2893757e-06
3.3533142e-06
2.9671515e-06
2.9389837e-06
2.8616963e-06
2.8904375e-06
2.9412724e-06
3.041252e-06
3.1615989e-06
3.3236727e-06
3.5184324e-06
3.7466187e-06
4.0084094e-06
4.3058599e-06
4.6414904e-06
5.0187668e-06
5.4418622e-06
5.9092085e-06
6.437735e-06
7.0300115e-06
7.694646e-06
8.4421027e-06
9.2851729e-06
1.0239568e-05
1.1324667e-05
1.256445e-05
1.3988627e-05
1.5634025e-05
1.7546291e-05
1.9781963e-05
2.2410915e-05
2.5519292e-05
2.9213161e-05
3.3622835e-05
3.8907682e-05
4.5262361e-05
5.2924915e-05
6.2654022e-05
7.395325e-05
8.764562e-05
0.00010425349
0.00012441065
0.00014888609
0.00018023824
0.0002166183
0.00026079837
0.00031445271
0.00038324727
0.00046294846
0.00055971363
0.00067721009
0.00081990752
0.00099325444
0.0010228429
0.0010215936
0.0010202846
0.0010189101
0.001017464
0.0010159392
0.0010143278
0.0010126207
0.0010108068
0.0010088726
0.0010072069
0.0010057892
0.0010045895
0.001003584
0.0010027515
0.0010020691
0.001001531
0.0010011558
0.0010009002
0.0010006915
0.0010007596
0.001001047
8.372713e-07
6.3359014e-06
4.7947134e-06
3.5446715e-06
3.4768257e-06
2.7137732e-06
2.6621163e-06
2.4490167e-06
2.427764e-06
2.4091268e-06
2.4612431e-06
2.541608e-06
2.652415e-06
2.7985438e-06
2.9774759e-06
3.1867034e-06
3.427228e-06
3.7001758e-06
4.0078883e-06
4.3532163e-06
4.7397548e-06
5.1670803e-06
5.6478926e-06
6.1849068e-06
6.7852199e-06
7.4574035e-06
8.2118888e-06
9.0614623e-06
1.0021879e-05
1.111263e-05
1.2357884e-05
1.3787651e-05
1.5439172e-05
1.7358647e-05
1.9603306e-05
2.2243842e-05
2.5367434e-05
2.9081477e-05
3.3517759e-05
3.8836733e-05
4.5234579e-05
5.3344876e-05
6.2749618e-05
7.4133488e-05
8.7929527e-05
0.00010466353
0.00012497326
0.00014963234
0.00018121783
0.00021786237
0.0002623592
0.00031639367
0.00038570516
0.00046597088
0.00056342355
0.00068176351
0.00082550416
0.0010001515
0.001022047
0.0010207992
0.0010194943
0.0010181272
0.0010166923
0.0010151836
0.0010135943
0.0010119169
0.0010101433
0.0010083059
0.0010067379
0.0010054052
0.0010042794
0.0010033376
0.0010025582
0.001001919
0.0010014149
0.0010010535
0.0010007853
0.0010005636
0.0010005955
0.0010008157
6.4896688e-07
5.036059e-06
3.7435629e-06
2.6196627e-06
2.6781141e-06
2.1839363e-06
2.1312046e-06
2.0124105e-06
2.0164552e-06
2.0397079e-06
2.115565e-06
2.213953e-06
2.3486205e-06
2.5126598e-06
2.7059964e-06
2.9279185e-06
3.1798049e-06
3.463387e-06
3.7812205e-06
4.1363482e-06
4.529707e-06
4.9698763e-06
5.4600285e-06
6.0060659e-06
6.6150404e-06
7.2954823e-06
8.0578022e-06
8.9147995e-06
9.8823007e-06
1.0979944e-05
1.2232138e-05
1.366923e-05
1.5328936e-05
1.7258059e-05
1.9514537e-05
2.2169897e-05
2.5312382e-05
2.9050801e-05
3.3518786e-05
3.8877593e-05
4.5638246e-05
5.3479601e-05
6.2957621e-05
7.4431155e-05
8.8336342e-05
0.00010520254
0.00012567187
0.00015052271
0.00018231541
0.0002192299
0.0002640506
0.0003184747
0.00038826523
0.0004691035
0.0005672553
0.00068645508
0.00083126129
0.0010072386
0.0010212902
0.0010200472
0.0010187497
0.0010173933
0.0010159729
0.001014483
0.0010129177
0.0010112704
0.001009534
0.0010078008
0.0010063239
0.0010050704
0.001004013
0.0010031289
0.0010023963
0.001001795
0.0010013207
0.001000971
0.0010006939
0.0010004641
0.0010004535
0.0010005779
5.0252107e-07
2.7597793e-06
2.9492668e-06
2.1145169e-06
2.051862e-06
1.7535945e-06
1.7153447e-06
1.6632276e-06
1.6922181e-06
1.7482525e-06
1.8449963e-06
1.9638801e-06
2.1156611e-06
2.29428e-06
2.4999817e-06
2.7331994e-06
2.9956204e-06
3.2893299e-06
3.6169978e-06
3.9817405e-06
4.3872166e-06
4.8352029e-06
5.3346131e-06
5.889615e-06
6.507215e-06
7.1959093e-06
7.9661007e-06
8.8306216e-06
9.8053881e-06
1.0910201e-05
1.2169718e-05
1.361465e-05
1.5283188e-05
1.7222736e-05
1.9491906e-05
2.2162997e-05
2.5325109e-05
2.9246982e-05
3.3780021e-05
3.9217928e-05
4.5761922e-05
5.3657447e-05
6.3201999e-05
7.4756318e-05
8.8759027e-05
0.00010574251
0.00012635342
0.00015270275
0.00018330013
0.00022044373
0.00026553941
0.00032029522
0.00039043102
0.00047174904
0.00057048966
0.00069041783
0.00083613247
0.0010132512
0.0010205817
0.0010193468
0.0010180603
0.001016718
0.0010153155
0.0010138479
0.0010123101
0.0010106963
0.0010090003
0.0010073615
0.0010059672
0.0010047858
0.0010037907
0.0010029591
0.0010022688
0.001001702
0.0010012536
0.0010009135
0.0010006352
0.0010004121
0.0010003701
0.001000429
4.0300996e-07
2.0755936e-06
2.2393548e-06
1.6569338e-06
1.5864421e-06
1.4146308e-06
1.3951575e-06
1.3904314e-06
1.4428214e-06
1.5247224e-06
1.6397444e-06
1.777285e-06
1.9431503e-06
2.1340744e-06
2.3507168e-06
2.5941805e-06
2.8663517e-06
3.169493e-06
3.5063186e-06
3.8799597e-06
4.294045e-06
4.752785e-06
5.2611189e-06
5.8249133e-06
6.4512217e-06
7.1486217e-06
7.9276412e-06
8.8012969e-06
9.7857582e-06
1.090116e-05
1.2172592e-05
1.3631304e-05
1.5316162e-05
1.7275349e-05
1.9568409e-05
2.2268854e-05
2.5467252e-05
2.927461e-05
3.3826186e-05
3.9287332e-05
4.5860621e-05
5.3792585e-05
6.3382309e-05
7.499098e-05
8.9058066e-05
0.00010701296
0.00012786473
0.0001531658
0.00018387293
0.00022114702
0.0002663987
0.00032437737
0.00039157338
0.00047315562
0.00057222748
0.00069257528
0.00083882722
0.0010166397
0.0010199311
0.0010187077
0.0010174354
0.0010161104
0.0010147289
0.0010132866
0.001011779
0.0010102013
0.0010085481
0.0010069915
0.0010056693
0.0010045509
0.0010036102
0.0010028243
0.0010021717
0.0010016358
0.0010012098
0.0010008784
0.0010006031
0.0010003891
0.0010003221
0.0010003244
3.0777538e-07
1.602936e-06
1.6665889e-06
1.3050561e-06
1.2346547e-06
1.1466171e-06
1.1476682e-06
1.1779317e-06
1.2512988e-06
1.3536259e-06
1.4837619e-06
1.6366111e-06
1.813538e-06
2.0142752e-06
2.2398165e-06
2.4916382e-06
2.7717351e-06
3.0824525e-06
3.4265142e-06
3.8070462e-06
4.227657e-06
4.6925291e-06
5.2065525e-06
5.7755346e-06
6.406472e-06
7.1078882e-06
7.8902714e-06
8.7666169e-06
9.7531004e-06
1.0869892e-05
1.214216e-05
1.3601275e-05
1.5286249e-05
1.7245423e-05
1.9538602e-05
2.2239784e-05
2.5439694e-05
2.9249262e-05
3.3803746e-05
3.9268953e-05
4.5847397e-05
5.4181428e-05
6.3850687e-05
7.5551619e-05
8.9725454e-05
0.00010690764
0.00012774773
0.00015303398
0.00018372339
0.00022097482
0.00026862536
0.00032392037
0.00039104723
0.00047255543
0.0005715525
0.00069183185
0.00083803225
0.001015826
0.0010193493
0.0010181404
0.0010168852
0.0010155803
0.0010142223
0.0010128076
0.0010113323
0.0010097922
0.001008183
0.0010066948
0.0010054326
0.0010043664
0.0010034708
0.0010027229
0.0010021017
0.001001592
0.0010011845
0.0010008612
0.001000592
0.0010003875
0.0010003005
0.0010002587
1.9429829e-07
1.2541736e-06
1.2072654e-06
1.0383902e-06
9.7603433e-07
9.4415625e-07
9.67588e-07
1.02596e-06
1.1190086e-06
1.2387689e-06
1.3824391e-06
1.5479885e-06
1.7354815e-06
1.9456496e-06
2.1798652e-06
2.4393744e-06
2.7271045e-06
3.0450701e-06
3.3959986e-06
3.783026e-06
4.2097836e-06
4.6804537e-06
5.1998563e-06
5.7737356e-06
6.4090306e-06
7.1141958e-06
7.8996636e-06
8.7783734e-06
9.7664535e-06
1.0884039e-05
1.2156271e-05
1.3614496e-05
1.5297644e-05
1.7253913e-05
1.96169e-05
2.2330879e-05
2.5545504e-05
2.937161e-05
3.3944837e-05
3.9431607e-05
4.6034363e-05
5.3998309e-05
6.3621404e-05
7.52657e-05
8.9368921e-05
0.0001064629
0.0001271927
0.00015370113
0.00018444244
0.00022174239
0.00026700934
0.0003219557
0.00038866543
0.0004696771
0.00056808628
0.00068767325
0.00083306273
0.0010099112
0.0010188479
0.0010176562
0.0010164205
0.001015138
0.0010138056
0.0010124202
0.0010109782
0.0010094762
0.0010079103
0.0010064749
0.0010052588
0.0010042329
0.0010033718
0.0010026527
0.0010020558
0.0010015662
0.0010011724
0.0010008556
0.0010005931
0.0010003954
0.0010002911
0.0010002148
2.586459e-07
1.002418e-06
8.8189323e-07
8.3011679e-07
7.9691633e-07
7.9823624e-07
8.4019546e-07
9.1683723e-07
1.0222627e-06
1.1513508e-06
1.3014677e-06
1.4718671e-06
1.662966e-06
1.8758156e-06
2.1119056e-06
2.3730405e-06
2.6613348e-06
2.9792197e-06
3.3294744e-06
3.7152739e-06
4.1402114e-06
4.6083146e-06
5.1238853e-06
5.6928176e-06
6.3220106e-06
7.0198908e-06
7.7968179e-06
8.6656404e-06
9.6423604e-06
1.074696e-05
1.2004392e-05
1.3445744e-05
1.5109614e-05
1.7043825e-05
1.9307538e-05
2.1973446e-05
2.5130555e-05
2.8887738e-05
3.3378741e-05
3.8767162e-05
4.5251324e-05
5.3071879e-05
6.3006687e-05
7.4529214e-05
8.8482234e-05
0.00010539159
0.00012589543
0.0001507684
0.00018095124
0.00021758704
0.00026206555
0.00031607784
0.00038168319
0.00046139158
0.00055826553
0.00067604709
0.00081931593
0.00099367587
0.0010184401
0.001017268
0.0010160542
0.0010147959
0.0010134906
0.0010121355
0.0010107278
0.0010092643
0.001007742
0.0010063408
0.0010051548
0.001004155
0.0010033159
0.0010026153
0.0010020336
0.0010015563