/*--------------------------------*- C++ -*----------------------------------*\
  =========                 |
  \\      /  F ield         | OpenFOAM: The Open Source CFD Toolbox
   \\    /   O peration     | Website:  https://openfoam.org
    \\  /    A nd           | Version:  6
     \\/     M anipulation  |
\*---------------------------------------------------------------------------*/
FoamFile
{
    version     2.0;
    format      ascii;
    class       volScalarField;
    location    "600";
    object      omega;
}
// * * * * * * * * * * * * * * * * * * * * * * * * * * * * * * * * * * * * * //

dimensions      [0 0 -1 0 0 0 0];

internalField   nonuniform List<scalar> 
16000
(
1420.9332
1499.3732
770.89148
496.54917
334.12966
257.31233
192.62459
159.7013
129.14258
110.46506
93.570327
81.485525
70.938233
62.639218
55.513166
49.650135
44.65597
40.43444
36.801966
33.67409
30.954862
28.583018
26.501268
24.667342
23.044817
21.604786
20.322766
19.178612
18.155333
17.238709
16.416744
15.679305
15.0177
14.424414
13.892911
13.417447
12.992913
12.614722
12.278705
11.981025
11.718139
11.486821
11.284051
11.106993
10.953003
10.81963
10.704586
10.605767
10.521271
10.449412
10.388759
10.338212
10.297214
10.266394
10.245335
10.231944
10.223555
10.217185
10.210719
10.203113
10.193611
10.18217
10.168499
10.152057
10.132557
10.110429
10.087036
10.064746
10.044742
10.027952
10.012983
10.002228
9.9911493
9.9861845
9.9786502
9.9870005
9.9820999
10.02205
9.9918207
10.033617
1328.3511
1540.3429
772.88642
503.96297
336.06776
261.12572
194.26612
161.81125
130.35155
111.62297
94.333707
82.086451
71.343947
62.90013
55.713815
49.813505
44.785518
40.539461
36.886892
33.74344
31.011897
28.630492
26.541314
24.701614
23.074628
21.631166
20.346529
19.200383
18.17558
17.257754
16.434799
15.696506
15.034137
14.440131
13.907924
13.431759
13.006517
12.627611
12.290878
11.992485
11.728873
11.496826
11.293333
11.115566
10.960881
10.826836
10.711147
10.611705
10.526598
10.454118
10.39279
10.34141
10.299139
10.265774
10.242397
10.227458
10.218341
10.211797
10.205414
10.198309
10.190145
10.179903
10.167379
10.151985
10.133335
10.111658
10.088309
10.065718
10.045568
10.028421
10.01357
10.002229
9.9919779
9.9869983
9.9795029
9.9849555
9.9812836
10.01769
9.9921689
10.034312
1088.7429
1580.1777
772.73428
510.56105
337.31436
264.4413
195.56272
163.58888
131.33457
112.52296
94.903591
82.466472
71.565728
63.054215
55.822419
49.892766
44.839863
40.576008
36.909965
33.756458
31.017708
28.631225
26.538717
24.696923
23.068819
21.624967
20.340494
19.194906
18.170928
17.254073
16.432139
15.694851
15.033444
14.440317
13.908893
13.433404
13.008731
12.630289
12.29393
11.995831
11.732418
11.500485
11.297039
11.119259
10.964505
10.83035
10.714518
10.614902
10.529589
10.456858
10.395213
10.343398
10.300453
10.26586
10.239978
10.223283
10.213287
10.206487
10.200064
10.19299
10.185076
10.176009
10.164873
10.150759
10.133187
10.112193
10.089035
10.066282
10.046003
10.028677
10.013885
10.002263
9.9924352
9.9875467
9.9804098
9.9840288
9.9812767
10.014032
9.9923871
10.031373
1114.962
1614.6508
770.95135
516.28498
337.98213
267.18442
196.57249
164.96553
132.09776
113.10784
95.260135
82.603993
71.641426
63.096716
55.834431
49.883535
44.815472
40.540962
36.868576
33.710924
30.970428
28.58367
26.492186
24.652214
23.026545
21.585523
20.304147
19.161796
18.141106
17.227492
16.408665
15.674309
15.015638
14.425033
13.895905
13.42249
12.999676
12.622882
12.287982
11.991183
11.728885
11.497899
11.295254
11.118145
10.963934
10.830215
10.714728
10.615372
10.530242
10.457612
10.395975
10.344048
10.300805
10.265548
10.238114
10.219436
10.208397
10.201272
10.194775
10.187666
10.179778
10.170922
10.160722
10.148159
10.131938
10.111893
10.089123
10.066341
10.046012
10.028622
10.0139
10.00214
9.9926405
9.9872068
9.9812833
9.9840256
9.9815337
10.009894
9.992736
10.02972
1138.9406
1641.1116
767.91283
521.02453
338.09333
269.27286
197.29995
165.87972
132.6277
113.32845
95.374454
82.595902
71.597105
63.026834
55.748734
49.785051
44.711485
40.433678
36.762105
33.606353
30.869631
28.487471
26.401438
24.567271
22.947635
21.512711
20.237406
19.101011
18.086103
17.178026
16.364422
15.634942
14.980804
14.394377
13.869071
13.399136
12.979476
12.605519
12.273167
11.978669
11.7184
11.489191
11.288096
11.112334
10.95927
10.826526
10.711862
10.613191
10.528621
10.456428
10.395103
10.343354
10.300118
10.26461
10.236439
10.21594
10.20366
10.196136
10.189541
10.182367
10.17445
10.165636
10.155678
10.144077
10.129507
10.110708
10.088554
10.06588
10.04559
10.028243
10.013636
10.001868
9.9926377
9.9868872
9.9819518
9.9839498
9.9820118
10.00619
9.9932152
10.026424
1160.6434
1655.7631
764.11291
524.64573
337.68835
270.60185
197.75761
166.25014
132.9058
113.22563
95.2444
82.439385
71.429857
62.842257
55.563022
49.59553
44.526233
40.252805
36.58936
33.44176
30.714473
28.341944
26.265904
24.44163
22.831726
21.406251
20.140065
19.012404
18.005824
17.105627
16.299401
15.576774
14.928991
14.348419
13.828478
13.363442
12.94824
12.578314
12.249592
11.9584
11.701072
11.474463
11.275662
11.101917
10.950598
10.819359
10.705989
10.608418
10.524775
10.453346
10.392626
10.341321
10.298352
10.262885
10.234395
10.212834
10.199077
10.191063
10.184351
10.177094
10.169122
10.160299
10.150425
10.139164
10.12582
10.108601
10.087324
10.064905
10.04475
10.027543
10.013102
10.001432
9.9924427
9.9865323
9.9823876
9.9837641
9.9825921
10.003354
9.9937173
10.02424
1180.0929
1656.0077
759.82851
526.96361
336.82328
271.04707
197.96079
165.98427
132.8968
112.92427
94.965426
82.135
71.138992
62.543102
55.276903
49.314961
44.259547
39.99832
36.350328
33.217241
30.505086
28.14728
26.085815
24.27558
22.679142
21.266503
20.012514
18.896388
17.9007
17.01074
16.214059
15.500264
14.860655
14.28761
13.774567
13.315832
12.906373
12.541653
12.217617
11.930709
11.67721
11.453999
11.258205
11.087125
10.938122
10.808892
10.697264
10.601185
10.518816
10.448457
10.388614
10.337998
10.295527
10.260341
10.231842
10.209799
10.194652
10.186035
10.17919
10.171836
10.163792
10.154935
10.14509
10.133989
10.121152
10.10552
10.085425
10.063416
10.043497
10.026523
10.012313
10.000827
9.9920705
9.9861503
9.9825907
9.9833667
9.9831853
10.000976
9.9941851
10.021758
1197.3783
1651.2921
754.60069
527.78968
335.577
270.48225
197.92754
165.34213
132.5354
112.42998
94.538685
81.685363
70.724903
62.13046
54.890588
48.943857
43.911638
39.670532
36.045266
32.933099
30.241799
27.903842
25.861574
24.06956
22.490355
21.093974
19.855283
18.753515
17.771292
16.893933
16.108968
15.405985
14.776362
14.212503
13.707872
13.256818
12.854365
12.496001
12.177668
11.895989
11.647176
11.428129
11.236021
11.06822
10.922077
10.795331
10.685865
10.591644
10.510873
10.441869
10.383155
10.333453
10.291686
10.256981
10.228698
10.206481
10.190403
10.181038
10.174045
10.166584
10.158458
10.149551
10.139708
10.128703
10.11617
10.101416
10.082864
10.061434
10.041852
10.025202
10.011292
10.000065
9.9915481
9.9857328
9.9826113
9.9828151
9.9837261
9.9987348
9.9945017
10.019501
1212.6379
1647.7815
748.31314
526.96322
334.03566
268.76904
197.63597
164.43771
131.89174
111.75135
93.965952
81.094427
70.188785
61.606354
54.40505
48.483402
43.483383
39.270297
35.674992
32.590163
29.925435
27.61247
25.594031
23.824448
22.266262
20.889571
19.669292
18.584702
17.618514
16.756113
15.985026
15.294808
14.676958
14.123911
13.629171
13.187136
12.792902
12.442007
12.130333
11.854781
11.61146
11.397295
11.209503
11.045553
10.90277
10.778944
10.672023
10.579993
10.501111
10.433719
10.37636
10.327774
10.286892
10.252843
10.224962
10.20283
10.186372
10.176057
10.168904
10.16133
10.153115
10.144149
10.134293
10.123349
10.111021
10.096802
10.079653
10.058989
10.039842
10.023601
10.010065
9.999163
9.9909102
9.985288
9.9824993
9.9823878
9.9841957
9.9966707
9.9947251
10.017112
1226.0395
1645.1086
741.14897
524.24917
332.27721
266.65697
197.01923
163.29936
131.09242
110.8963
93.248017
80.365893
69.531646
60.972609
53.821269
47.93481
42.975765
38.798612
35.2405
32.189475
29.557067
27.274266
25.284312
23.541397
22.008036
20.654482
19.455732
18.391141
17.443537
16.598427
15.84336
15.167828
14.563493
14.022841
13.53942
13.107679
12.722815
12.380455
12.076316
11.807723
11.570642
11.362022
11.179107
11.019529
10.880558
10.760035
10.656002
10.566454
10.489718
10.424163
10.368358
10.321064
10.281226
10.247979
10.220647
10.198768
10.182159
10.171081
10.163756
10.156067
10.147759
10.138732
10.128856
10.117955
10.105781
10.091951
10.075807
10.056123
10.037506
10.021755
10.008662
9.9981447
9.9901927
9.9848273
9.9822921
9.9820682
9.984589
9.9948514
9.9948606
10.014678
1237.7834
1642.8119
733.21933
519.31216
330.32296
264.20093
195.96179
161.94524
130.13808
109.87323
92.385985
79.503635
68.754831
60.23124
53.140543
47.299531
42.390106
38.256744
34.743139
31.732426
29.13813
26.890694
24.933911
23.221945
21.717229
20.390264
19.216163
18.174371
17.247867
16.422334
15.685397
15.026413
14.437272
13.910531
13.439785
13.019537
12.645098
12.312293
12.01645
11.755567
11.525397
11.322919
11.145361
10.990613
10.85585
10.738956
10.638105
10.551282
10.476906
10.413378
10.359294
10.31344
10.274781
10.24246
10.2158
10.194309
10.177718
10.166104
10.158592
10.150789
10.142392
10.133304
10.123406
10.112541
10.100494
10.086948
10.071387
10.052888
10.034887
10.019702
10.007119
9.99704
9.9894316
9.9843658
9.9820314
9.9818492
9.9849134
9.9933727
9.9950006
10.012433
1248.1257
1640.2748
724.70594
511.71129
328.16885
261.46381
194.44116
160.39554
129.02923
108.69109
91.381456
78.511549
67.859974
59.384259
52.364309
46.579133
41.727982
37.646173
34.177891
31.2138
28.663634
26.457142
24.538677
22.862446
21.390674
20.094195
18.94826
17.932421
17.029823
16.226399
15.509947
14.869565
14.29746
13.786284
13.329698
12.922246
12.559338
12.237257
11.951686
11.699164
11.476484
11.280679
11.108854
10.959322
10.8291
10.71609
10.618664
10.534756
10.462908
10.401556
10.349326
10.305032
10.267659
10.236365
10.210477
10.189487
10.173064
10.161128
10.153408
10.145497
10.137014
10.127869
10.117954
10.107126
10.095199
10.081908
10.066852
10.049348
10.03204
10.01749
10.005476
9.9958825
9.9886626
9.983923
9.9817589
9.9817146
9.9851631
9.9922753
9.9951416
10.010591
1257.3497
1636.6197
715.79122
503.58529
325.74435
258.50868
192.8226
158.66649
127.7632
107.35609
90.234586
77.391748
66.847805
58.43272
51.481623
45.759818
40.975231
36.954912
33.545772
30.636442
28.137561
25.978206
24.103502
22.467953
21.033409
19.771208
18.656805
17.669877
16.79375
16.014681
15.320855
14.700863
14.147369
13.653149
13.211962
12.818377
12.467765
12.156962
11.881527
11.638098
11.423555
11.235067
11.07022
10.926208
10.800807
10.69185
10.59804
10.517175
10.447972
10.388901
10.338622
10.295977
10.259971
10.22978
10.20474
10.18434
10.168213
10.156162
10.148205
10.140192
10.131631
10.122439
10.112514
10.101729
10.089919
10.076864
10.062249
10.045575
10.029026
10.015168
10.003774
9.9947082
9.9879181
9.9835182
9.9815106
9.9816508
9.9853106
9.991477
9.9952864
10.009035
1265.7526
1630.7053
706.61883
495.00546
322.89127
255.37475
191.09784
156.77583
126.33885
105.87458
88.946601
76.146379
65.693107
57.348059
50.485564
44.842498
40.137002
36.189389
32.849027
30.002829
27.562653
25.456747
23.63126
22.041428
20.648389
19.424211
18.344638
17.389506
16.542284
15.789584
15.120453
14.522482
13.989009
13.512972
13.088281
12.709568
12.371874
12.072993
11.808229
11.574345
11.368293
11.187223
11.029093
10.890974
10.770772
10.666668
10.576619
10.49886
10.432361
10.375631
10.327358
10.286416
10.251834
10.222799
10.198661
10.178913
10.16318
10.151225
10.142985
10.134882
10.126255
10.117026
10.107103
10.09637
10.084681
10.071852
10.05763
10.04165
10.025912
10.012793
10.002058
9.9935542
9.9872289
9.9831733
9.9813195
9.9816584
9.9853468
9.9906064
9.9954107
10.00779
1273.6378
1620.8259
697.32656
486.01416
319.28839
252.09786
189.2502
154.73852
124.75434
104.25018
87.47309
74.717869
64.384556
56.132771
49.376121
43.828092
39.215095
35.351932
32.090524
29.316068
26.942379
24.896379
23.125484
21.586514
20.239204
19.056688
18.015126
17.094556
16.278533
15.55381
14.909014
14.334583
13.822443
13.365726
12.95855
12.595838
12.273176
11.986697
11.732985
11.508969
11.311725
11.138171
10.986945
10.854842
10.739789
10.64026
10.554217
10.48015
10.416353
10.36197
10.315717
10.276499
10.243367
10.21552
10.192314
10.173254
10.15796
10.14617
10.137758
10.129579
10.120899
10.111647
10.10174
10.091072
10.079515
10.066908
10.053047
10.037658
10.022767
10.010419
10.000371
9.9924566
9.9866221
9.9829127
9.9812203
9.9817391
9.9853344
9.9899201
9.9954461
10.006743
1281.2834
1604.4272
688.026
476.65364
315.56821
248.70884
187.25197
152.56423
123.00759
102.38689
85.782108
73.108422
62.918363
54.785209
48.153485
42.717992
38.212071
34.445714
31.274172
28.58022
26.281261
24.301799
22.590532
21.103753
19.806078
18.668628
17.668115
16.784856
16.00245
15.308146
14.69084
14.141225
13.651457
13.21488
12.825807
12.47933
12.171179
11.897615
11.655355
11.441533
11.253581
11.088703
10.944484
10.818505
10.708547
10.613582
10.531423
10.460842
10.40024
10.348154
10.303886
10.266375
10.234692
10.208042
10.185782
10.167431
10.152608
10.141034
10.132541
10.124301
10.115583
10.106324
10.096448
10.085862
10.07445
10.062073
10.048555
10.033685
10.019664
10.008103
9.9987563
9.9914477
9.9861177
9.9827554
9.9812442
9.9819063
9.9852846
9.9893602
9.9953185
10.005794
1288.9206
1577.5883
678.79438
466.89783
311.99415
245.23615
185.07098
150.18441
120.92592
100.26609
83.861224
71.31035
61.290502
53.304032
46.81881
41.514771
37.132034
33.475331
30.405565
27.800624
25.578937
23.672456
22.027182
20.600011
19.356209
18.26719
17.310529
16.467052
15.720135
15.057755
14.469144
13.945297
13.478647
13.062792
12.692272
12.362379
12.069013
11.808559
11.577827
11.374061
11.195144
11.038255
10.901208
10.781656
10.677573
10.587154
10.508703
10.441434
10.383811
10.334435
10.292063
10.256198
10.225929
10.200467
10.17915
10.161512
10.147178
10.135858
10.127356
10.119071
10.110332
10.101083
10.091255
10.080768
10.069518
10.057383
10.044209
10.029818
10.016671
10.005898
9.9972522
9.9905544
9.985729
9.982711
9.9814061
9.982181
9.9852527
9.9888975
9.9950762
10.004923
1296.6999
1534.0482
669.52238
456.65143
308.45989
241.68151
183.15656
147.45582
118.4898
97.865862
81.695693
69.313902
59.496758
51.688741
45.374992
40.222821
35.981534
32.447194
29.482456
26.976973
24.844723
23.018432
21.444944
20.081987
18.895913
17.858111
16.94743
16.145891
15.435859
14.806464
14.247333
13.749822
13.306683
12.911808
12.559997
12.246779
11.968257
11.720971
11.501788
11.307787
11.137743
10.988581
10.858492
10.745095
10.646404
10.560727
10.486509
10.422316
10.367474
10.32062
10.280465
10.246128
10.217201
10.192898
10.172505
10.155572
10.14173
10.130688
10.12223
10.11392
10.105179
10.095956
10.086193
10.07582
10.06475
10.052875
10.040059
10.026136
10.013854
10.003853
9.9958929
9.9897962
9.9854628
9.9827837
9.981704
9.9825647
9.9852992
9.9886081
9.9948549
10.00405
1304.4533
1477.5217
659.58192
445.72575
304.79647
239.17526
180.82655
144.26685
115.66652
95.148527
79.264959
67.107562
57.533275
49.9407
43.828198
38.849021
34.754938
31.358987
28.517987
26.122639
24.088255
22.348802
20.852283
19.557266
18.432397
17.447875
16.584069
15.823282
15.150974
14.555159
14.025914
13.554992
13.135506
12.761664
12.428559
12.131983
11.868281
11.634226
11.426933
11.243785
11.082387
10.940472
10.817045
10.709589
10.616068
10.534889
10.464594
10.403867
10.351524
10.307044
10.268923
10.236351
10.208625
10.185436
10.165934
10.149685
10.136329
10.125577
10.117202
10.108887
10.100162
10.090983
10.0813
10.071055
10.060177
10.048577
10.036141
10.022712
10.01127
10.002011
9.9947065
9.9891832
9.9853166
9.9829677
9.9821136
9.983023
9.9854489
9.988537
9.9945921
10.003114
1312.0331
1428.6021
649.08583
439.50432
303.0342
235.20664
177.37745
140.56471
112.40268
92.08598
76.551721
64.686549
55.40318
48.067427
42.170887
37.389437
33.471385
30.230543
27.525947
25.250396
23.32124
21.674233
20.259136
19.033941
17.969352
17.039811
16.224569
15.506706
14.87236
14.310132
13.810615
13.36601
12.969823
12.616609
12.301766
12.021358
11.77197
11.550589
11.354506
11.181263
11.028666
10.894692
10.777429
10.675634
10.587026
10.510095
10.443461
10.385873
10.336208
10.293956
10.257719
10.226728
10.200315
10.178181
10.159523
10.143926
10.131041
10.12058
10.112314
10.104014
10.095326
10.086209
10.076621
10.066513
10.055829
10.044505
10.032462
10.019605
10.008968
10.000411
9.9937172
9.9887216
9.9852829
9.9832474
9.9825993
9.9835201
9.985713
9.9886594
9.994222
10.002034
1318.9891
1404.0049
640.76445
441.1987
302.90582
229.77995
173.29738
136.24652
108.64064
88.653246
73.548198
62.056683
53.120964
46.065412
40.427988
35.87291
32.151509
29.080747
26.523346
24.375381
22.557028
21.006173
19.671721
18.518959
17.517656
16.643493
15.876783
15.201513
14.604597
14.075302
13.604788
13.185746
12.812099
12.478765
12.181453
11.916507
11.680762
11.471428
11.285983
11.122044
10.977548
10.850648
10.740147
10.643667
10.559665
10.486719
10.423521
10.368881
10.32174
10.281566
10.247086
10.217571
10.192384
10.17123
10.153359
10.138372
10.125931
10.115756
10.107613
10.099352
10.090722
10.081687
10.07221
10.062248
10.051753
10.040676
10.028958
10.016859
10.006983
9.9990823
9.9929504
9.9884271
9.9853633
9.9836078
9.9831462
9.9840666
9.9860173
9.9886707
9.9936995
10.000655
1323.8824
1408.4633
633.29978
435.82471
298.34455
223.79994
168.2726
131.36531
104.36385
84.855487
70.269557
59.241744
50.686702
43.973389
38.631842
34.328774
30.821539
27.93269
25.53022
23.514786
21.810621
20.354932
19.104471
18.02425
17.085748
16.266081
15.546774
14.912829
14.352018
13.854329
13.411531
13.016827
12.664574
12.350051
12.069274
11.81885
11.595854
11.397749
11.222331
11.06715
10.930179
10.81049
10.705646
10.614067
10.534304
10.465022
10.404991
10.353072
10.3083
10.270026
10.237157
10.208999
10.184941
10.164681
10.147528
10.1331
10.121071
10.111165
10.103153
10.094954
10.086406
10.077477
10.068132
10.058334
10.048042
10.03721
10.025789
10.014504
10.005335
9.9980423
9.9924255
9.9883242
9.9855831
9.9840641
9.9837549
9.9846605
9.9864017
9.9888109
9.9932732
9.9991766
1324.4548
1421.4104
623.99031
425.40059
292.28227
216.65407
162.24456
125.77823
99.550471
80.689378
66.733481
56.247834
48.15724
41.835971
36.822447
32.792191
29.512102
26.812737
24.568761
22.686239
21.09382
19.736669
18.568914
17.559457
16.681693
15.914325
15.240191
14.645385
14.118584
13.65053
13.233624
12.861594
12.529234
12.232182
11.966743
11.729741
11.518402
11.330263
11.164169
11.017304
10.887833
10.774049
10.674345
10.587198
10.511245
10.445242
10.388074
10.338535
10.296069
10.259489
10.228056
10.201118
10.178098
10.158633
10.14212
10.128192
10.116533
10.106875
10.098991
10.090878
10.082435
10.073635
10.064447
10.054838
10.044771
10.034208
10.023106
10.012555
10.004025
9.9972817
9.9921304
9.988407
9.9859531
9.9846436
9.9844572
9.9853353
9.9869338
9.9892262
9.9932291
9.9983483
1317.9421
1377.8007
614.85851
413.90745
284.24533
208.22056
155.20188
119.52506
94.277699
76.248788
63.039137
53.173589
45.607855
39.715586
35.051783
31.306675
28.259976
25.752524
23.666983
21.915715
20.432337
19.165923
18.076935
17.134341
16.313551
15.594914
14.962612
14.403845
13.908198
13.467168
13.073781
12.722289
12.407927
12.126705
11.875244
11.650634
11.450317
11.272058
11.113845
10.973835
10.850325
10.741743
10.646637
10.563436
10.490826
10.427594
10.373115
10.32596
10.28523
10.25011
10.219899
10.193983
10.171971
10.15319
10.137228
10.123731
10.112393
10.102952
10.095186
10.087181
10.078866
10.070216
10.061205
10.051804
10.041982
10.031705
10.020937
10.011023
10.003047
9.9967801
9.9920307
9.988632
9.9864271
9.985301
9.985214
9.9860623
9.9875607
9.9897706
9.993386
9.997823
1301.3798
1323.899
605.74158
400.0146
274.44653
198.67664
147.30808
112.78064
88.73401
71.709875
59.342638
50.1496
43.141349
37.693684
33.385151
29.924843
27.107279
24.785844
22.852219
21.225744
19.84548
18.664769
17.647428
16.765072
15.995204
15.319832
14.724463
14.197358
13.728957
13.311449
12.938428
12.604614
12.305631
12.037827
11.798121
11.583881
11.39261
11.222227
11.070843
10.93671
10.818204
10.713798
10.622766
10.543129
10.473642
10.413171
10.36068
10.315232
10.275987
10.242104
10.212901
10.188008
10.166679
10.148459
10.132948
10.119805
10.10873
10.09947
10.091804
10.083926
10.075758
10.067277
10.058459
10.049281
10.039715
10.029733
10.019306
10.00992
10.0024
9.9965249
9.9921038
9.9889685
9.9869664
9.9859889
9.9859755
9.9867977
9.988234
9.9903809
9.9936721
9.9975579
1269.2814
1269.9996
597.88897
383.54868
262.42669
187.77101
138.45079
105.53546
82.973702
67.141419
55.710019
47.232141
40.78983
35.789515
31.835879
28.65889
26.0622
23.917645
22.126672
20.616047
19.330522
18.227823
17.275159
16.446766
15.722197
15.085071
14.522164
14.022741
13.578041
13.180894
12.825401
12.506689
12.220705
11.964049
11.733825
11.528438
11.3449
11.181279
11.035813
10.906874
10.792949
10.692622
10.604562
10.527522
10.460232
10.401603
10.350633
10.306408
10.268446
10.235674
10.207441
10.183171
10.162358
10.14456
10.129388
10.116509
10.105631
10.096504
10.088913
10.081179
10.073173
10.064875
10.056263
10.047317
10.038013
10.028327
10.018233
10.00925
10.002079
9.9964993
9.9923237
9.9893831
9.9875301
9.9866586
9.9866889
9.9874837
9.9888764
9.99096
9.9939732
9.9974177
1219.2494
1203.2403
586.66678
364.09612
247.35132
175.76623
129.41564
98.742486
77.913665
63.330284
52.788801
44.94383
38.969219
34.325187
30.646002
27.682405
25.260138
23.25471
21.575465
20.155213
18.943337
17.901096
16.998394
16.211505
15.521611
14.913619
14.375327
13.896811
13.469965
13.088141
12.745868
12.438623
12.162646
11.914779
11.692344
11.49294
11.31453
11.155284
11.01353
10.887719
10.776404
10.67822
10.591877
10.516746
10.451102
10.393896
10.344166
10.301032
10.263701
10.231458
10.203667
10.179765
10.159255
10.141702
10.126725
10.113994
10.103221
10.094159
10.086591
10.079018
10.071187
10.063081
10.054684
10.045975
10.036936
10.027546
10.017786
10.00906
10.00211
9.9967175
9.9926919
9.9898661
9.9880973
9.9872782
9.9873134
9.9880683
9.9894267
9.991469
9.994286
9.9974272
1161.4678
1124.3845
560.73887
340.09726
226.37011
159.17401
117.18212
89.758016
71.309231
58.432231
49.124483
42.189633
36.877398
32.713077
29.387749
26.689274
24.468426
22.617968
21.059336
19.733929
18.597311
17.615299
16.760895
16.013203
15.355369
14.7738
14.257429
13.797205
13.385689
13.016754
12.685334
12.387226
12.118917
11.87745
11.661112
11.4669
11.292899
11.137395
10.998821
10.87572
10.766718
10.670516
10.585881
10.51165
10.446733
10.390115
10.34086
10.298109
10.261086
10.229092
10.201501
10.177759
10.157375
10.139921
10.125019
10.112342
10.101605
10.092561
10.084996
10.077587
10.069931
10.062014
10.053818
10.045327
10.036525
10.027392
10.017912
10.009308
10.00246
9.9971472
9.9931783
9.990386
9.9886295
9.9877953
9.987777
9.9884561
9.989753
9.9916915
9.9942392
9.9970863
1123.5328
1166.5018
572.05085
343.58087
226.79889
158.41307
116.18655
89.01405
70.852213
58.192408
49.028318
42.177732
36.917817
32.788075
29.483726
26.796262
24.579333
22.727893
21.165008
19.833297
18.689206
17.699124
16.837098
16.082248
15.417852
14.830328
14.308592
13.843554
13.427732
13.054955
12.720113
12.418964
12.147968
11.90414
11.684946
11.488193
11.311886
11.154231
11.013649
10.88868
10.777953
10.680168
10.594094
10.518565
10.452489
10.394844
10.344686
10.301148
10.263443
10.230861
10.202766
10.178595
10.157847
10.140084
10.12492
10.11202
10.101092
10.091883
10.084173
10.076957
10.069501
10.061791
10.05381
10.045544
10.036976
10.02809
10.018867
10.010134
10.003189
9.9978004
9.9937698
9.9909248
9.9891196
9.9882313
9.9881472
9.988762
9.9900055
9.9918496
9.994221
9.9969512
1158.6904
1233.8662
593.35269
359.01394
236.34514
165.10361
120.83766
92.383309
73.352252
60.100377
50.513402
43.351707
37.856867
33.546482
30.101096
27.302426
24.997173
23.075207
21.455773
20.07857
18.897811
17.878174
16.991993
16.217244
15.536292
14.934876
14.401383
13.926303
13.501818
13.121481
12.779962
12.472839
12.196422
11.947618
11.723803
11.522719
11.342433
11.18121
11.037421
10.909561
10.796227
10.696095
10.607916
10.530507
10.46276
10.403638
10.352181
10.307507
10.268814
10.235376
10.206545
10.181743
10.160457
10.142237
10.126689
10.113467
10.102272
10.092844
10.084955
10.077965
10.070739
10.063265
10.055526
10.047509
10.039197
10.030575
10.021625
10.01248
10.00518
9.9994881
9.9951959
9.992125
9.9901225
9.9890566
9.9888113
9.9892864
9.9904053
9.9921058
9.9943133
9.9969496
30432.104
33269.514
19028.936
13109.601
9457.0495
6863.9369
4996.3829
3658.4942
2698.5104
2006.9617
1501.672
1131.3087
854.70995
652.33255
495.27422
378.15356
286.37511
217.60787
166.66614
129.21051
101.39047
80.93429
65.80496
54.59093
46.230125
39.894661
35.042843
31.258284
28.248874
25.789812
23.731953
21.98218
20.473967
19.160295
18.007282
16.990091
16.089979
15.292345
14.585484
13.959835
13.407191
12.920325
12.492907
12.119221
11.794015
11.512435
11.269981
11.06252
10.88632
10.7384
10.616741
10.518396
10.438983
10.375896
10.327307
10.291304
10.266108
10.248571
10.235176
10.22407
10.212561
10.201414
10.186841
10.172811
10.151223
10.133354
10.102845
10.083854
10.044509
10.029236
10.000371
9.9948072
9.9688826
9.9759655
9.947633
9.9768953
9.9482109
9.9983174
9.9604595
9.9982549
33551.6
28539.656
21679.71
16326.022
12025.97
8714.1387
6294.0261
4554.5367
3314.9248
2429.3447
1791.6628
1327.8402
988.38004
738.09437
553.00038
415.73661
313.81665
238.29902
182.32378
140.86636
110.05208
87.299201
70.464959
58.024647
48.785032
41.805897
36.483284
32.358568
29.106968
26.477308
24.289114
22.437389
20.848805
19.470647
18.265129
17.204646
16.268506
15.440695
14.708448
14.061418
13.49075
12.988715
12.548542
12.16419
11.830095
11.541156
11.292639
11.080202
10.899882
10.748467
10.623999
10.522863
10.440997
10.375929
10.325779
10.289313
10.264099
10.246774
10.23369
10.222966
10.211781
10.201001
10.18668
10.172993
10.151542
10.133929
10.103433
10.084537
10.045607
10.030556
10.001312
9.9960308
9.9698121
9.9770972
9.9487562
9.977744
9.949519
9.9993523
9.9616709
9.9997016
36956.349
20270.86
12963.41
8151.4619
4424.9899
2108.1496
958.97122
465.71779
268.70167
184.89756
145.06323
120.48967
104.09686
90.875622
80.546719
72.072518
64.625168
58.715288
53.170107
48.724121
44.469793
40.980269
37.703839
34.929668
32.404966
30.04445
27.954252
26.073589
24.363203
22.797024
21.369244
20.081711
18.922623
17.878925
16.939707
16.095358
15.337414
14.658229
14.051038
13.50993
13.029179
12.603573
12.228429
11.899302
11.612025
11.362634
11.147378
10.962807
10.80574
10.673827
10.565963
10.477418
10.405336
10.348168
10.304832
10.274503
10.253928
10.239795
10.228508
10.218961
10.208109
10.197859
10.18321
10.170016
10.14768
10.130979
10.099209
10.082091
10.04201
10.029928
9.9993324
9.996497
9.9687813
9.9782861
9.9482723
9.9795119
9.9495986
10.001224
9.9620851
10.001237
34208.874
23682.184
13709.466
7438.5683
3320.1782
1276.1217
510.33458
267.52475
189.6633
151.77046
129.73247
111.33768
98.272392
86.398507
77.223228
69.469034
62.439238
57.044605
51.656225
47.525888
43.338805
40.087761
36.812293
34.235972
31.676148
29.470252
27.385536
25.582897
23.888118
22.362489
20.987673
19.748433
18.632183
17.626612
16.721099
15.906444
15.174606
14.518337
13.931272
13.40772
12.942253
12.52996
12.166368
11.847259
11.568621
11.326648
11.11773
10.938556
10.786072
10.658074
10.553117
10.466314
10.395641
10.339731
10.298312
10.269588
10.250222
10.236962
10.226267
10.217138
10.206568
10.196529
10.182027
10.168929
10.146681
10.13001
10.098371
10.081504
10.042037
10.030689
9.9996855
9.99768
9.9693904
9.9796885
9.9492065
9.9810294
9.950625
10.002991
9.9630912
10.00285
36234.506
23213.6
13201.159
6933.4276
2995.6658
1111.8678
451.12788
249.05953
182.36739
146.7649
125.67126
107.7124
95.192706
83.735405
75.256701
67.466613
61.108473
55.393451
50.560544
46.23217
42.473312
39.076523
36.102047
33.395371
30.98589
28.802117
26.835048
25.037379
23.414334
21.949157
20.627721
19.43597
18.361047
17.39153
16.517491
15.730358
15.022626
14.387495
13.818979
13.311662
12.860386
12.460501
12.107728
11.798013
11.527502
11.292525
11.089599
10.915537
10.767405
10.643128
10.540716
10.455496
10.386145
10.331904
10.29236
10.26513
10.246905
10.234423
10.224292
10.215498
10.205223
10.195299
10.181006
10.167873
10.145837
10.129007
10.097708
10.080727
10.042003
10.030589
10.000015
9.9977255
9.970096
9.9800709
9.9501162
9.9818606
9.9516256
10.004407
9.964078
10.004296
36822.197
22817.094
12746.497
6335.8462
2482.5426
851.91488
363.4033
222.12032
173.2242
140.94151
121.81807
104.16327
92.319901
81.081191
73.05809
65.455623
59.371536
53.823349
49.189374
45.007247
41.378658
38.12837
35.245175
32.652523
30.323461
28.217812
26.309449
24.577088
23.008294
21.591346
20.313337
19.16006
18.119272
17.180048
16.332914
15.569691
14.883193
14.266909
13.715096
13.222506
12.784197
12.395719
12.05294
11.751942
11.488997
11.260553
11.063235
10.89397
10.749928
10.629156
10.52883
10.445044
10.377061
10.324903
10.287117
10.261259
10.244063
10.232277
10.222635
10.214126
10.204092
10.194255
10.180125
10.166945
10.145081
10.128096
10.097111
10.080126
10.042134
10.030988
10.00054
9.9984464
9.9708411
9.9809952
9.9510629
9.9828923
9.9526541
10.005901
9.9650771
10.005757
37789.365
22480.263
12243.279
5768.0933
2137.5303
713.61527
323.94699
211.07121
168.32981
137.80149
119.12407
101.77635
90.214517
79.093396
71.339687
63.852123
57.985487
52.569886
48.088373
44.014648
40.498666
37.33173
34.535437
32.011787
29.751019
27.705746
25.853894
24.169635
22.64612
21.270675
20.03004
18.910297
17.899534
16.987161
16.164011
15.422207
14.754821
14.155581
13.618931
13.139767
12.713341
12.335361
12.001816
11.708899
11.452991
11.230641
11.038566
10.873796
10.733593
10.616013
10.51736
10.434896
10.368929
10.318741
10.282564
10.257947
10.241672
10.230493
10.221269
10.212988
10.203151
10.193358
10.179368
10.166107
10.144408
10.127235
10.096612
10.079586
10.04223
10.030992
10.000913
9.9983664
9.971601
9.9816692
9.9520136
9.9838129
9.9536853
10.007351
9.9660762
10.007192
38580.507
22040.32
11679.002
5193.8058
1795.2348