/*--------------------------------*- C++ -*----------------------------------*\
  =========                 |
  \\      /  F ield         | OpenFOAM: The Open Source CFD Toolbox
   \\    /   O peration     | Website:  https://openfoam.org
    \\  /    A nd           | Version:  6
     \\/     M anipulation  |
\*---------------------------------------------------------------------------*/
FoamFile
{
    version     2.0;
    format      ascii;
    class       volScalarField;
    location    "600";
    object      p;
}
// * * * * * * * * * * * * * * * * * * * * * * * * * * * * * * * * * * * * * //

dimensions      [1 -1 -2 0 0 0 0];

internalField   nonuniform List<scalar> 
16000
(
99044.698
99103.124
99107.145
99163.456
99175.672
99227.097
99248.519
99295.565
99324.847
99369.306
99404.523
99448.151
99487.65
99531.676
99574.284
99619.373
99664.308
99710.69
99757.399
99805.01
99853.036
99901.62
99950.515
99999.687
100048.97
100098.25
100147.38
100196.21
100244.61
100292.4
100339.43
100385.53
100430.56
100474.35
100516.73
100557.58
100596.73
100634.06
100669.45
100702.78
100733.96
100762.89
100789.52
100813.78
100835.63
100855.05
100872.03
100886.56
100898.67
100908.37
100915.7
100920.72
100923.47
100924.01
100922.42
100918.76
100913.11
100905.56
100896.16
100885.02
100872.2
100857.8
100841.83
100824.53
100805.63
100785.84
100763.94
100742.39
100716.73
100695.23
100662.76
100646.61
100599.04
100604.26
100513.47
100580.33
100380.8
100606.9
100185.62
100661.27
99094.548
99157.159
99161.146
99221.974
99234.51
99290.113
99312.578
99363.277
99394.303
99441.976
99479.433
99525.998
99568.01
99614.817
99660.037
99707.797
99755.319
99804.25
99853.427
99903.414
99953.708
100004.43
100055.31
100106.29
100157.2
100207.89
100258.19
100307.96
100357.01
100405.18
100452.29
100498.17
100542.65
100585.57
100626.77
100666.11
100703.44
100738.66
100771.64
100802.3
100830.55
100856.34
100879.63
100900.39
100918.6
100934.28
100947.44
100958.12
100966.37
100972.23
100975.77
100977.08
100976.21
100973.26
100968.3
100961.44
100952.74
100942.3
100930.21
100916.54
100901.37
100884.8
100866.85
100847.66
100827.18
100805.67
100782.74
100759.3
100733.63
100709.14
100679.21
100656.53
100616.61
100606.95
100537.19
100573.02
100413.54
100588.69
100216.95
100647.82
99165.533
99233.254
99237.259
99302.979
99316.259
99376.117
99400.155
99454.497
99487.753
99538.643
99578.723
99628.268
99673.064
99722.715
99770.719
99821.204
99871.399
99922.894
99974.546
100026.86
100079.35
100132.08
100184.77
100237.36
100289.61
100341.39
100392.5
100442.77
100492
100540.01
100586.61
100631.62
100674.87
100716.21
100755.46
100792.5
100827.21
100859.47
100889.2
100916.33
100940.81
100962.62
100981.73
100998.17
101011.96
101023.13
101031.75
101037.88
101041.6
101042.99
101042.15
101039.19
101034.18
101027.25
101018.49
101007.99
100995.86
100982.19
100967.06
100950.56
100932.77
100913.76
100893.59
100872.33
100850.01
100826.73
100802.37
100777.28
100750.79
100724.27
100694.87
100668.41
100632.61
100613.15
100556.61
100571.49
100440.47
100575.03
100244.27
100636.91
99259.275
99332.507
99336.549
99407.695
99421.813
99486.397
99512.219
99570.583
99606.365
99660.791
99703.811
99756.618
99804.491
99857.233
99908.264
99961.67
100014.71
100068.9
100123.11
100177.79
100232.45
100287.11
100341.49
100395.47
100448.81
100501.34
100552.85
100603.13
100651.99
100699.22
100744.62
100788.02
100829.25
100868.13
100904.54
100938.34
100969.44
100997.75
101023.22
101045.81
101065.5
101082.32
101096.28
101107.44
101115.86
101121.63
101124.83
101125.59
101124
101120.2
101114.29
101106.41
101096.67
101085.2
101072.11
101057.51
101041.52
101024.22
101005.71
100986.06
100965.37
100943.68
100921.07
100897.58
100873.24
100848.12
100822.17
100795.52
100767.92
100739.88
100710.22
100681.42
100647.66
100622.31
100573.82
100573.65
100464.75
100567.35
100271.77
100637.41
99375.203
99454.678
99458.945
99536.252
99551.528
99621.39
99649.432
99712.221
99750.997
99809.284
99855.666
99912.014
99963.304
100019.37
100073.67
100130.16
100186.18
100243.13
100299.92
100356.92
100413.64
100470.05
100525.86
100580.9
100634.92
100687.72
100739.06
100788.72
100836.49
100882.15
100925.51
100966.38
101004.61
101040.04
101072.55
101102.04
101128.45
101151.73
101171.85
101188.83
101202.69
101213.5
101221.32
101226.26
101228.44
101227.96
101224.98
101219.63
101212.07
101202.44
101190.89
101177.58
101162.63
101146.2
101128.4
101109.36
101089.19
101067.98
101045.83
101022.82
100999.02
100974.49
100949.28
100923.43
100896.97
100869.92
100842.27
100814.07
100785.21
100755.84
100725.49
100695.09
100662.08
100632.85
100589.92
100577.98
100486.96
100564.03
100297.81
100640.74
99515.959
99602.675
99607.252
99691.375
99707.989
99783.581
99814.194
99881.719
99923.89
99986.294
100036.4
100096.53
100151.52
100211.1
100268.86
100328.55
100387.64
100447.36
100506.69
100565.89
100624.47
100682.36
100739.23
100794.88
100849.04
100901.46
100951.91
101000.14
101045.92
101089.05
101129.32
101166.58
101200.66
101231.45
101258.86
101282.82
101303.32
101320.34
101333.92
101344.13
101351.04
101354.77
101355.45
101353.22
101348.25
101340.71
101330.78
101318.63
101304.46
101288.43
101270.73
101251.52
101230.96
101209.2
101186.37
101162.6
101138
101112.67
101086.7
101060.16
101033.12
101005.63
100977.72
100949.43
100920.78
100891.77
100862.4
100832.65
100802.49
100771.91
100740.73
100709.19
100676.32
100644.61
100605.41
100584.45
100508.25
100563.95
100324.06
100647.67
99683.007
99778.054
99782.802
99874.442
99892.592
99974.349
100007.94
100080.51
100126.53
100193.32
100247.55
100311.7
100370.69
100433.98
100495.38
100558.38
100620.57
100683.01
100744.75
100805.92
100866.06
100925
100982.4
101038.03
101091.58
101142.79
101191.4
101237.16
101279.84
101319.23
101355.15
101387.47
101416.06
101440.84
101461.76
101478.83
101492.06
101501.52
101507.3
101509.53
101508.35
101503.94
101496.47
101486.16
101473.22
101457.85
101440.29
101420.75
101399.44
101376.55
101352.3
101326.85
101300.38
101273.04
101244.97
101216.29
101187.12
101157.54
101127.65
101097.51
101067.16
101036.65
101006.02
100975.27
100944.42
100913.45
100882.36
100851.11
100819.65
100787.96
100755.91
100723.51
100690.45
100657.24
100620.64
100593.12
100529.19
100565.87
100350.43
100657.97
99876.428
99980.894
99985.861
100085.93
100106.04
100194.56
100231.74
100309.79
100360.28
100431.83
100490.7
100559.18
100622.54
100689.76
100754.98
100821.35
100886.62
100951.68
101015.58
101078.37
101139.57
101198.96
101256.17
101310.91
101362.87
101411.76
101457.32
101499.29
101537.46
101571.66
101601.72
101627.54
101649.07
101666.27
101679.17
101687.83
101692.34
101692.85
101689.51
101682.53
101672.12
101658.52
101641.97
101622.73
101601.06
101577.22
101551.46
101524.04
101495.17
101465.09
101433.99
101402.08
101369.51
101336.45
101303.03
101269.37
101235.58
101201.73
101167.91
101134.16
101100.52
101067.03
101033.69
101000.52
100967.51
100934.64
100901.88
100869.18
100836.51
100803.8
100770.94
100737.89
100704.52
100670.52
100635.65
100603.63
100550.05
100569.81
100378.4
100670.74
100096.87
100212.17
100217.59
100327.18
100349.82
100445.84
100487.36
100571.42
100627.08
100703.84
100767.9
100841.07
100909.13
100980.48
101049.64
101119.37
101187.59
101254.97
101320.62
101384.47
101446.01
101504.96
101560.94
101613.62
101662.67
101707.81
101748.76
101785.31
101817.26
101844.48
101866.88
101884.41
101897.09
101904.97
101908.14
101906.77
101901.04
101891.17
101877.4
101860.01
101839.29
101815.54
101789.07
101760.18
101729.17
101696.34
101661.97
101626.32
101589.64
101552.16
101514.09
101475.62
101436.92
101398.13
101359.38
101320.78
101282.42
101244.37
101206.69
101169.41
101132.58
101096.19
101060.25
101024.76
100989.68
100955
100920.67
100886.64
100852.85
100819.23
100785.68
100752.13
100718.46
100684.21
100650.4
100615.51
100570.78
100575.57
100408.04
100684.76
100346.23
100474.04
100480.13
100600.45
100626.29
100730.54
100777.27
100867.87
100929.48
101011.87
101081.66
101159.84
101232.88
101308.48
101381.56
101454.48
101525.31
101594.51
101661.21
101725.24
101786.05
101843.33
101896.66
101945.7
101990.12
102029.65
102064.05
102093.14
102116.8
102134.96
102147.61
102154.81
102156.65
102153.3
102144.97
102131.9
102114.38
102092.73
102067.28
102038.39
102006.41
101971.71
101934.64
101895.54
101854.76
101812.6
101769.37
101725.34
101680.76
101635.85
101590.83
101545.87
101501.12
101456.72
101412.78
101369.39
101326.63
101284.54
101243.17
101202.55
101162.68
101123.56
101085.17
101047.51
101010.52
100974.18
100938.42
100903.19
100868.43
100834.04
100799.93
100766.05
100732.18
100698.08
100664.9
100628.61
100591.21
100583.13
100439.23
100698.89
100626.71
100768.87
100775.84
100908.16
100937.99
101051.24
101104.16
101201.87
101270.25
101358.75
101434.78
101518.25
101596.45
101676.27
101753.07
101828.76
101901.57
101971.73
102038.4
102101.29
102159.86
102213.73
102262.48
102305.79
102343.35
102374.94
102400.38
102419.58
102432.5
102439.19
102439.75
102434.36
102423.25
102406.7
102385.04
102358.64
102327.88
102293.18
102254.96
102213.65
102169.66
102123.4
102075.27
102025.65
101974.88
101923.28
101871.17
101818.8
101766.42
101714.25
101662.46
101611.23
101560.67
101510.92
101462.05
101414.14
101367.23
101321.37
101276.57
101232.85
101190.18
101148.55
101107.94
101068.31
101029.61
100991.79
100954.79
100918.54
100882.96
100847.97
100813.48
100779.43
100745.53
100711.86
100679.06
100642.56
100611
100592.09
100470.71
100712
100939.58
101098.52
101106.88
101252.75
101287.69
101410.87
101471.18
101576.65
101652.7
101747.77
101830.51
101919.43
102002.77
102086.53
102166.51
102244.18
102317.89
102387.66
102452.66
102512.52
102566.69
102614.79
102656.42
102691.3
102719.2
102739.97
102753.57
102760.01
102759.41
102751.95
102737.9
102717.57
102691.34
102659.65
102622.95
102581.72
102536.46
102487.67
102435.84
102381.46
102324.99
102266.87
102207.51
102147.3
102086.6
102025.7
101964.91
101904.47
101844.6
101785.5
101727.31
101670.17
101614.2
101559.47
101506.05
101453.99
101403.3
101354.01
101306.12
101259.6
101214.44
101170.59
101128.02
101086.68
101046.5
101007.44
100969.41
100932.34
100896.16
100860.76
100826.08
100792.02
100758.31
100725.27
100692.76
100657.01
100629.88
100602
100502.01
100724.54
101288.46
101466.82
101477.14
101638.17
101679.51
101813.49
101882.49
101996.33
102080.86
102182.85
102272.54
102366.8
102454.91
102541.92
102624.05
102702.32
102775.19
102842.51
102903.45
102957.6
103004.45
103043.64
103074.86
103097.92
103112.72
103119.28
103117.69
103108.16
103091
103066.57
103035.32
102997.74
102954.38
102905.8
102852.59
102795.35
102734.65
102671.07
102605.15
102537.41
102468.34
102398.39
102327.96
102257.43
102187.12
102117.33
102048.32
101980.29
101913.44
101847.92
101783.85
101721.34
101660.45
101601.25
101543.76
101488
101433.98
101381.69
101331.09
101282.16
101234.85
101189.12
101144.91
101102.15
101060.78
101020.73
100981.92
100944.27
100907.69
100872.11
100837.44
100803.55
100770.27
100738.02
100705.86
100671.68
100647.91
100612.83
100532.64
100736.4
101676.79
101877.66
101890.7
102068.66
102117.98
102263.64
102342.73
102465.47
102559.17
102668.24
102764.78
102863.87
102955.83
103044.74
103127.21
103203.86
103273.26
103335.1
103388.62
103433.42
103469.07
103495.33
103512.03
103519.17
103516.85
103505.31
103484.87
103455.97
103419.15
103374.98
103324.12
103267.24
103205.03
103138.21
103067.45
102993.45
102916.84
102838.24
102758.2
102677.26
102595.89
102514.52
102433.52
102353.24
102273.97
102195.94
102119.38
102044.46
101971.32
101900.06
101830.78
101763.53
101698.35
101635.27
101574.28
101515.37
101458.52
101403.69
101350.85
101299.93
101250.88
101203.64
101158.13
101114.28
101072.02
101031.26
100991.94
100953.96
100917.23
100881.68
100847.24
100813.73
100781.12
100749.77
100718.14
100686.2
100664.74
100624.39
100562.39
100747.16
102108.53
102335.62
102352.48
102549.2
102608.38
102766.53
102857.31
102989.49
103092.67
103208.53
103311.25
103413.92
103507.9
103596.37
103676.29
103747.92
103809.97
103862.07
103903.6
103934.25
103953.77
103962.14
103959.45
103945.96
103922.07
103888.29
103845.25
103793.66
103734.29
103667.96
103595.51
103517.78
103435.59
103349.75
103261.02
103170.11
103077.7
102984.38
102890.72
102797.2
102704.25
102612.26
102521.56
102432.41
102345.07
102259.71
102176.5
102095.55
102016.95
101940.78
101867.06
101795.82
101727.05
101660.75
101596.89
101535.42
101476.29
101419.46
101364.85
101312.4
101262.03
101213.67
101167.23
101122.64
101079.81
101038.66
100999.1
100961.05
100924.42
100889.15
100855.14
100822.23
100790.51
100760.13
100729.33
100700.03
100679.85
100636.38
100591.14
100755.86
102588.93
102846.48
102868.57
103085.7
103156.89
103328.19
103432.15
103574.15
103686.65
103808.12
103915.33
104019.17
104112.07
104196.33
104269.28
104330.95
104380.24
104416.88
104440.46
104450.93
104448.37
104433.09
104405.55
104366.39
104316.36
104256.33
104187.25
104110.1
104025.9
103935.67
103840.4
103741.06
103638.53
103533.68
103427.27
103320.02
103212.55
103105.43
102999.15
102894.13
102790.75
102689.31
102590.05
102493.2
102398.91
102307.32
102218.5
102132.53
102049.44
101969.25
101891.95
101817.53
101745.93
101677.13
101611.05
101547.64
101486.82
101428.52
101372.66
101319.14
101267.89
101218.82
101171.84
101126.85
101083.78
101042.54
101003.04
100965.19
100928.91
100894.14
100860.78
100828.69
100798.07
100768.72
100739.12
100712.68
100693.04
100648.64
100618.53
100762.04
103123.52
103416.62
103446.37
103685.91
103772.65
103958.05
104074.78
104224.36
104345.35
104470.38
104578.92
104679.94
104766.8
104841.14
104900.73
104945.54
104974.84
104988.63
104986.92
104970.1
104938.73
104893.59
104835.63
104765.92
104685.62
104595.97
104498.2
104393.56
104283.25
104168.42
104050.15
103929.43
103807.17
103684.2
103561.23
103438.9
103317.77
103198.3
103080.9
102965.9
102853.58
102744.13
102637.75
102534.54
102434.6
102337.99
102244.73
102154.83
102068.27
101985.03
101905.04
101828.26
101754.62
101684.04
101616.43
101551.7
101489.78
101430.55
101373.93
101319.83
101268.13
101218.76
101171.61
101126.58
101083.6
101042.57
101003.4
100966.02
100930.34
100896.29
100863.78
100832.73
100803.34
100775.12
100747.1
100723.52
100703.66
100660.3
100643.8
100765.71
103719.84
104054.93
104096.62
104359.45
104463.94
104661.32
104790.94
104947.83
105073.42
105197.7
105301.93
105393.43
105466.59
105522.63
105559.93
105578.72
105578.88
105560.93
105525.55
105473.73
105406.68
105325.74
105232.38
105128.15
105014.58
104893.21
104765.5
104632.83
104496.5
104357.68
104217.43
104076.71
103936.33
103797
103659.35
103523.89
103391.05
103261.18
103134.55
103011.39
102891.86
102776.08
102664.12
102556.03
102451.83
102351.49
102254.99
102162.29
102073.3
101987.97
101906.2
101827.91
101752.98
101681.34
101612.85
101547.43
101484.97
101425.35
101368.47
101314.22
101262.5
101213.22
101166.26
101121.53
101078.95
101038.42
100999.86
100963.18
100928.33
100895.22
100863.74
100833.92
100805.86
100778.88
100752.8
100731.78
100711.16
100670.73
100665.77
100766.53
104402.3
104782.78
104838.62
105121.26
105239.45
105445.82
105587.1
105747.18
105872.08
105987.87
106078.75
106150.45
106198.82
106225.06
106228.54
106210.13
106170.6
106111.28
106033.7
105939.61
105830.9
105709.52
105577.4
105436.45
105288.48
105135.16
104978.04
104818.52
104657.83
104497.05
104337.11
104178.82
104022.84
103869.72
103719.92
103573.78
103431.59
103293.56
103159.84
103030.52
102905.67
102785.31
102669.41
102557.95
102450.88
102348.11
102249.57
102155.16
102064.76
101978.28
101895.59
101816.57
101741.11
101669.07
101600.35
101534.81
101472.34
101412.82
101356.14
101302.18
101250.83
101202
101155.57
101111.46
101069.57
101029.81
100992.1
100956.36
100922.53
100890.53
100860.28
100831.83
100805.17
100779.58
100755.59
100736.59
100715.37
100679.67
100683.5
100764.14
105172.94
105597.04
105663.19
105960.5
106106.57
106332.48
106473.3
106625.04
106737.21
106831.08
106894.41
106931.71
106940.61
106922.85
106879.14
106811.39
106721.53
106611.9
106484.96
106343.21
106189.14
106025.14
105853.44
105676.1
105494.98
105311.72
105127.75
104944.32
104762.45
104583.02
104406.75
104234.2
104065.84
103902.01
103742.97
103588.92
103439.97
103296.19
103157.59
103024.18
102895.91
102772.69
102654.46
102541.1
102432.5
102328.54
102229.08
102133.99
102043.14
101956.38
101873.57
101794.57
101719.24
101647.44
101579.05
101513.93
101451.94
101392.98
101336.91
101283.63
101233.01
101184.96
101139.37
101096.15
101055.21
101016.46
100979.82
100945.22
100912.6
100881.88
100852.99
100826.02
100800.85
100776.8
100754.91
100737.71
100717.14
100686.13
100695.63
100758.02
106033.13
106501.61
106596.28
106931.31
107083.02
107294.79
107433.03
107561.91
107646.29
107701.26
107719.11
107704.3
107656.81
107579.72
107475.48
107347.35
107198.55
107032.41
106852.15
106660.81
106461.19
106255.81
106046.9
105836.39
105625.95
105416.95
105210.53
105007.63
104808.98
104615.17
104426.62
104243.66
104066.52
103895.32
103730.15
103571.02
103417.91
103270.76
103129.47
102993.95
102864.05
102739.63
102620.55
102506.64
102397.76
102293.73
102194.39
102099.57
102009.11
101922.86
101840.65
101762.33
101687.74
101616.74
101549.2
101484.96
101423.9
101365.89
101310.81
101258.54
101208.97
101162
101117.52
101075.44
101035.67
100998.13
100962.74
100929.45
100898.18
100868.85
100841.46
100816.06
100792.42
100770.05
100750.31
100734.94
100715.25
100687.66
100701.96
100749.36
107024.15
107549.54
107670.2
107998.08
108155.27
108344.72
108454.72
108538.43
108569.34
108561.1
108510.32
108422.87
108301.48
108151.01
107975.68
107780.05
107568.29
107344.33
107111.7
106873.49
106632.39
106390.64
106150.13
105912.38
105678.61
105449.79
105226.65
105009.72
104799.39
104595.93
104399.48
104210.11
104027.83
103852.59
103684.29
103522.81
103368
103219.69
103077.71
102941.88
102811.99
102687.84
102569.25
102456.01
102347.94
102244.83
102146.51
102052.79
101963.48
101878.42
101797.43
101720.36
101647.05
101577.33
101511.07
101448.13
101388.37
101331.66
101277.89
101226.93
101178.68
101133.03
101089.88
101049.14
101010.73
100974.56
100940.58
100908.71
100878.9
100851.07
100825.22
100801.41
100779.33
100758.68
100741.03
100727.04
100708.33
100685.27
100701.72
100736.31
108184.69
108738.63
108872.14
109178.03
109308.81
109443.86
109492.09
109498.14
109445.24
109347.16
109205.41
109027.94
108820.21
108588.65
108338.75
108075.68
107803.89
107527.19
107248.79
106971.28
106696.76
106426.85
106162.82
105905.6
105655.85
105414.04
105180.45
104955.24
104738.44
104530.03
104329.92
104137.94
103953.93
103777.68
103608.97
103447.57
103293.24
103145.74
103004.82
102870.24
102741.77
102619.16
102502.2
102390.66
102284.33
102183
102086.46
101994.53
101907.01
101823.72
101744.5
101669.16
101597.56
101529.53
101464.94
101403.64
101345.5
101290.38
101238.18
101188.78
101142.06
101097.94
101056.3
101017.07
100980.16
100945.51
100913.03
100882.68
100854.4
100828.12
100803.86
100781.63
100761.09
100742.23
100726.48
100713.57
100696.32
100678.17
100694.23
100717.29
109505.13
110044.09
110158.86
110404.27
110471.82
110512.76
110460.97
110355.3
110189.92
109980.31
109732.81
109457.27
109160.93
108850.81
108532.51
108210.78
107889.35
107571.19
107258.54
106953.06
106655.96
106368.05
106089.87
105821.71
105563.7
105315.82
105077.97
104849.97
104631.6
104422.58
104222.63
104031.44
103848.72
103674.14
103507.4
103348.19
103196.22
103051.19
102912.83
102780.85
102655
102535.01
102420.66
102311.69
102207.9
102109.06
102014.97
101925.42
101840.23
101759.22
101682.2
101609.02
101539.51
101473.53
101410.93
101351.56
101295.3
101242.03
101191.63
101143.99
101099
101056.56
101016.59
100979
100943.71
100910.65
100879.76
100850.99
100824.27
100799.56
100776.88
100756.18
100737.19
100720.07
100705.99
100693.99
100678.57
100664.96
100679.11
100692.81
110864.71
111392.01
111463.57
111596.02
111549.14
111445.94
111252.14
111003.97
110706.45
110376.41
110023.1
109656.38
109283.22
108909.42
108539.25
108175.88
107821.57
107477.86
107145.73
106825.76
106518.2
106223.1
105940.33
105669.66
105410.78
105163.31
104926.87
104701.05
104485.44
104279.6
104083.15
103895.68
103716.81
103546.16
103383.38
103228.12
103080.06
102938.89
102804.3
102676.01
102553.75
102437.26
102326.29
102220.61
102120
102024.22
101933.09
101846.41
101763.98
101685.62
101611.18
101540.48
101473.37
101409.7
101349.33
101292.12
101237.96
101186.72
101138.28
101092.55
101049.42
101008.79
100970.59
100934.72
100901.12
100869.71
100840.45
100813.26
100788.11
100764.95
100743.81
100724.58
100707.07
100691.57
100678.9
100667.73
100654.32
100644.5
100655.85
100662.4
112382.09
112748.59
112704.54
112627.07
112397.92
112104.36
111743.56
111346.35
110923.58
110489.58
110052.57
109619.57
109195.08
108782.3
108383.24
107999.06
107630.34
107277.24
106939.62
106617.16
106309.42
106015.91
105736.04
105469.25
105214.94
104972.53
104741.47
104521.23
104311.27
104111.13
103920.32
103738.42
103565
103399.68
103242.07
103091.83
102948.62
102812.15
102682.08
102558.14
102440.08
102327.62
102220.53
102118.57
102021.53
101929.19
101841.37
101757.85
101678.47
101603.05
101531.42
101463.43
101398.92
101337.77
101279.82
101224.95
101173.04
101123.97
101077.64
101033.94
100992.77
100954.05
100917.69
100883.62
100851.76
100822.05
100794.43
100768.84
100745.24
100723.62
100703.95
100686.12
100670.05
100656.04
100644.56
100634.21
100622.8
100615.95
100624.31
100625.9
113758.41
113738.69
113492.78
113153.61
112723.03
112250
111749.44
111241.74
110736.52
110242.11
109762.9
109301.74
108859.89
108437.92
108035.79
107653.07
107289.1
106943.1
106614.22
106301.61
106004.44
105721.88
105453.07
105197.28
104953.8
104721.96
104501.14
104290.79
104090.37
103899.37
103717.33
103543.83
103378.43
103220.77
103070.48
102927.21
102790.66
102660.5
102536.44
102418.23
102305.61
102198.34
102096.19
101998.94
101906.38
101818.32
101734.57
101654.95
101579.28
101507.4
101439.17
101374.42
101313.02
101254.83
101199.72
101147.58
101098.28
101051.72
101007.79
100966.4
100927.45
100890.86
100856.55
100824.43
100794.46
100766.55
100740.67
100716.75
100694.74
100674.65
100656.42
100639.96
100625.24
100612.56
100602.05
100592.45
100582.81
100578.29
100584.56
100581.73
114231.25
113911.44
113468.33
112947.79
112394.85
111834.71
111281.36
110744.29
110227.75
109734.24
109264.36
108818.09
108394.72
107993.22
107612.38
107251
106907.92
106582.02
106272.27
105977.67
105697.32
105430.43
105176.33
104934.29
104703.67
104483.85
104274.29
104074.45
103883.85
103702.04
103528.6
103363.13
103205.25
103054.62
102910.91
102773.79
102643.01
102518.28
102399.36
102286
102177.98
102075.08
101977.08
101883.77
101794.97
101710.48
101630.14
101553.77
101481.21
101412.3
101346.91
101284.88
101226.09
101170.4
101117.7
101067.86
101020.77
100976.33
100934.45
100895.02
100857.96
100823.18
100790.61
100760.17
100731.8
100705.43
100681.01
100658.49
100637.83
100619
100601.95
100586.63
100573.02
100561.31
100551.47
100542.75
100534.88
100530.83
100532.99
100530.67
112908.6
112643.29
112250.54
111773.26
111276.97
110775.77
110284.67
109808.98
109351.82
108914.37
108496.75
108098.55
107719.13
107357.75
107013.59
106685.79
106373.53
106075.98
105792.38
105521.99
105264.1
105017.99
104783.17
104559.09
104345.26
104141.18
103946.41
103760.5
103583.06
103413.68
103252.02
103097.72
102950.48
102809.97
102675.93
102548.09
102426.18
102309.93
102199.1
102093.46
101992.79
101896.9
101805.59
101718.66
101635.96
101557.3
101482.52
101411.48
101344.01
101279.98
101219.26
101161.71
101107.2
101055.61
101006.84
100960.77
100917.29
100876.31
100837.74
100801.47
100767.43
100735.54
100705.72
100677.9
100652.02
100628.01
100605.82
100585.4
100566.71
100549.71
100534.36
100520.62
100508.49
100498.03
100489.18
100481.65
100475.43
100471.7
100471.17
100469.96
108356.79
109342.94
109483.11
109515.84
109360.55
109137.02
108858.82
108556.39
108240
107919.8
107600.73
107286.62
106979.61
106681.15
106392.06
106112.82
105843.61
105584.49
105335.34
105096.02
104866.32
104645.97
104434.62
104231.96
104037.66
103851.44
103673.01
103502.07
103338.36
103181.61
103031.56
102887.98
102750.61
102619.25
102493.69
102373.69
102259.04
102149.5
102044.91
101945.07
101849.81
101758.96
101672.36
101589.85
101511.28
101436.5
101365.38
101297.77
101233.55
101172.59
101114.76
101059.94
101008.03
100958.9
100912.46
100868.61
100827.24
100788.26
100751.58
100717.12
100684.79
100654.52
100626.23
100599.86
100575.33
100552.59
100531.59
100512.26
100494.57
100478.48
100463.94
100450.91
100439.4
100429.38
100420.81
100413.64
100407.88
100403.75
100401.35
100400.28
110448.66
110492.16
110369.04
110116.99
109749.5
109314.89
108839.77
108343.57
107839.07
107331.2
106834.69
106348.39
105882.53
105433.16
105003.7
104606.49
104237.56
103907.25
103609.95
103344.07
103108.53
102899.38
102714.83
102551.6
102407.51
102278.94
102162.13
102055.32
101958.64
101875.34
101800.69
101731.57
101667.3
101606.95
101549.87
101495.59
101443.78
101394.23
101346.78
101301.32
101257.77
101216.08
101176.17
101138.04
101101.62
101066.86
101033.69
101002.08
100971.95
100943.24
100915.88
100889.82
100864.93
100841.23
100818.47
100796.82
100775.75
100755.89
100735.96
100717.71
100698.12
100681.62
100661.14
100647.12
100623.62
100614.05
100583.9
100582.7
100539.59
100554.5
100486.76
100531.92
100422.54
100518.5
100340.86
100519.83
100236.93
100541.35
100104.25
100594
97088.255
97290.774
97683.003
98105.94
98559.698
99042.033
99452.401
99805.072
100135.94
100432.09
100687.29
100910.12
101102.07
101265.6
101404.18
101519.2
101614.64
101689.98
101747.5
101788.29
101815.71
101830.02
101833.92
101826.83
101810.96
101787.81
101759.38
101727.23
101691.02
101652.84
101612.93
101571.55
101528.49
101484.8
101441.15
101397.96
101355.54
101314.16
101273.97
101235.08
101197.52
101161.33
101126.52
101093.08
101061
101030.25
101000.8
100972.63
100945.68
100919.92
100895.27
100871.72
100849.13
100827.56
100806.74
100786.88
100767.43
100749.04
100730.47
100713.38
100694.98
100679.3
100659.93
100646.3
100624.07
100614.28
100585.69
100583.59
100542.85
100555.73
100492.26
100533.09
100428.63
100520.13
100347.32
100522.22
100241
100547.08
100104.86
100602.26
104094.34
104128.6
104127.29
104098.93
104041.87
103963.14
103868.58
103762.06
103647.16
103528.3
103406.15
103283.58
103160.82
103039.8
102920.36
102805.58
102692.68
102588.3
102486.33
102393.83
102299.62
102216.52
102130.29
102056.48
101984.73
101919.66
101861.88
101806.86
101755.74
101694.7
101637.25
101583.11
101531.38
101482.08
101434.96
101389.83
101346.52
101304.91
101264.9
101226.43
101189.46
101153.96
101119.88
101087.19
101055.87
101025.88
100997.19
100969.76
100943.54
100918.51
100894.56
100871.7
100849.77
100828.83
100808.6
100789.3
100770.36
100752.45
100734.29
100717.59
100699.48
100684.08
100664.91
100651.42
100629.32
100619.45
100591
100588.63
100547.63
100560.13
100497.23
100536.49
100434.22
100522.41
100352.85
100523.71
100246.29
100548.69
100108.63
100605.09
101621.28
101623.56
101631.49
101646.49
101665.54
101685.3
101705.99
101728.19
101750.04
101772.18
101792.78
101812.47
101829.52
101844.05
101854.72
101861.98
101864.44
101863.09
101856.92
101847
101833.2
101816.15
101795.88
101770.93
101741.6
101708.18
101672.44
101634.54
101596.53
101558.53
101519.83
101481.14
101442.52
101404.11
101366.11
101328.67
101291.92
101255.99
101220.97
101186.93
101153.95
101122.04
101091.26
101061.6
101033.07
101005.66
100979.37
100954.17
100930.02
100906.9
100884.75
100863.54
100843.15
100823.63
100804.7
100786.61
100768.75
100751.84
100734.55
100718.68
100701.22
100686.5
100667.77
100654.84
100632.95
100623.59
100595.14
100593.22
100552.18
100564.99
100501.59
100541.45
100438.17
100527.23
100356.18
100528.51
100249.24
100553.06
100110.79
100609.02
102008
102015.69
102016.77
102015.37
102012.17
102006.85
101999.99
101992.69
101983.96
101974.45
101962.99
101951.49
101937.46
101923.15
101906.63
101888.16
101868.97
101845.94
101823.24
101796.11
101770
101739.14
101709.72
101676.22
101644.01
101609.87
101576.91
101542.11
101507.75
101473.23
101438.8
101404.57
101370.62
101337.05
101303.93
101271.33
101239.31
101207.93
101177.23
101147.29
101118.14
101089.83
101062.38
101035.84
101010.2
100985.49
100961.7
100938.83
100916.85
100895.74
100875.44
100855.96
100837.16
100819.09
100801.5
100784.62
100767.88
100751.95
100735.55
100720.45
100703.68
100689.52
100671.29
100658.74
100637.2
100628.02
100599.85
100597.91
100556.93
100569.58
100506.41
100545.81
100443.03
100531.25
100360.78
100532
100253.18
100556.48
100113.52
100612.22
101486.99
101492.29
101497.34
101504.51
101511.35
101518.38
101523.39
101529.74
101533.49
101538.24
101540.03
101541.95
101541.32
101540.82
101537.89
101534.53
101529.23
101523.3
101515.52
101506.97
101496.58
101485.55
101472.47
101458.43
101442.42
101425.22
101406.31
101386.28
101364.98
101342.77
101319.67
101295.88
101271.52
101246.73
101221.66
101196.45
101171.21
101146.07
101121.14
101096.53
101072.3
101048.55
101025.34
101002.72
100980.73
100959.4
100938.75
100918.79
100899.5
100880.88
100862.88
100845.51
100828.65
100812.37
100796.4
100780.98
100765.57
100750.82
100735.48
100721.29
100705.35
100691.86
100674.26
100662.14
100641.06
100632.11
100604.3
100602.33
100561.72
100574.09
100511.04
100550.16
100447.31
100535.33
100364.9
100535.81
100256.73
100559.92
100116.07
100615.26
101301.13
101308.02
101313.15
101318.98
101325.09
101330.97
101335.63
101340.72
101343.33
101347.6
101348.75
101352.2
101352.36
101354.26
101353.74
101353.04
101350.19
101347.4
101342.91
101337.86
101331.41
101324.05
101315.48
101305.84
101295.09
101283.31
101270.5
101256.71
101242
101226.44
101210.09
101193.04
101175.37
101157.19
101138.57
101119.62
101100.43
101081.1
101061.7
101042.34
101023.1
101004.05
100985.26
100966.79
100948.68
100930.98
100913.71
100896.9
100880.53
100864.61
100849.12
100834.05
100819.3
100804.94
100790.73
100776.89
100762.91
100749.43
100735.23
100722.01
100706.96
100694.15
100677.23
100665.53
100644.98
100636.17
100608.81
100606.71
100566.48
100578.46
100515.89
100554.36
100452.04
100539.21
100369.35
100539.27
100260.51
100563.15
100118.7
100618.04
101040.67
101047.63
101053.22
101059.89
101066.74
101073.79