/*--------------------------------*- C++ -*----------------------------------*\
  =========                 |
  \\      /  F ield         | OpenFOAM: The Open Source CFD Toolbox
   \\    /   O peration     | Website:  https://openfoam.org
    \\  /    A nd           | Version:  6
     \\/     M anipulation  |
\*---------------------------------------------------------------------------*/
FoamFile
{
    version     2.0;
    format      ascii;
    class       surfaceScalarField;
    location    "600";
    object      phi;
}
// * * * * * * * * * * * * * * * * * * * * * * * * * * * * * * * * * * * * * //

dimensions      [1 0 -1 0 0 0 0];

internalField   nonuniform List<scalar> 
31760
(
-0.00058215732
-0.038428643
0.039010797
-0.0012946568
-0.042629496
0.043341992
-0.0020241076
-0.043733058
0.044462506
-0.002808645
-0.046290797
0.047075331
-0.0036127871
-0.048123159
0.0489273
-0.004471791
-0.050578411
0.051437413
-0.0053595183
-0.052800776
0.053688502
-0.0062997935
-0.055356552
0.056296825
-0.0072774574
-0.05787813
0.058855793
-0.0083075195
-0.060617961
0.061648021
-0.009382711
-0.06341734
0.064492532
-0.010512176
-0.066389808
0.067519271
-0.011692974
-0.069471073
0.070651871
-0.012931153
-0.072712832
0.073951008
-0.014226647
-0.076092302
0.077387797
-0.015583741
-0.079634922
0.080992014
-0.017003654
-0.08333662
0.084756533
-0.018489687
-0.087211684
0.088697716
-0.020043857
-0.091264384
0.092818554
-0.021669235
-0.095505171
0.097130548
-0.02336808
-0.099941851
0.1016407
-0.025143474
-0.10458437
0.10635976
-0.026997412
-0.10944241
0.11129635
-0.028932787
-0.11452651
0.11646188
-0.03095193
-0.11984745
0.12186659
-0.033056923
-0.12541741
0.1275224
-0.035250101
-0.13124801
0.13344119
-0.037533757
-0.13735272
0.13963638
-0.03990951
-0.14374512
0.14612088
-0.042378741
-0.15043995
0.15290918
-0.044943157
-0.15745223
0.16001665
-0.047603542
-0.16479869
0.16745908
-0.05036099
-0.17249588
0.17525333
-0.053215403
-0.18056239
0.1834168
-0.056166732
-0.1890175
0.19196883
-0.059214587
-0.19788118
0.20092903
-0.062358071
-0.20717462
0.2103181
-0.065595067
-0.21692093
0.22015793
-0.068923711
-0.22714354
0.23047218
-0.072340941
-0.23786748
0.24128471
-0.075843417
-0.24911915
0.25262162
-0.079426504
-0.26092651
0.2645096
-0.083085306
-0.27331839
0.27697719
-0.086813331
-0.28632623
0.29005425
-0.090603738
-0.29998159
0.30377199
-0.094448484
-0.31431902
0.31816377
-0.098337813
-0.32937389
0.33326322
-0.10226136
-0.345184
0.34910755
-0.1062071
-0.36178851
0.36573424
-0.11016087
-0.37922929
0.38318306
-0.1141076
-0.39754931
0.40149604
-0.1180294
-0.41679454
0.42071634
-0.12190654
-0.43701284
0.44088998
-0.1257164
-0.45825466
0.46206452
-0.1294343
-0.48057247
0.48429036
-0.13303168
-0.5040221
0.50761948
-0.13647697
-0.52866189
0.53210718
-0.13973391
-0.55455327
0.55781021
-0.14276261
-0.58175934
0.58478804
-0.14551767
-0.61034756
0.61310262
-0.14794822
-0.64038896
0.64281951
-0.14999704
-0.67195634
0.67400515
-0.15160123
-0.70512865
0.70673284
-0.15268688
-0.73998457
0.74107022
-0.15317798
-0.77661149
0.77710259
-0.15297635
-0.81509139
0.81488976
-0.15199611
-0.85552578
0.85454553
-0.15009539
-0.89797799
0.89607727
-0.14720495
-0.94259733
0.93970688
-0.14308542
-0.98936793
0.9852484
-0.13775866
-1.0386006
1.0332739
-0.13076742
-1.0899933
1.0830021
-0.12239407
-1.1444203
1.136047
-0.11163815
-1.2005577
1.1898018
-0.09947014
-1.2611216
1.2489536
-0.08386633
-1.3212704
1.3056666
-0.067003792
-1.3894149
1.3725523
-0.045482741
-1.4517428
1.4302218
-0.022389106
-1.5290638
1.5059702
-1.594468
1.5658423
-0.00056229594
-0.037866348
-0.0012346371
-0.041957157
-0.0019256478
-0.043042048
-0.0026670681
-0.045549379
-0.0034311031
-0.047359125
-0.0042439036
-0.049765613
-0.005087218
-0.051957462
-0.0059793131
-0.054464459
-0.0069094836
-0.05694796
-0.0078893052
-0.059638141
-0.0089138146
-0.062392831
-0.0099906297
-0.065312995
-0.011117992
-0.068343711
-0.012301518
-0.071529307
-0.013540905
-0.074852915
-0.014840638
-0.07833519
-0.016201933
-0.081975325
-0.017628304
-0.085785315
-0.019121737
-0.089770951
-0.020685205
-0.093941704
-0.022321077
-0.098305979
-0.024031962
-0.10287348
-0.025820793
-0.10765358
-0.027689702
-0.1126576
-0.029641005
-0.11789614
-0.031677343
-0.12338107
-0.033800762
-0.12912459
-0.036013317
-0.13514017
-0.03831645
-0.14144199
-0.040712161
-0.14804424
-0.04320158
-0.15496281
-0.045785706
-0.16221457
-0.048465177
-0.16981641
-0.051239927
-0.17778764
-0.054110412
-0.18614702
-0.057075701
-0.19491589
-0.060134494
-0.20411582
-0.06328555
-0.21376988
-0.066526539
-0.22390255
-0.069854519
-0.2345395
-0.073266225
-0.24570744
-0.07675746
-0.25743528
-0.080323064
-0.26975278
-0.083957508
-0.28269178
-0.087654031
-0.29628507
-0.091405189
-0.31056786
-0.095202016
-0.32557707
-0.099034778
-0.34135124
-0.10289207
-0.35793121
-0.10676158
-0.37535978
-0.11062871
-0.39368218
-0.11447761
-0.41294564
-0.11829014
-0.4332003
-0.12204586
-0.45449894
-0.12572181
-0.47689651
-0.12929228
-0.50045163
-0.13272816
-0.52522601
-0.13599747
-0.55128396
-0.13906295
-0.57869386
-0.14188342
-0.60752709
-0.14441351
-0.63785887
-0.14660051
-0.66976933
-0.14838745
-0.70334171
-0.1497078
-0.73866422
-0.15048981
-0.77582948
-0.1506508
-0.8149304
-0.15010191
-0.85607467
-0.14873203
-0.89934787
-0.14644791
-0.94488145
-0.14307871
-0.99273713
-0.13856466
-1.0431147
-0.13260991
-1.0959481
-0.12529526
-1.151735
-0.11599654
-1.2098565
-0.10517977
-1.2719384
-0.091503494
-1.3349467
-0.076344896
-1.4045735
-0.057250469
-1.4708372
-0.03660204
-1.5497122
-1.6199791
-0.00053014193
-0.037336208
-0.0011787361
-0.041308565
-0.0018304021
-0.042390383
-0.0025362831
-0.044843499
-0.0032598118
-0.046635597
-0.004034799
-0.048990627
-0.0048369171
-0.051155344
-0.0056888878
-0.05361249
-0.0065766626
-0.056060185
-0.0075146339
-0.058700171
-0.0084956733
-0.061411792
-0.0095286608
-0.064280009
-0.010611499
-0.067260873
-0.011749495
-0.070391313
-0.012943495
-0.073658915
-0.014196807
-0.077081879
-0.015511703
-0.080660429
-0.016890696
-0.084406323
-0.018336778
-0.088324868
-0.019852289
-0.092426193
-0.021440066
-0.096718202
-0.023102918
-0.10121063
-0.02484263
-0.10591387
-0.026662579
-0.11083765
-0.028564935
-0.11599379
-0.030551812
-0.12139419
-0.032625343
-0.12705106
-0.034787409
-0.13297811
-0.037040018
-0.13918938
-0.03938455
-0.14569971
-0.041821832
-0.15252553
-0.04435338
-0.15968302
-0.046979104
-0.16719069
-0.049699791
-0.17506696
-0.052514793
-0.18333201
-0.055423589
-0.1920071
-0.058425002
-0.20111441
-0.061517285
-0.21067759
-0.064698394
-0.22072144
-0.067965994
-0.23127191
-0.071316022
-0.24235742
-0.074745052
-0.25400625
-0.078248373
-0.26624946
-0.081820763
-0.27911939
-0.085455897
-0.29264993
-0.089146673
-0.30687709
-0.092885336
-0.3218384
-0.096662818
-0.33757376
-0.10046914
-0.35412489
-0.10429272
-0.3715362
-0.10812073
-0.38985417
-0.11193877
-0.4091276
-0.11573035
-0.42940872
-0.11947739
-0.45075191
-0.12315939
-0.47321452
-0.12675298
-0.49685804
-0.13023236
-0.52174663
-0.13356826
-0.54794806
-0.13672775
-0.57553437
-0.13967399
-0.60458085
-0.14236523
-0.63516762
-0.14475536
-0.66737921
-0.14679176
-0.70130531
-0.14841623
-0.73703976
-0.14956299
-0.77468271
-0.15015593
-0.81433745
-0.15011929
-0.85611131
-0.14935162
-0.90011554
-0.14775901
-0.94647406
-0.14521043
-0.9952857
-0.14161391
-1.0467112
-0.13675762
-1.1008044
-0.13061855
-1.157874
-0.12279299
-1.217682
-0.11348818
-1.2812432
-0.10175773
-1.3466772
-0.08849653
-1.4178347
-0.071875545
-1.4874582
-0.053576932
-1.5680108
-1.6423009
-0.00050045611
-0.036835753
-0.0011303619
-0.040678661
-0.0017490203
-0.041771725
-0.0024249794
-0.044167542
-0.0031149171
-0.04594566
-0.0038580126
-0.048247534
-0.0046261344
-0.050387223
-0.0054446441
-0.052793983
-0.006297949
-0.05520688
-0.0072014342
-0.057796688
-0.008147742
-0.060465484
-0.0091458084
-0.063281944
-0.010193495
-0.066213186
-0.011296607
-0.069288202
-0.012455355
-0.072500168
-0.013673891
-0.075863344
-0.014953841
-0.079380477
-0.016298647
-0.083061519
-0.017710537
-0.086912978
-0.019192644
-0.090944087
-0.0207473
-0.095163546
-0.022377103
-0.099580831
-0.024085051
-0.10420592
-0.025873461
-0.10904924
-0.027744507
-0.11412274
-0.02970078
-0.11943792
-0.031744007
-0.12500784
-0.033876427
-0.13084569
-0.036099439
-0.13696637
-0.038414585
-0.14338456
-0.040822844
-0.15011727
-0.043324969
-0.1571809
-0.045921688
-0.16459397
-0.048612633
-0.17237601
-0.05139756
-0.18054709
-0.054276069
-0.18912859
-0.057246779
-0.1981437
-0.060308053
-0.20761632
-0.063457893
-0.2175716
-0.066693648
-0.22803615
-0.070012423
-0.23903864
-0.073410388
-0.25060828
-0.076883305
-0.26277655
-0.080426416
-0.27557628
-0.084034153
-0.28904219
-0.087700288
-0.30321095
-0.091417802
-0.31812089
-0.095178756
-0.3338128
-0.098974146
-0.3503295
-0.10279387
-0.36771648
-0.10662697
-0.38602107
-0.11046007
-0.4052945
-0.11427943
-0.42558936
-0.11806889
-0.44696244
-0.12180983
-0.46947359
-0.12548232
-0.49318554
-0.12906371
-0.51816524
-0.13252756
-0.54448421
-0.13584511
-0.57221682
-0.13898373
-0.60144222
-0.14190659
-0.63224477
-0.14457236
-0.66471344
-0.14693492
-0.69894275
-0.14894176
-0.73503292
-0.15053484
-0.77308963
-0.15164841
-0.81322389
-0.15220868
-0.85555103
-0.15213117
-0.90019306
-0.15132898
-0.94727625
-0.14969051
-0.99692417
-0.14711441
-1.0492873
-0.14344628
-1.1044725
-0.13860955
-1.1627108
-0.13232238
-1.2239692
-0.12466783
-1.2888977
-0.11494035
-1.3564046
-0.1037328
-1.4290422
-0.089648197
-1.5015428
-0.073975159
-1.5836839
-1.6614452
-0.000473347
-0.036362407
-0.0010874554
-0.040064554
-0.001677997
-0.041181185
-0.0023296729
-0.043515868
-0.0029919636
-0.04528337
-0.0037097348
-0.047529764
-0.0044509763
-0.049645982
-0.0052437511
-0.05200121
-0.0060709975
-0.054379634
-0.0069486374
-0.05691905
-0.0078696588
-0.059544463
-0.0088430584
-0.062308546
-0.0098667591
-0.065189486
-0.010946187
-0.068208775
-0.012082251
-0.071364103
-0.013279066
-0.07466653
-0.014538399
-0.078121144
-0.015863698
-0.081736221
-0.017257248
-0.085519428
-0.018721932
-0.089479404
-0.020260805
-0.093624672
-0.021876342
-0.097965296
-0.023571302
-0.10251096
-0.025347735
-0.10727281
-0.027208663
-0.11226181
-0.029155863
-0.11749072
-0.031191597
-0.1229721
-0.033317296
-0.12871999
-0.035535
-0.13474866
-0.037845303
-0.14107426
-0.040249803
-0.14771277
-0.04274879
-0.15468191
-0.045342677
-0.16200008
-0.048031461
-0.16968723
-0.050814767
-0.17776378
-0.053691448
-0.18625191
-0.056660745
-0.1951744
-0.059721189
-0.20455588
-0.062870496
-0.21442229
-0.06610626
-0.22480039
-0.069426068
-0.23571883
-0.07282635
-0.247208
-0.076303424
-0.25929947
-0.079853271
-0.27202643
-0.083470883
-0.28542458
-0.087151168
-0.29953067
-0.09088779
-0.31438427
-0.094674001
-0.33002659
-0.09850234
-0.34650116
-0.10236432
-0.3638545
-0.10624987
-0.38213551
-0.11014878
-0.40139559
-0.11404845
-0.4216897
-0.11793519
-0.44307571
-0.12179376
-0.46561502
-0.12560635
-0.48937295
-0.12935315
-0.51441844
-0.13301217
-0.54082519
-0.13655818
-0.56867081
-0.13996282
-0.59803758
-0.14319383
-0.62901376
-0.14621558
-0.66169169
-0.14898744
-0.69617088
-0.15146391
-0.73255645
-0.15359385
-0.77095969
-0.15531933
-0.81149841
-0.15657541
-0.85429495
-0.15728993
-0.89947855
-0.15738288
-0.9471833
-0.15675597
-0.99755108
-0.15532029
-1.050723
-0.15294525
-1.1068475
-0.14954177
-1.1661142
-0.14489926
-1.2286117
-0.13902573
-1.2947712
-0.13141096
-1.3640194
-0.12241634
-1.4380369
-0.11094557
-1.5130136
-0.098006475
-1.596623
-1.6773231
-0.00045239115
-0.035910017
-0.0010449855
-0.039471961
-0.0016146243
-0.040611547
-0.0022495861
-0.042880908
-0.002892462
-0.044640495
-0.0035932525
-0.046828976
-0.004316744
-0.048922491
-0.005093084
-0.051224871
-0.0059042748
-0.053568444
-0.0067670448
-0.056056281
-0.0076739099
-0.058637598
-0.0086342616
-0.061348196
-0.0096464697
-0.064177277
-0.010715932
-0.067139314
-0.011843764
-0.070236271
-0.0130336
-0.073476695
-0.014288179
-0.076866565
-0.01561031
-0.080414091
-0.017003065
-0.084126672
-0.018469367
-0.088013103
-0.02001158
-0.092082459
-0.021633116
-0.096343761
-0.023335929
-0.10080815
-0.025123074
-0.10548567
-0.02699653
-0.11038835
-0.028958455
-0.1155288
-0.031010945
-0.12091961
-0.03315549
-0.12657545
-0.035393514
-0.13251064
-0.03772616
-0.13874161
-0.040154321
-0.14528461
-0.042678128
-0.15215811
-0.04529811
-0.1593801
-0.048013931
-0.16697141
-0.050825132
-0.17495258
-0.053730939
-0.1833461
-0.05673024
-0.1921751
-0.059821581
-0.20146454
-0.063003097
-0.21124078
-0.066272855
-0.22153063
-0.069628348
-0.23236334
-0.073066789
-0.24376956
-0.07658539
-0.25578087
-0.080180216
-0.26843161
-0.083847648
-0.28175715
-0.087583299
-0.29579502
-0.091382393
-0.31058517
-0.095239661
-0.32616933
-0.09914843
-0.34259239
-0.10310222
-0.35990072
-0.10709333
-0.37814439
-0.11111276
-0.39737616
-0.11515077
-0.41765169
-0.11919592
-0.43903056
-0.12323538
-0.46157556
-0.12725491
-0.48535342
-0.13123809
-0.51043526
-0.13516605
-0.53689723
-0.13901802
-0.56481884
-0.14276939
-0.59428621
-0.14639395
-0.6253892
-0.14986036
-0.65822528
-0.1531346
-0.69289664
-0.15617763
-0.72951342
-0.15894547
-0.76819185
-0.16138836
-0.80905552
-0.16345147
-0.85223184
-0.16507129
-0.89785872
-0.16617429
-0.9460803
-0.16668521
-0.99704017
-0.16651309
-1.0508951
-0.16555876
-1.1078019
-0.16372489
-1.1679481
-0.16085729
-1.2314793
-0.15692112
-1.2987074
-0.15153963
-1.3694009
-0.14492969
-1.4446468
-0.13620773
-1.5217355
-0.12620164
-1.606629
-1.6898412
-0.00043802044
-0.035471998
-0.0010108668
-0.038899117
-0.0015665479
-0.040055867
-0.0021923003
-0.042255157
-0.0028238807
-0.044008915
-0.0035161395
-0.046136719
-0.0042312551
-0.048207375
-0.005000772
-0.050455356
-0.0058067047
-0.052762511
-0.0066656018
-0.055197386
-0.0075707746
-0.057732425
-0.0085311503
-0.060387821
-0.0095455325
-0.063162895
-0.010619252
-0.066065596
-0.011754301
-0.069101222
-0.012954051
-0.072276946
-0.014221143
-0.075599473
-0.015559239
-0.079075996
-0.016970621
-0.08271529
-0.018458816
-0.086524909
-0.020026484
-0.090514791
-0.021676222
-0.094694024
-0.02341113
-0.099073241
-0.025233093
-0.10366371
-0.027144406
-0.10847704
-0.029147469
-0.11352574
-0.031243732
-0.11882335
-0.03343485
-0.12438433
-0.035721721
-0.13022377
-0.038105425
-0.13635791
-0.040586641
-0.1428034
-0.043165709
-0.14957904
-0.045842409
-0.1567034
-0.048616805
-0.16419702
-0.051488054
-0.17208133
-0.054455542
-0.18037862
-0.057518288
-0.18911236
-0.060674585
-0.19830824
-0.063923677
-0.20799168
-0.067263268
-0.21819104
-0.070691763
-0.22893484
-0.074207119
-0.2402542
-0.077806714
-0.25218128
-0.081488373
-0.26474995
-0.085249184
-0.27799634
-0.089085906
-0.2919583
-0.092994962
-0.30667612
-0.096972424
-0.32219186
-0.10101423
-0.33855059
-0.10511495
-0.3558
-0.10926901
-0.37399033
-0.11346966
-0.39317551
-0.11770963
-0.41341172
-0.12198029
-0.4347599
-0.12627161
-0.45728424
-0.13057247
-0.48105255
-0.13486955
-0.50613818
-0.13914849
-0.5326183
-0.14339183
-0.5605755
-0.14758083
-0.5900972
-0.15169275
-0.62127728
-0.15570302
-0.65421501
-0.15958282
-0.68901684
-0.16330027
-0.72579597
-0.16681897
-0.76467315
-0.17009781
-0.80577668
-0.17308812
-0.84924153
-0.17573715
-0.8952097
-0.1779874
-0.94383004
-0.17976981
-0.99525776
-0.18100943
-1.0496555
-0.18161996
-1.1071913
-0.18151668
-1.1680514
-0.18057554
-1.2324204
-0.17874252
-1.3005404
-0.17574216
-1.3724012
-0.17170016
-1.4486888
-0.16589282
-1.5275429
-0.15899903
-1.6135228
-1.6988732
-0.00042933575
-0.035042663
-0.00099662838
-0.038331826
-0.0015451976
-0.039507298
-0.0021690455
-0.041631311
-0.0027977442
-0.043380217
-0.0034900932
-0.045444371
-0.0042066892
-0.04749078
-0.0049798892
-0.049682157
-0.0057919716
-0.051950429
-0.0066591945
-0.054330164
-0.0075759071
-0.056815712
-0.0085502974
-0.059413432
-0.0095824718
-0.06213072
-0.010677411
-0.064970658
-0.011836987
-0.067941645
-0.013065337
-0.071048598
-0.014365134
-0.074299675
-0.015739593
-0.077701538
-0.017192126
-0.081262757
-0.018725307
-0.084991729
-0.020342445
-0.088897653
-0.022046005
-0.092990466
-0.023838544
-0.097280701
-0.025722651
-0.1017796
-0.02770021
-0.10649948
-0.02977288
-0.11145307
-0.031942372
-0.11665386
-0.034209799
-0.1221169
-0.036576368
-0.1278572
-0.039042549
-0.13389173
-0.041608758
-0.14023719
-0.044275086
-0.14691271
-0.047041524
-0.15393696
-0.049907455
-0.16133109
-0.052872722
-0.16911606
-0.055936628
-0.17731471
-0.05909774
-0.18595124
-0.06235583
-0.19505015
-0.065709436
-0.20463808
-0.069157691
-0.21474278
-0.072698966
-0.22539357
-0.076332422
-0.23662075
-0.080056688
-0.24845701
-0.083870227
-0.26093641
-0.087771348
-0.27409522
-0.091758204
-0.28797144
-0.095829322
-0.302605
-0.099982239
-0.31803895
-0.10421401
-0.33431881
-0.10852208
-0.35149193
-0.1129027
-0.36960971
-0.1173518
-0.38872642
-0.12186444
-0.40889907
-0.12643468
-0.43018966
-0.13105618
-0.45266275
-0.13572016
-0.47638858
-0.14041797
-0.50144037
-0.1451384
-0.52789787
-0.14986907
-0.55584483
-0.15459491
-0.58537136
-0.15929958
-0.6165726
-0.16396323
-0.64955137
-0.16856384
-0.68441623
-0.17307602
-0.72128379
-0.17747074
-0.76027844
-0.18171521
-0.80153221
-0.18577101
-0.84518573
-0.18959618
-0.89138452
-0.19313973
-0.94028649
-0.19634878
-0.99204871
-0.19915841
-1.0468458
-0.20149813
-1.1048516
-0.20329799
-1.1662515
-0.20446192
-1.2312565
-0.20492571
-1.3000766
-0.20448912
-1.3728378
-0.20321623
-1.4499617
-0.20051462
-1.5302445
-0.196942
-1.6170954
-1.7042388
-0.00042636768
-0.034616297
-0.00099867913
-0.037759516
-0.0015483021
-0.038957676
-0.0021788403
-0.041000774
-0.0028144629
-0.042744595
-0.0035171316
-0.044741704
-0.0042468153
-0.046761096
-0.0050356219
-0.048893352
-0.0058673489
-0.051118702
-0.0067571787
-0.053440335
-0.0077008842
-0.055872006
-0.0087061477
-0.058408169
-0.009773757
-0.061063111
-0.010908505
-0.063835911
-0.012112975
-0.066737175
-0.013391208
-0.069770366
-0.01474607
-0.072944813
-0.016181128
-0.076266482
-0.017699277
-0.079744607
-0.019303858
-0.083387148
-0.020997615
-0.087203896
-0.022783183
-0.091204899
-0.024662808
-0.095401077
-0.026638587
-0.099803824
-0.028712724
-0.10442534
-0.03088646
-0.10927933
-0.033160977
-0.11437934
-0.035537409
-0.11974047
-0.038016272
-0.12537833
-0.040598261
-0.13130974
-0.043282983
-0.13755246
-0.046070916
-0.14412478
-0.048961378
-0.1510465
-0.05195439
-0.15833807
-0.055049505
-0.16602095
-0.058245753
-0.17411846
-0.061543364
-0.18265363
-0.064941388
-0.19165213
-0.06843935
-0.20114012
-0.07203705
-0.21114508
-0.075734444
-0.22169618
-0.079530836
-0.23282436
-0.083426078
-0.24456177
-0.087420222
-0.25694227
-0.091513382
-0.27000206
-0.095705047
-0.28377978
-0.099995093
-0.29831495
-0.10438311
-0.31365093
-0.10886873
-0.32983319
-0.11345092
-0.34690974
-0.11812868
-0.36493195
-0.1229005
-0.3839546
-0.127764
-0.40403557
-0.13271663
-0.42523703
-0.1377544
-0.44762497
-0.14287347
-0.47126952
-0.14806768
-0.49624616
-0.15333069
-0.52263485
-0.15865419
-0.55052133
-0.16402851
-0.57999704
-0.16944187
-0.61115925
-0.17488102
-0.64411221
-0.18033026
-0.678967
-0.18577083
-0.71584322
-0.19118198
-0.75486728
-0.19653872
-0.79617547
-0.20181357
-0.83991088
-0.20697085
-0.88622724
-0.21197658
-0.93528077
-0.21678338
-0.98724191
-0.22134378
-1.0422854
-0.2256036
-1.1005918
-0.22949937
-1.1623558
-0.23296425
-1.2277916
-0.23593913
-1.2971018
-0.23827694
-1.3705
-0.23999826
-1.4482403
-0.24062471
-1.529618
-0.24060046
-1.6171197
-1.7057073
-0.00043024946
-0.034186048
-0.0010159857
-0.037173781
-0.0015762294
-0.038397433
-0.0022236831
-0.040353322
-0.0028777698
-0.042090508
-0.003602681
-0.044016794
-0.0043588534
-0.046004924
-0.0051774787
-0.048074728
-0.0060442831
-0.050251897
-0.0069733267
-0.052511292
-0.00796185
-0.054883483
-0.0090169818
-0.057353038
-0.010140468
-0.059939624
-0.011336879
-0.062639501
-0.012609536
-0.065464517
-0.013961933
-0.06841797
-0.015397713
-0.071509033
-0.016920115
-0.074744081
-0.018532542
-0.07813218
-0.020237715
-0.081681976
-0.022038197
-0.085403414
-0.023936695
-0.089306401
-0.025935292
-0.09340248
-0.028035878
-0.097703239
-0.030239538
-0.10222168
-0.032547866
-0.10697101
-0.034961702
-0.1119655
-0.037481553
-0.11722062
-0.040107408
-0.12275248
-0.042839812
-0.12857734
-0.045678563
-0.13471371
-0.048623482
-0.14117986
-0.051674231
-0.14799575
-0.054830938
-0.15518137
-0.058092877
-0.16275901
-0.061460541
-0.1707508
-0.06493352
-0.17918065
-0.068512053
-0.18807359
-0.072197048
-0.19745512
-0.075988628
-0.20735351
-0.079887475
-0.21779733
-0.083895178
-0.22881665
-0.088012589
-0.24044436
-0.092241305
-0.25271355
-0.096582501
-0.26566086
-0.10103844
-0.27932384
-0.10561026
-0.29374313
-0.11030018
-0.30896101
-0.1151096
-0.32502378
-0.1200401
-0.34197924
-0.12509329
-0.35987876
-0.13027008
-0.37877781
-0.13557151
-0.39873413
-0.1409976
-0.41981094
-0.14654879
-0.44207378
-0.15222376
-0.46559454
-0.15802112
-0.4904488
-0.16393856
-0.51671741
-0.16997251
-0.54448738
-0.17611822
-0.57385133
-0.18237018
-0.60490729
-0.18872058
-0.63776181
-0.19515999
-0.67252759
-0.2016779
-0.70932531
-0.2082606
-0.74828459
-0.21489245
-0.78954362
-0.22155327
-0.83325005
-0.22822343
-0.87955709
-0.23487269
-0.92863151
-0.24147311
-0.98064148
-0.24798776
-1.0357708
-0.2543746
-1.094205
-0.26058664
-1.1561437
-0.26657896
-1.2217993
-0.27229648
-1.2913842
-0.27764997
-1.3651465
-0.28262082
-1.4432695
-0.28683089
-1.5254079
-0.29062337
-1.6133272
-1.7030009
-0.00044212584
-0.033743923
-0.0010516606
-0.036564247
-0.0016336716
-0.037815422
-0.0023094183
-0.039677576
-0.0029949789
-0.041404948
-0.0037556651
-0.043256109
-0.0045535217
-0.045207068
-0.0054181178
-0.047210133
-0.0063377084
-0.049332307
-0.0073248929
-0.051524109
-0.0083787835
-0.053829592
-0.0095057351
-0.056226088
-0.010708521
-0.058736838
-0.01199164
-0.061356384
-0.0133585
-0.064097656
-0.014813083
-0.066963388
-0.016358964
-0.069963151
-0.01799927
-0.073103776
-0.019737125
-0.076394325
-0.02157524
-0.079843862
-0.023516318
-0.083462335
-0.025562066
-0.087260655
-0.027714385
-0.09125016
-0.029974431
-0.095443194
-0.03234356
-0.099852555
-0.034822364
-0.1044922
-0.037411071
-0.1093768
-0.040109892
-0.1145218
-0.042919084
-0.11994329
-0.045838035
-0.12565839
-0.048867122
-0.13168463
-0.052005667
-0.13804132
-0.055254116
-0.1447473
-0.058612149
-0.15182333
-0.062080378
-0.15929078
-0.065658916
-0.16717226
-0.069349073
-0.1754905
-0.073151736
-0.18427093
-0.077068388
-0.19353847
-0.081100964
-0.20332093
-0.08525185
-0.21364644
-0.089523058
-0.22454545
-0.093918228
-0.23604919
-0.098439773
-0.24819201
-0.1030917
-0.26100893
-0.10787728
-0.27453827
-0.11280081
-0.28881959
-0.11786584
-0.30389598
-0.12307676
-0.31981286
-0.1284378
-0.3366182
-0.133953
-0.35436356
-0.13962639
-0.37310442
-0.14546196
-0.39289856
-0.15146363
-0.41380928
-0.15763441
-0.43590301
-0.16397773
-0.45925122
-0.17049644
-0.48393009
-0.17719211
-0.51002173
-0.18406677
-0.53761272
-0.19112111
-0.566797
-0.19835434
-0.59767405
-0.20576599
-0.63035017
-0.21335361
-0.66493997
-0.22111335
-0.70156556
-0.2290401
-0.74035784
-0.23712722
-0.7814565
-0.24536603
-0.82501124
-0.25374351
-0.87117961
-0.26224593
-0.92012909
-0.2708518
-0.97203561
-0.27954168
-1.0270809
-0.28828886
-1.0854578
-0.29706326
-1.1473693
-0.30583393
-1.2130287
-0.31456077
-1.2826574
-0.32319063
-1.3565167
-0.33169791
-1.4347622
-0.33978184
-1.517324
-0.34769871
-1.6054103
-1.695796
-0.00046184638
-0.033282077
-0.001105507
-0.035920587
-0.0017207775
-0.037200152
-0.0024372795
-0.038961075
-0.003168797
-0.040673431
-0.0039804956
-0.042444411
-0.0048373536
-0.044350209
-0.0057664432
-0.046281044
-0.0067591688
-0.048339581
-0.0078264566
-0.050456822
-0.0089692942
-0.052686755
-0.010193505
-0.055001878
-0.011502631
-0.057427712
-0.012901064
-0.059957951
-0.014392714
-0.062606006
-0.015981194
-0.065374909
-0.017670122
-0.068274223
-0.019462455
-0.071311443
-0.021360998
-0.074495782
-0.023368142
-0.077836719
-0.025485806
-0.081344671
-0.027715535
-0.085030927
-0.030058675
-0.08890702
-0.032515772
-0.092986097
-0.035087235
-0.097281093
-0.037773227
-0.10180621
-0.040573735
-0.10657629
-0.043488492
-0.11160704
-0.046517355
-0.11691442
-0.049660082
-0.12251566
-0.052916243
-0.12842846
-0.056286274
-0.13467129
-0.059770405
-0.14126317
-0.063369061
-0.14822468
-0.067083551
-0.15557629
-0.070915306
-0.16334051
-0.074866229
-0.17153957
-0.078938887
-0.18019827
-0.083135691
-0.18934167
-0.087460542
-0.19899608
-0.091917022
-0.20918996
-0.096509858
-0.21995261
-0.10124308
-0.23131596
-0.10612252
-0.24331257
-0.1111534
-0.25597805
-0.11634171
-0.26934996
-0.12169363
-0.28346766
-0.12721557
-0.29837405
-0.13291439
-0.31411404
-0.13879699
-0.33073561
-0.1448702
-0.34829035
-0.15114166
-0.36683296
-0.15761826
-0.38642196
-0.16430752
-0.40712002
-0.17121669
-0.42899384
-0.17835293
-0.45211498
-0.18572332
-0.47655971
-0.19333502
-0.50241003
-0.20119411
-0.52975363
-0.20930757
-0.55868354
-0.21768108
-0.58930054
-0.22631992
-0.62171133
-0.23522915
-0.65603074
-0.24441294
-0.69238177
-0.25387477
-0.73089601
-0.26361664
-0.77171463
-0.27363996
-0.81498791
-0.28394425
-0.86087532
-0.2945255
-0.90954785
-0.30537861
-0.9611825
-0.31649459
-1.0159649
-0.32786365
-1.0740887
-0.3394692
-1.1357638
-0.35129607
-1.2012018
-0.36332508
-1.2706284
-0.37553343
-1.3443083
-0.38789419
-1.4224014
-0.40018312
-1.5050351
-0.41257684
-1.5930166
-1.6837377
-0.00049192798
-0.032790149
-0.0011824138
-0.035230102
-0.0018452715
-0.036537295
-0.002617325
-0.038189022
-0.0034120115
-0.039878744
-0.0042928968
-0.041563526
-0.0052290668
-0.04341404
-0.0062446345
-0.045265477
-0.0073343544
-0.047249861
-0.0085075769
-0.0492836
-0.009767084
-0.051427248
-0.011118037
-0.053650926
-0.012564864
-0.055980885
-0.014111612
-0.058411203
-0.015762355
-0.060955263
-0.017520573
-0.063616692
-0.019389228
-0.066405568
-0.021371421
-0.069329251
-0.023469152
-0.072398051
-0.025684211
-0.075621661
-0.028017639
-0.079011243
-0.030470369
-0.082578197
-0.033042795
-0.086334594
-0.035734986
-0.090293906
-0.038546601
-0.094469478
-0.041477287
-0.098875524
-0.044526474
-0.1035271
-0.047693924
-0.10843959
-0.050978895
-0.11362945
-0.054381495
-0.11911306
-0.057902141
-0.12490782
-0.061541149
-0.13103228
-0.065299603
-0.13750472
-0.069179077
-0.1443452
-0.073181838
-0.15157353
-0.077310874
-0.15921147
-0.081568923
-0.16728152
-0.085960589
-0.17580661
-0.090490217
-0.18481204
-0.09516285
-0.19432345
-0.099984542
-0.20436827
-0.10496134
-0.21497581
-0.11010025
-0.22617706
-0.1154087
-0.23800412
-0.12089438
-0.25049237
-0.12656584
-0.2636785
-0.13243148
-0.27760202
-0.13850053
-0.292305
-0.14478272
-0.30783185
-0.15128753
-0.32423079
-0.15802542
-0.34155245
-0.16500679
-0.3598516
-0.17224243
-0.37918632
-0.17974341
-0.39961904
-0.18752122
-0.42121603
-0.19558741
-0.44404879
-0.20395362
-0.46819349
-0.21263192
-0.49373173
-0.22163446
-0.52075108
-0.23097332
-0.54934469
-0.24066114
-0.57961272
-0.25070999
-0.61166247
-0.26113243
-0.6456083
-0.27194048
-0.68157373
-0.28314667
-0.71968982
-0.29476284
-0.76009846
-0.30680082
-0.80294994
-0.31927075
-0.84840539
-0.33218129
-0.89663731
-0.34554464
-0.94781915
-0.35936216
-1.0021474
-0.37363578
-1.0598151
-0.38837092
-1.1210286
-0.40357084
-1.1860019
-0.41922859
-1.2549706
-0.4353486
-1.3281883
-0.45190979
-1.4058402
-0.46877211
-1.4881727
-0.48604601
-1.5757426
-1.6664325
-0.00053282286
-0.032257327
-0.0012842348
-0.034478691
-0.0020107391
-0.035810791
-0.0028552733
-0.037344489
-0.0037328882
-0.03900113
-0.0047039735
-0.040592441
-0.0057431556
-0.042374857
-0.0068708901
-0.044137743
-0.0080855188
-0.046035233
-0.0093947701
-0.047974349
-0.010803051
-0.050018967
-0.012315
-0.052138977
-0.013935469
-0.054360416
-0.015668189
-0.056678484
-0.017517043
-0.05910641
-0.019484912
-0.061648823
-0.021574551
-0.064315929
-0.02378761
-0.067116192
-0.02612555
-0.070060112
-0.02858923
-0.073157981
-0.031178836
-0.076421637
-0.03389442
-0.079862613
-0.036735072
-0.083493943
-0.039700418
-0.087328561
-0.042789338
-0.091380557
-0.046001167
-0.095663696
-0.049334876
-0.10019339
-0.052790138
-0.10498433
-0.056367112
-0.11005248
-0.060065911
-0.11541427
-0.063887455
-0.12108627
-0.067833237
-0.1270865
-0.071905655
-0.1334323
-0.076107751
-0.14014311
-0.08044288
-0.1472384
-0.084915351
-0.154739
-0.089530905
-0.16266597
-0.094294751
-0.17104276
-0.099213965
-0.17989283
-0.10429551
-0.1892419
-0.10954734
-0.19911644
-0.11497804
-0.20954512
-0.12059695
-0.22055815
-0.12641348
-0.23218759
-0.13243807
-0.24446778
-0.1386815
-0.25743508
-0.14515518
-0.27112834
-0.15187135
-0.28558883
-0.15884199
-0.30086121
-0.16608055
-0.31699224
-0.17360004
-0.33403296
-0.18141491
-0.35203672
-0.18953969
-0.37106154
-0.19798931
-0.39116942
-0.20677927
-0.41242607
-0.21592603
-0.43490203
-0.22544628
-0.45867324
-0.2353573
-0.48382071
-0.24567717
-0.51043122
-0.25642405
-0.53859781
-0.26761737
-0.5684194
-0.27927652
-0.60000332
-0.29142186
-0.63346295
-0.30407428
-0.66892131
-0.31725483
-0.70650926
-0.33098635
-0.74636695
-0.34529068
-0.78864561
-0.3601905
-0.83350557
-0.37570945
-0.88111836
-0.39186723
-0.93166137
-0.40868458
-0.98533006
-0.426184
-1.0423157
-0.4443804
-1.1028322
-0.46329315
-1.1670891
-0.48293857
-1.2353252
-0.50334342
-1.3077835
-0.52450056
-1.3846831
-0.54633496
-1.4663383
-0.56892275
-1.5531548
-1.6434236
-0.00058541229
-0.031671915
-0.0014132624
-0.033650841
-0.0022221344
-0.035001919
-0.0031588075
-0.036407816
-0.0041427843
-0.038017153
-0.005229356
-0.03950587
-0.0063997444
-0.041204469
-0.0076700062
-0.042867482
-0.0090424291
-0.04466281
-0.010523109
-0.04649367
-0.012117796
-0.048424281
-0.01383043
-0.050426343
-0.015665862
-0.052524985
-0.017627188
-0.054717158
-0.019717611
-0.057015987
-0.021939144
-0.05942729
-0.024293339
-0.061961735
-0.026780882
-0.06462865
-0.029401989
-0.067439004
-0.032156042
-0.070403929
-0.035042364
-0.073535315
-0.038059331
-0.076845646
-0.041205904
-0.08034737
-0.044480365
-0.0840541
-0.04788171
-0.087979213
-0.051408557
-0.092136849
-0.05506067
-0.09654128
-0.058837972
-0.10120703
-0.062740664
-0.10614979
-0.066770671
-0.11138426
-0.070929528
-0.11692742
-0.075220902
-0.12279512
-0.079648095
-0.12900511
-0.084216077
-0.13557513
-0.08893021
-0.14252427
-0.093797324
-0.14987189
-0.098824247