/*--------------------------------*- C++ -*----------------------------------*\
  =========                 |
  \\      /  F ield         | OpenFOAM: The Open Source CFD Toolbox
   \\    /   O peration     | Website:  https://openfoam.org
    \\  /    A nd           | Version:  6
     \\/     M anipulation  |
\*---------------------------------------------------------------------------*/
FoamFile
{
    version     2.0;
    format      ascii;
    class       volScalarField;
    location    "600";
    object      rho;
}
// * * * * * * * * * * * * * * * * * * * * * * * * * * * * * * * * * * * * * //

dimensions      [1 -3 0 0 0 0 0];

internalField   nonuniform List<scalar> 
16000
(
1.1562009
1.1615683
1.1599408
1.1612627
1.1608245
1.161548
1.1615151
1.1620219
1.162174
1.1625893
1.1628406
1.1632198
1.1635289
1.1638996
1.1642448
1.1646203
1.1649896
1.1653751
1.1657619
1.1661581
1.1665576
1.1669629
1.1673712
1.1677826
1.1681954
1.1686089
1.1690219
1.1694331
1.1698412
1.170245
1.1706432
1.1710343
1.1714172
1.1717904
1.1721526
1.1725026
1.1728393
1.1731615
1.1734683
1.1737586
1.1740316
1.1742867
1.1745232
1.1747407
1.1749388
1.1751173
1.1752761
1.1754151
1.1755345
1.1756344
1.1757152
1.1757771
1.1758205
1.1758459
1.1758538
1.1758447
1.1758192
1.1757778
1.1757211
1.1756496
1.1755638
1.1754645
1.1753516
1.175227
1.1750878
1.17494
1.1747719
1.1746048
1.1743975
1.1742241
1.1739461
1.1738114
1.1733857
1.1734327
1.1725857
1.1731677
1.1712457
1.1733015
1.1691265
1.1737079
1.1566646
1.1620446
1.1603455
1.1617338
1.1612772
1.1620507
1.1620174
1.162561
1.1627243
1.1631689
1.1634384
1.1638429
1.1641734
1.1645679
1.1649354
1.1653337
1.1657253
1.1661325
1.1665405
1.166957
1.1673761
1.1677997
1.1682252
1.1686522
1.1690792
1.1695051
1.1699284
1.1703479
1.1707621
1.1711696
1.171569
1.1719587
1.1723376
1.172704
1.1730569
1.1733949
1.1737168
1.1740216
1.1743086
1.1745769
1.1748259
1.175055
1.1752638
1.1754522
1.1756201
1.1757674
1.1758944
1.1760013
1.1760885
1.1761564
1.1762055
1.1762365
1.1762497
1.176246
1.1762259
1.1761901
1.1761392
1.176074
1.1759949
1.1759025
1.1757975
1.1756803
1.1755514
1.1754114
1.1752597
1.1750983
1.1749227
1.1747405
1.1745353
1.1743367
1.1740846
1.173892
1.1735355
1.1734513
1.1727978
1.1731048
1.171549
1.1731442
1.1694051
1.1736367
1.1572925
1.1626784
1.1609356
1.1623881
1.1619231
1.1627399
1.1627152
1.1632913
1.1634724
1.1639439
1.1642355
1.1646646
1.1650187
1.1654366
1.1658276
1.1662485
1.1666626
1.1670911
1.1675199
1.1679559
1.1683934
1.168834
1.1692748
1.1697154
1.1701539
1.1705891
1.1710195
1.1714435
1.1718596
1.1722662
1.1726618
1.1730449
1.1734141
1.1737679
1.1741052
1.1744247
1.1747254
1.1750064
1.175267
1.1755066
1.1757249
1.1759215
1.1760963
1.1762495
1.1763811
1.1764917
1.1765815
1.1766512
1.1767013
1.1767326
1.1767459
1.1767419
1.1767213
1.176685
1.1766337
1.1765683
1.1764894
1.1763977
1.1762939
1.1761786
1.1760522
1.1759153
1.1757683
1.1756117
1.1754452
1.1752696
1.1750829
1.1748875
1.1746765
1.1744613
1.174215
1.1739898
1.1736721
1.1734975
1.1729695
1.1730883
1.1717944
1.1730158
1.1696544
1.1735257
1.1581101
1.163487
1.1617215
1.1632398
1.1627685
1.1636319
1.163618
1.1642296
1.164431
1.1649321
1.1652486
1.1657046
1.166085
1.1665285
1.1669452
1.1673905
1.1678287
1.1682799
1.1687304
1.1691864
1.1696424
1.1700995
1.1705547
1.1710073
1.1714554
1.1718974
1.1723316
1.1727563
1.1731699
1.1735706
1.1739569
1.1743272
1.1746801
1.1750142
1.1753283
1.1756215
1.1758929
1.1761417
1.1763674
1.1765698
1.1767487
1.1769043
1.1770367
1.1771464
1.1772339
1.1772998
1.177345
1.1773703
1.1773766
1.177365
1.1773363
1.1772916
1.177232
1.1771582
1.1770712
1.1769719
1.1768611
1.1767396
1.1766079
1.1764667
1.1763165
1.1761577
1.1759908
1.175816
1.1756333
1.1754429
1.1752437
1.1750361
1.174817
1.1745898
1.1743431
1.1740983
1.173801
1.1735738
1.1731204
1.1731045
1.1720202
1.1729436
1.1699125
1.1735413
1.1591104
1.1644593
1.162699
1.1642858
1.163814
1.164726
1.1647285
1.1653775
1.1656043
1.166137
1.1664825
1.1669674
1.1673771
1.1678479
1.1682925
1.1687634
1.1692269
1.1697012
1.1701736
1.1706493
1.1711229
1.1715949
1.1720624
1.1725244
1.1729786
1.1734233
1.1738567
1.1742768
1.174682
1.1750703
1.1754402
1.1757902
1.1761188
1.1764249
1.1767073
1.1769654
1.1771985
1.1774061
1.1775881
1.1777445
1.1778755
1.1779818
1.1780637
1.1781223
1.1781583
1.1781729
1.178167
1.178142
1.178099
1.1780393
1.1779641
1.1778746
1.177772
1.1776573
1.1775314
1.1773955
1.1772503
1.1770966
1.176935
1.1767662
1.1765905
1.1764084
1.1762203
1.1760262
1.1758263
1.1756203
1.1754077
1.1751879
1.174959
1.1747216
1.1744703
1.1742126
1.1739239
1.1736618
1.1732619
1.1731386
1.1722261
1.1729115
1.1701587
1.1735718
1.1603151
1.16563
1.1638921
1.1655493
1.1650815
1.1660441
1.1660676
1.1667556
1.1670119
1.167578
1.1679559
1.1684715
1.168913
1.1694129
1.169887
1.1703846
1.1708741
1.1713718
1.1718658
1.1723601
1.1728497
1.1733345
1.1738114
1.1742791
1.174735
1.1751773
1.175604
1.1760129
1.1764023
1.1767703
1.1771153
1.177436
1.1777309
1.1779992
1.17824
1.1784529
1.1786375
1.1787939
1.1789222
1.179023
1.1790969
1.1791449
1.179168
1.1791674
1.1791445
1.1791007
1.1790375
1.1789563
1.1788587
1.1787461
1.17862
1.1784817
1.1783326
1.1781738
1.1780064
1.1778313
1.1776495
1.1774618
1.1772687
1.1770708
1.1768685
1.1766621
1.1764518
1.1762378
1.1760201
1.1757983
1.1755718
1.1753399
1.1751011
1.1748546
1.1745974
1.174331
1.1740454
1.1737618
1.1733979
1.1731914
1.1724246
1.1729095
1.1704135
1.1736354
1.1617363
1.1670488
1.1653144
1.1670435
1.1665844
1.1675986
1.1676479
1.1683763
1.1686665
1.1692674
1.1696813
1.1702294
1.1707053
1.1712356
1.1717407
1.1722658
1.1727816
1.1733023
1.1738168
1.174328
1.174831
1.1753251
1.1758072
1.1762753
1.176727
1.17716
1.1775721
1.1779614
1.1783258
1.1786636
1.1789734
1.1792539
1.1795041
1.1797232
1.1799111
1.1800674
1.1801925
1.1802867
1.180351
1.1803861
1.1803935
1.1803743
1.1803303
1.180263
1.1801743
1.1800659
1.1799396
1.1797973
1.1796406
1.1794713
1.1792909
1.179101
1.1789029
1.1786979
1.1784871
1.1782715
1.1780519
1.1778291
1.1776036
1.177376
1.1771464
1.1769152
1.1766826
1.1764485
1.1762128
1.1759751
1.1757349
1.1754911
1.1752424
1.1749875
1.1747242
1.1744516
1.1741659
1.1738699
1.1735323
1.1732649
1.1726202
1.1729246
1.1706689
1.1737297
1.163373
1.1687034
1.166967
1.1687715
1.1683273
1.1693958
1.1694775
1.1702486
1.1705786
1.171217
1.1716713
1.1722544
1.1727676
1.1733303
1.1738678
1.1744211
1.1749632
1.1755059
1.176039
1.1765643
1.1770769
1.1775754
1.1780566
1.1785182
1.1789575
1.1793721
1.1797599
1.1801187
1.1804467
1.1807423
1.1810044
1.181232
1.1814244
1.1815816
1.1817037
1.181791
1.1818445
1.1818651
1.1818543
1.1818137
1.181745
1.18165
1.181531
1.18139
1.1812291
1.1810506
1.1808566
1.180649
1.1804298
1.1802008
1.1799638
1.1797203
1.1794717
1.1792193
1.1789642
1.1787073
1.1784494
1.1781912
1.1779332
1.1776757
1.177419
1.1771632
1.1769084
1.1766544
1.1764011
1.176148
1.1758944
1.1756393
1.1753812
1.1751188
1.1748499
1.174573
1.1742861
1.1739844
1.1736649
1.1733563
1.1728157
1.1729592
1.1709442
1.1738549
1.1652262
1.1705967
1.1688573
1.1707423
1.1703211
1.1714477
1.1715698
1.1723871
1.1727634
1.1734427
1.1739422
1.174563
1.1751166
1.1757133
1.1762844
1.1768658
1.177433
1.1779956
1.1785439
1.1790787
1.179595
1.1800908
1.1805627
1.1810082
1.1814244
1.181809
1.1821597
1.1824745
1.182752
1.182991
1.1831905
1.1833503
1.1834704
1.1835511
1.1835934
1.1835984
1.1835676
1.1835028
1.183406
1.1832796
1.1831258
1.1829471
1.1827461
1.1825254
1.1822873
1.1820344
1.181769
1.1814932
1.1812093
1.180919
1.1806241
1.1803262
1.1800267
1.1797268
1.1794274
1.1791295
1.1788337
1.1785407
1.1782508
1.1779642
1.1776811
1.1774014
1.1771252
1.1768521
1.1765819
1.1763141
1.1760479
1.1757823
1.1755158
1.1752468
1.1749732
1.1746936
1.1744055
1.1741031
1.1737952
1.1734608
1.1730105
1.1730116
1.1712383
1.1739898
1.1673162
1.172738
1.1710041
1.1729754
1.1725857
1.1737744
1.1739453
1.1748122
1.1752417
1.1759651
1.1765144
1.1771757
1.1777719
1.1784036
1.1790082
1.1796164
1.1802062
1.1807845
1.1813425
1.1818797
1.182391
1.182874
1.1833252
1.1837417
1.1841207
1.1844601
1.1847577
1.185012
1.185222
1.185387
1.1855069
1.1855821
1.1856133
1.1856019
1.1855496
1.1854584
1.1853306
1.1851688
1.1849757
1.1847543
1.1845076
1.1842384
1.1839497
1.1836445
1.1833255
1.1829954
1.1826565
1.1823113
1.1819618
1.1816099
1.1812573
1.1809054
1.1805557
1.1802091
1.1798667
1.179529
1.1791967
1.1788701
1.1785496
1.1782353
1.1779271
1.1776249
1.1773284
1.1770375
1.1767516
1.1764703
1.1761927
1.1759178
1.175644
1.1753696
1.1750927
1.1748117
1.1745234
1.1742242
1.1739239
1.1735778
1.1732033
1.1730823
1.1715536
1.1741318
1.1696721
1.1751479
1.1734257
1.1754898
1.1751409
1.176396
1.1766251
1.1775455
1.1780355
1.1788066
1.1794103
1.1801142
1.1807547
1.1814214
1.1820579
1.1826897
1.183297
1.1838843
1.1844432
1.1849721
1.1854661
1.1859223
1.186337
1.1867074
1.1870312
1.1873062
1.187531
1.1877047
1.1878271
1.1878983
1.1879192
1.1878912
1.1878161
1.1876963
1.1875343
1.1873333
1.1870963
1.1868269
1.1865284
1.1862044
1.1858584
1.1854937
1.1851135
1.1847211
1.1843193
1.1839109
1.1834984
1.1830839
1.1826697
1.1822573
1.1818485
1.1814445
1.1810465
1.1806554
1.1802719
1.1798966
1.1795299
1.1791719
1.178823
1.1784829
1.1781515
1.1778285
1.1775137
1.1772066
1.1769068
1.1766135
1.1763259
1.176043
1.1757633
1.1754851
1.1752063
1.1749254
1.1746385
1.1743452
1.1740501
1.1737039
1.1733908
1.1731681
1.1718742
1.1742632
1.1723171
1.1778389
1.1761386
1.1783042
1.1780087
1.1793358
1.1796345
1.1806132
1.1811714
1.181994
1.182656
1.1834042
1.1840889
1.1847886
1.1854527
1.1861018
1.1867178
1.1873032
1.1878498
1.1883552
1.1888145
1.1892245
1.1895819
1.1898843
1.1901297
1.1903168
1.1904451
1.1905147
1.1905265
1.1904818
1.1903829
1.1902322
1.1900329
1.1897885
1.1895027
1.1891794
1.1888228
1.188437
1.1880261
1.187594
1.1871447
1.1866818
1.1862086
1.1857285
1.1852442
1.1847587
1.1842741
1.1837926
1.183316
1.182846
1.1823839
1.1819308
1.1814876
1.181055
1.1806336
1.1802237
1.1798255
1.179439
1.1790642
1.1787009
1.1783489
1.1780075
1.1776766
1.1773554
1.1770435
1.1767401
1.1764444
1.1761552
1.1758713
1.1755907
1.1753118
1.1750325
1.1747491
1.1744636
1.1741729
1.1738363
1.1735706
1.1732649
1.1721958
1.1743909
1.1752607
1.1808436
1.1791754
1.1814514
1.181223
1.1826272
1.1830073
1.1840486
1.1846823
1.1855592
1.1862815
1.1870734
1.1877994
1.1885265
1.1892101
1.1898654
1.1904763
1.191043
1.191558
1.1920181
1.1924188
1.1927571
1.1930304
1.1932369
1.1933758
1.193447
1.1934513
1.1933904
1.1932665
1.1930826
1.1928424
1.1925499
1.1922096
1.191826
1.1914041
1.1909486
1.1904645
1.1899565
1.189429
1.1888864
1.1883328
1.1877718
1.1872068
1.186641
1.186077
1.1855175
1.1849645
1.1844198
1.1838851
1.1833617
1.1828506
1.1823526
1.1818684
1.1813984
1.180943
1.1805023
1.1800762
1.1796646
1.1792673
1.1788839
1.178514
1.1781571
1.1778126
1.1774798
1.177158
1.1768467
1.1765448
1.1762514
1.175965
1.175684
1.1754067
1.1751307
1.1748529
1.1745768
1.174291
1.1739722
1.1737429
1.173372
1.1725131
1.1745155
1.1785332
1.1841916
1.1825682
1.1849647
1.1848197
1.1863062
1.1867804
1.1878883
1.1886034
1.1895362
1.1903184
1.1911499
1.19191
1.192654
1.1933426
1.1939864
1.1945707
1.1950944
1.1955504
1.1959356
1.196246
1.1964797
1.1966352
1.1967122
1.1967115
1.1966349
1.1964849
1.1962652
1.19598
1.195634
1.1952325
1.194781
1.1942854
1.1937513
1.1931845
1.1925907
1.191975
1.1913426
1.1906983
1.1900463
1.1893906
1.1887349
1.1880822
1.1874353
1.1867968
1.1861687
1.1855529
1.1849508
1.1843636
1.1837922
1.1832375
1.1826999
1.1821798
1.1816773
1.1811926
1.1807254
1.1802755
1.1798428
1.1794266
1.1790267
1.1786423
1.1782728
1.1779175
1.1775757
1.1772468
1.1769298
1.176624
1.1763283
1.1760414
1.1757619
1.1754881
1.1752171
1.1749475
1.1746817
1.1744028
1.1741084
1.1739056
1.1734883
1.1728229
1.1746321
1.1821674
1.1879197
1.186357
1.1888845
1.188842
1.1904155
1.1909977
1.192176
1.1929758
1.1939623
1.1947993
1.1956608
1.1964405
1.1971826
1.1978528
1.1984576
1.1989841
1.1994302
1.1997899
1.2000609
1.2002408
1.2003292
1.2003268
1.2002355
1.2000585
1.1997998
1.1994646
1.1990585
1.198588
1.1980597
1.1974803
1.196857
1.1961965
1.1955053
1.19479
1.1940563
1.1933098
1.1925556
1.1917982
1.1910418
1.19029
1.1895461
1.1888126
1.188092
1.1873862
1.186697
1.1860256
1.1853731
1.1847404
1.1841278
1.1835359
1.1829648
1.1824145
1.181885
1.181376
1.1808873
1.1804182
1.1799685
1.1795376
1.1791247
1.1787292
1.1783504
1.1779875
1.1776396
1.1773061
1.176986
1.1766785
1.1763827
1.1760975
1.1758214
1.1755527
1.1752889
1.1750294
1.1747747
1.1745057
1.1742397
1.1740528
1.1736103
1.173124
1.1747318
1.1862082
1.192073
1.1905908
1.1932575
1.1933393
1.1950031
1.1957064
1.196959
1.1978424
1.1988739
1.1997522
1.2006246
1.2013989
1.2021089
1.202725
1.2032508
1.2036754
1.2039971
1.2042118
1.2043192
1.2043197
1.2042154
1.2040102
1.2037089
1.2033178
1.2028438
1.2022946
1.2016784
1.2010035
1.2002781
1.1995107
1.1987089
1.1978803
1.197032
1.1961703
1.1953012
1.1944299
1.1935612
1.1926991
1.1918472
1.1910087
1.190186
1.1893813
1.1885963
1.1878326
1.1870912
1.1863729
1.1856783
1.1850078
1.1843615
1.1837394
1.1831414
1.1825672
1.1820165
1.1814888
1.1809835
1.1805
1.1800378
1.1795961
1.1791742
1.1787713
1.1783864
1.178019
1.1776679
1.1773325
1.1770119
1.1767051
1.1764115
1.1761298
1.175859
1.1755973
1.1753425
1.175095
1.1748521
1.1745967
1.1743616
1.174183
1.173736
1.1734123
1.1748111
1.1907032
1.196698
1.1953254
1.1981422
1.1983828
1.200143
1.2009648
1.2022786
1.2032387
1.2042985
1.2051928
1.2060441
1.206773
1.2074049
1.2079149
1.2083057
1.2085694
1.2087062
1.2087159
1.2086013
1.2083668
1.2080186
1.2075643
1.2070126
1.206373
1.2056556
1.2048704
1.2040278
1.2031375
1.2022092
1.2012517
1.2002732
1.1992814
1.198283
1.1972841
1.19629
1.1953052
1.1943339
1.1933794
1.1924443
1.1915312
1.1906418
1.1897774
1.1889393
1.1881282
1.1873446
1.186589
1.1858612
1.1851614
1.1844892
1.1838443
1.1832263
1.1826346
1.1820686
1.1815276
1.1810109
1.1805179
1.1800476
1.1795993
1.1791721
1.1787653
1.1783778
1.1780088
1.1776575
1.1773229
1.1770042
1.1767006
1.1764111
1.176135
1.1758712
1.1756181
1.1753742
1.1751401
1.1749097
1.1746719
1.1744678
1.1742902
1.1738574
1.1736812
1.1748696
1.1957301
1.2018617
1.2006498
1.2036166
1.2040421
1.2058826
1.2068269
1.2081917
1.2091999
1.2102544
1.2111201
1.2118971
1.2125188
1.2130046
1.2133361
1.213517
1.2135447
1.2134238
1.2131592
1.2127589
1.2122326
1.2115911
1.2108465
1.2100113
1.209098
1.2081194
1.2070874
1.2060136
1.2049085
1.2037819
1.2026426
1.2014986
1.2003566
1.1992226
1.1981018
1.1969985
1.1959164
1.1948584
1.1938268
1.1928236
1.1918503
1.1909078
1.1899966
1.1891173
1.1882702
1.1874552
1.186672
1.1859204
1.1851998
1.1845097
1.1838493
1.1832181
1.1826152
1.1820397
1.1814909
1.1809679
1.1804699
1.1799958
1.1795449
1.1791162
1.1787089
1.1783219
1.1779544
1.1776055
1.1772743
1.1769599
1.1766616
1.1763784
1.1761097
1.1758545
1.1756114
1.1753798
1.1751598
1.1749432
1.1747263
1.1745504
1.1743686
1.1739684
1.1739185
1.1749017
1.2014908
1.2077394
1.2067415
1.2098113
1.210387
1.2122781
1.2133365
1.2147259
1.2157405
1.2167283
1.2174923
1.2181114
1.2185355
1.2187814
1.2188396
1.2187186
1.2184234
1.2179651
1.2173556
1.2166093
1.2157415
1.2147679
1.2137047
1.2125672
1.2113706
1.2101285
1.2088538
1.2075581
1.2062515
1.2049432
1.2036408
1.202351
1.2010795
1.1998309
1.1986089
1.1974166
1.1962565
1.1951302
1.1940392
1.1929844
1.1919663
1.190985
1.1900404
1.1891325
1.1882609
1.1874249
1.1866241
1.1858576
1.1851245
1.1844241
1.1837554
1.1831175
1.1825094
1.1819301
1.1813786
1.180854
1.1803553
1.1798815
1.1794317
1.1790049
1.1786002
1.1782167
1.1778534
1.1775094
1.1771839
1.1768761
1.176585
1.17631
1.1760503
1.1758051
1.1755733
1.175355
1.1751493
1.1749478
1.1747538
1.1746011
1.1744162
1.1740662
1.1741128
1.1749042
1.2080122
1.2142977
1.2134987
1.2166184
1.2175068
1.2195228
1.2205923
1.221909
1.2228314
1.2236425
1.2241887
1.2245308
1.2246369
1.224526
1.2242009
1.2236778
1.2229716
1.2221017
1.2210877
1.2199502
1.2187096
1.2173855
1.2159962
1.2145588
1.2130886
1.2115992
1.2101026
1.2086089
1.2071269
1.2056639
1.2042258
1.2028175
1.2014428
1.2001048
1.1988056
1.1975471
1.1963301
1.1951554
1.1940232
1.1929336
1.1918863
1.1908805
1.1899157
1.1889912
1.188106
1.1872593
1.18645
1.1856771
1.1849395
1.1842359
1.1835654
1.1829268
1.1823191
1.181741
1.1811915
1.1806696
1.1801741
1.1797042
1.1792589
1.1788371
1.1784379
1.1780605
1.1777038
1.177367
1.1770493
1.1767499
1.1764679
1.1762026
1.1759534
1.1757194
1.1754999
1.1752955
1.1751043
1.1749189
1.1747479
1.1746163
1.1744404
1.1741414
1.1742512
1.1748709
1.2152704
1.2215729
1.221176
1.2245357
1.2254378
1.2273608
1.2284459
1.2295745
1.2302852
1.2307837
1.2309661
1.2308865
1.2305354
1.2299415
1.2291223
1.2281054
1.2269165
1.225583
1.224131
1.2225857
1.2209701
1.2193049
1.2176087
1.2158975
1.2141848
1.2124824
1.2107997
1.2091445
1.2075231
1.2059403
1.2043998
1.2029044
1.2014562
1.2000562
1.1987053
1.1974037
1.1961514
1.1949477
1.1937922
1.1926842
1.1916224
1.1906056
1.1896328
1.1887028
1.1878143
1.1869661
1.1861568
1.1853852
1.1846499
1.1839497
1.1832832
1.1826494
1.1820468
1.1814745
1.1809311
1.1804157
1.1799271
1.1794643
1.1790264
1.1786123
1.1782211
1.1778519
1.1775039
1.1771762
1.1768679
1.1765784
1.1763069
1.1760527
1.1758151
1.1755933
1.1753869
1.1751967
1.17502
1.1748511
1.174703
1.1745925
1.1744296
1.1741699
1.1743298
1.1748122
1.2236542
1.2300441
1.2299225
1.2331658
1.2342182
1.2359433
1.2368206
1.2375835
1.2378683
1.2378542
1.2374804
1.236809
1.235855
1.2346608
1.2332596
1.231689
1.2299831
1.2281742
1.2262912
1.2243598
1.222402
1.2204366
1.2184791
1.2165423
1.2146363
1.2127693
1.2109474
1.2091752
1.2074561
1.2057924
1.2041854
1.2026359
1.2011439
1.1997093
1.1983313
1.197009
1.1957414
1.194527
1.1933647
1.192253
1.1911902
1.1901744
1.1892045
1.1882789
1.1873961
1.1865545
1.1857526
1.184989
1.1842622
1.1835708
1.1829135
1.182289
1.181696
1.1811333
1.1805996
1.1800939
1.1796151
1.1791622
1.1787341
1.17833
1.1779488
1.1775898
1.177252
1.1769348
1.1766374
1.1763589
1.1760989
1.1758565
1.1756312
1.1754222
1.1752295
1.1750534
1.1748906
1.174738
1.1746107
1.1745157
1.1743664
1.1741588
1.1743414
1.1747069
1.2335035
1.2395907
1.2397903
1.2427918
1.2436766
1.2449449
1.2453414
1.2454697
1.2450787
1.2443317
1.2432167
1.2418092
1.2401484
1.2382894
1.2362759
1.2341511
1.2319512
1.2297079
1.2274473
1.2251913
1.2229571
1.2207584
1.2186057
1.2165068
1.2144675
1.2124918
1.2105821
1.2087399
1.2069658
1.2052597
1.2036208
1.2020482
1.2005404
1.199096
1.1977132
1.1963902
1.1951251
1.1939161
1.1927613
1.1916588
1.1906062
1.189602
1.1886443
1.1877316
1.1868619
1.1860338
1.1852456
1.1844956
1.1837824
1.1831046
1.1824608
1.1818495
1.1812695
1.1807196
1.1801986
1.1797054
1.1792389
1.178798
1.1783818
1.1779895
1.17762
1.1772725
1.1769464
1.1766408
1.176355
1.1760884
1.1758404
1.1756103
1.1753977
1.1752017
1.1750227
1.1748603
1.1747113
1.1745751
1.174466
1.1743816
1.1742484
1.1740956
1.1742795
1.1745372
1.2447701
1.2501118
1.2503439
1.2527877
1.2532231
1.2537112
1.253313
1.2525281
1.251224
1.2495648
1.2475855
1.245374
1.2429865
1.240482
1.237906
1.2352979
1.2326885
1.2301024
1.2275583
1.2250701
1.222648
1.2202989
1.2180274
1.2158363
1.2137267
1.2116988
1.209752
1.2078849
1.2060958
1.2043827
1.2027435
1.2011756
1.1996768
1.1982446
1.1968765
1.1955701
1.194323
1.193133
1.191998
1.1909156
1.1898832
1.1888993
1.1879618
1.1870691
1.1862192
1.1854104
1.1846411
1.1839097
1.1832145
1.1825542
1.1819274
1.1813327
1.1807688
1.1802346
1.1797287
1.1792502
1.178798
1.1783711
1.1779685
1.1775894
1.1772329
1.1768982
1.1765845
1.1762912
1.1760177
1.1757633
1.1755275
1.1753098
1.1751096
1.1749265
1.1747606
1.1746113
1.1744756
1.1743552
1.1742616
1.1741855
1.1740707
1.1739669
1.1741356
1.1743049
1.2562747
1.26099
1.2610784
1.2625302
1.2620969
1.2613887
1.2598448
1.2578892
1.2555062
1.2528591
1.2500125
1.2470521
1.2440331
1.2410044
1.2380006
1.2350485
1.2321667
1.2293682
1.2266614
1.2240514
1.2215407
1.2191298
1.216818
1.2146038
1.2124846
1.2104579
1.2085205
1.2066692
1.2049008
1.2032121
1.2015998
1.2000608
1.198592
1.1971905
1.1958535
1.1945781
1.1933617
1.1922022
1.191097
1.1900434
1.1890392
1.1880827
1.1871718
1.1863048
1.1854798
1.184695
1.1839487
1.1832395
1.1825658
1.1819261
1.1813191
1.1807434
1.1801979
1.1796813
1.1791924
1.1787303
1.1782939
1.1778822
1.1774943
1.1771294
1.1767867
1.1764653
1.1761647
1.1758841
1.1756229
1.1753807
1.1751569
1.174951
1.1747626
1.1745914
1.1744375
1.1742999
1.1741766
1.1740704
1.1739892
1.1739201
1.1738244
1.1737591
1.1739026
1.1740031
1.2684507
1.2720535
1.2714291
1.2710429
1.2691723
1.2668781
1.263978
1.2607958
1.257388
1.253886
1.2503509
1.2468431
1.2433988
1.2400454
1.2367992
1.2336706
1.2306648
1.2277835
1.225026
1.2223901
1.2198728
1.2174699
1.2151774
1.2129905
1.2109048
1.2089157
1.2070188
1.2052099
1.2034849
1.2018399
1.2002712
1.1987753
1.1973489
1.1959888
1.194692
1.1934556
1.1922773
1.1911545
1.1900844
1.1890646
1.1880931
1.187168
1.1862873
1.1854492
1.184652
1.1838938
1.1831731
1.1824884
1.1818381
1.1812209
1.1806354
1.1800804
1.1795546
1.179057
1.1785864
1.1781417
1.177722
1.1773264
1.176954
1.176604
1.1762756
1.175968
1.1756807
1.1754129
1.1751641
1.1749339
1.1747217
1.174527
1.1743496
1.1741893
1.174046
1.1739186
1.1738061
1.1737118
1.1736401
1.1735773
1.1735003
1.1734643
1.1735789
1.1736252
1.2802169
1.2801451
1.2780993
1.2754217
1.2719353
1.2681358
1.2640908
1.2599905
1.2559008
1.2518954
1.2480075
1.2442616
1.2406679
1.2372324
1.2339549
1.2308328
1.227861
1.2250337
1.2223443
1.2197863
1.2173529
1.2150376
1.2128338
1.2107356
1.2087372
1.2068336
1.2050197
1.2032912
1.2016436
1.2000731
1.1985759
1.1971485
1.1957876
1.1944901
1.1932531
1.1920737
1.1909497
1.1898785
1.1888572
1.1878838
1.1869566
1.1860735
1.1852328
1.1844328
1.1836716
1.1829477
1.1822597
1.181606
1.1809852
1.1803961
1.1798373
1.1793077
1.1788062
1.1783316
1.1778828
1.1774591
1.1770592
1.1766825
1.1763282
1.1759953
1.1756831
1.175391
1.1751184
1.1748646
1.1746291
1.1744114
1.1742111
1.1740278
1.173861
1.1737108
1.1735769
1.1734583
1.1733547
1.173269
1.173203
1.173144
1.1730814
1.173067
1.1731603
1.173167
1.2848744
1.2819278
1.2783715
1.274142
1.2696555
1.2651113
1.2606156
1.2562493
1.252044
1.2480218
1.2441879
1.2405432
1.2370825
1.2337974
1.2306787
1.2277171
1.2249033
1.2222286
1.2196847
1.2172637
1.2149587
1.2127635
1.2106725
1.2086799
1.2067803
1.204969
1.2032414
1.2015933
1.2000208
1.1985203
1.1970883
1.1957216
1.1944174
1.1931726
1.1919846
1.1908511
1.1897701
1.1887389
1.1877552
1.1868176
1.1859242
1.1850731
1.1842627
1.1834913
1.1827573
1.1820593
1.1813957
1.1807652
1.1801665
1.1795984
1.1790595
1.1785489
1.1780654
1.177608
1.1771756
1.1767674
1.1763823
1.1760197
1.1756787
1.1753584
1.1750583
1.1747776
1.1745157
1.174272
1.174046
1.1738373
1.1736453
1.1734697
1.1733102
1.1731665
1.1730384
1.1729252
1.1728269
1.1727454
1.1726806
1.172625
1.1725753
1.1725614
1.172609
1.1726137
1.2752118
1.272172
1.2689321
1.2648534
1.2607351
1.2565784
1.2525261
1.2486062
1.244844
1.2412467
1.2378141
1.2345426
1.2314266
1.2284594
1.2256339
1.2229429
1.2203793
1.2179362
1.2156071
1.213386
1.2112668
1.2092439
1.2073132
1.2054702
1.2037108
1.2020312
1.2004275
1.1988964
1.1974344
1.1960385
1.1947058
1.1934335
1.1922189
1.1910596
1.1899535
1.1888986
1.1878924
1.1869325
1.186017
1.1851444
1.1843129
1.1835209
1.1827667
1.1820488
1.1813659
1.1807166
1.1800994
1.1795133
1.1789569
1.1784291
1.1779287
1.1774548
1.1770063
1.1765822
1.1761816
1.1758036
1.1754473
1.175112
1.1747968
1.1745011
1.1742241
1.1739653
1.1737239
1.1734995
1.1732914
1.1730994
1.1729228
1.1727613
1.1726145
1.1724823
1.1723643
1.1722601
1.1721698
1.172094
1.1720324
1.1719817
1.1719421
1.1719252
1.1719387
1.1719451
1.2375375
1.2461391
1.2469356
1.2470314
1.2456135
1.2436802
1.2413193
1.2387825
1.2361436
1.2334855
1.2308435
1.2282479
1.2257137
1.2232519
1.2208681
1.2185656
1.2163456
1.214208
1.2121519
1.2101758
1.2082781
1.2064563
1.2047077
1.2030299
1.2014203
1.1998767
1.1983968
1.1969783
1.195619
1.1943169
1.19307
1.1918762
1.1907337
1.1896407
1.1885956
1.1875967
1.1866415
1.1857283
1.1848559
1.1840229
1.1832279
1.1824694
1.1817463
1.1810571
1.1804006
1.1797758
1.1791813
1.1786161
1.1780792
1.1775695
1.1770859
1.1766275
1.1761934
1.1757827
1.1753944
1.1750278
1.1746821
1.1743564
1.1740501
1.1737624
1.1734927
1.1732403
1.1730047
1.1727852
1.1725813
1.1723926
1.1722185
1.1720588
1.1719129
1.1717806
1.1716616
1.1715555
1.1714622
1.1713819
1.171314
1.171258
1.1712141
1.1711844
1.17117
1.1711676
1.2472217
1.247427
1.2477657
1.2478528
1.2471973
1.2455966
1.2430446
1.2397826
1.2360425
1.23196
1.2278726
1.2236851
1.2195891
1.2155564
1.2116869
1.2081013
1.204774
1.2018105
1.1991635
1.1967956
1.1947295
1.1928871
1.1912857
1.1898707
1.1886393
1.1875296
1.1865292
1.1856092
1.1847806
1.1840738
1.1834401
1.1828518
1.1823044
1.1817904
1.1813044
1.1808423
1.1804017
1.1799811
1.1795794
1.1791947
1.1788269
1.178476
1.1781406
1.1778212
1.1775175
1.1772289
1.1769549
1.1766948
1.176448
1.1762142
1.1759924
1.1757824
1.1755829
1.1753941
1.1752136
1.1750434
1.1748777
1.1747237
1.1745676
1.1744282
1.1742739
1.1741507
1.173986
1.1738865
1.1736906
1.1736333
1.1733697
1.1733915
1.172998
1.1731714
1.1725205
1.1729839
1.171917
1.1728607
1.1711014
1.1728453
1.1699613
1.1729863
1.1683305
1.1734213
1.1015778
1.1062839
1.1131894
1.1210824
1.1295751
1.1379631
1.144903
1.1505934
1.1555891
1.1599222
1.1636169
1.1668347
1.1696269
1.1720484
1.1741616
1.1759605
1.1775298
1.1788136
1.1798992
1.1807381
1.1814275
1.1819118
1.1822819
1.1824736
1.1825655
1.1825356
1.1824389
1.1822801
1.1820662
1.1818162
1.1815345
1.1812269
1.1808943
1.1805489
1.180199
1.1798495
1.1795043
1.1791665
1.1788386
1.1785206
1.1782136
1.1779183
1.1776349
1.1773628
1.1771028
1.1768545
1.1766177
1.1763919
1.1761768
1.1759722
1.1757773
1.1755921
1.1754153
1.1752475
1.175086
1.1749332
1.1747836
1.1746438
1.1745012
1.1743731
1.1742306
1.1741153
1.173962
1.1738661
1.1736832
1.1736233
1.1733764
1.1733889
1.1730213
1.1731716
1.1725668
1.1729836
1.1719703
1.1728654
1.1711597
1.1728584
1.1699964
1.1730292
1.168336
1.1734858
1.2047334
1.2054458
1.2076653
1.2104163
1.2113453
1.2106053
1.209266
1.2076617
1.2059102
1.2041212
1.2023322
1.2005897
1.1988965
1.1972797
1.1957376
1.1942747
1.1929074
1.1916379
1.1905142
1.1894742
1.1884892
1.1875964
1.1867262
1.1859653
1.1852774
1.1846538
1.1841238
1.1836135
1.1831555
1.1825886
1.1820647
1.1815782
1.1811201
1.1806894
1.1802819
1.1798949
1.179526
1.1791738
1.1788372
1.1785132
1.1782038
1.1779081
1.1776245
1.1773543
1.1770964
1.1768506
1.1766163
1.1763935
1.1761817
1.1759804
1.175789
1.1756074
1.1754342
1.17527
1.1751119
1.1749625
1.1748159
1.174679
1.1745389
1.1744129
1.1742724
1.1741581
1.1740067
1.17391
1.1737297
1.1736658
1.1734234
1.1734287
1.1730627
1.1732021
1.1726123
1.1730018
1.1720248
1.1728699
1.1712149
1.1728508
1.1700524
1.173024
1.1683763
1.1734958
1.1662554
1.1662304
1.168749
1.1739319
1.1773475
1.1783446
1.1788531
1.1792928
1.1796999
1.180185
1.180654
1.1811156
1.1815309
1.1819196
1.1821311
1.1825133
1.1825254
1.1828832
1.1827876
1.1830238
1.1828456
1.1829766
1.1827368
1.1827506
1.1824825
1.1823258
1.1820219
1.181752
1.1814569
1.1811647
1.1808592
1.1805494
1.180237
1.1799238
1.179612
1.1793038
1.1790007
1.1787041
1.1784145
1.1781332
1.1778617
1.1775998
1.1773479
1.177106
1.176874
1.1766521
1.17644
1.1762379
1.1760451
1.1758616
1.1756867
1.1755203
1.1753613
1.17521
1.175064
1.1749256
1.1747891
1.1746614
1.1745295
1.1744112
1.1742771
1.1741691
1.1740221
1.1739308
1.1737528
1.1736939
1.1734525
1.1734617
1.1730955
1.1732386
1.1726433
1.1730404
1.172052
1.1729078
1.1712393
1.1728903
1.1700748
1.1730564
1.1683946
1.173523
1.1738937
1.1755688
1.1794524
1.1841052
1.1858023
1.1861458
1.1859593
1.1858445
1.1857117
1.1856049
1.1854476
1.1853051
1.1851295
1.1849638
1.184774
1.1845726
1.1843662
1.1841275
1.1838969
1.183609
1.1833702
1.1830229
1.18276
1.182405
1.1821163
1.1817832
1.1814885
1.1811767
1.1808731
1.180569
1.1802687
1.1799729
1.1796818
1.179396
1.1791156
1.1788409
1.1785724
1.1783104
1.1780545
1.1778055
1.1775646
1.1773317
1.1771067
1.1768899
1.1766815
1.1764816
1.17629
1.1761069
1.1759319
1.1757648
1.1756053
1.1754531
1.1753072
1.1751681
1.1750332
1.1749049
1.1747777
1.1746582
1.1745339
1.1744218
1.1742937
1.1741903
1.174048
1.1739593
1.1737853
1.1737268
1.1734897
1.1734968
1.1731339
1.1732718
1.1726851
1.1730709
1.172095
1.1729344
1.1712818
1.1729098
1.1701128
1.1730756
1.1684215
1.1735418
1.167538
1.1691286
1.1732312
1.1780665
1.1803474
1.1807303
1.1806493
1.1807392
1.1807818
1.1808732
1.1808832
1.1809139
1.1809072
1.1809141
1.1808908
1.1808724
1.1808313
1.1807923
1.1807323
1.180676
1.1805922
1.1805228
1.1804187
1.1803212
1.1801939
1.1800626
1.1799097
1.1797483
1.1795751
1.1793939
1.1792041
1.1790081
1.1788071
1.1786022
1.1783949
1.1781864
1.1779779
1.1777706
1.1775647
1.1773619
1.1771636
1.1769698
1.1767812
1.1765981
1.1764209
1.1762499
1.1760852
1.175927
1.1757751
1.1756294
1.1754896
1.1753556
1.1752264
1.1751026
1.1749817
1.174866
1.1747504
1.1746411
1.1745261
1.174422
1.1743013
1.1742036
1.1740672
1.1739822
1.1738127
1.1737559
1.173523
1.173529
1.1731706
1.1733048
1.17272
1.1731022
1.1721299
1.1729627
1.171316
1.1729357
1.1701443
1.1730966
1.1684456
1.1735598
1.1667078
1.1686579
1.1732226
1.1778047
1.1794884
1.1798096
1.1797347
1.1797593
1.1797213
1.1797482
1.1797186
1.1797398
1.179712
1.1797171
1.1796913
1.1796716
1.179628
1.1795902
1.1795359
1.1794783
1.1794105
1.1793326
1.1792484
1.1791535
1.1790529
1.1789435
1.1788282
1.1787056
1.1785769
1.1784417
1.1783008
1.1781553
1.1780056
1.1778525
1.1776966
1.1775387
1.1773795
1.1772198
1.1770594
1.1769004
1.1767436
1.1765891
1.1764374
1.176289
1.1761444
1.1760038
1.1758676
1.1757358
1.1756085
1.1754856
1.1753669
1.1752523
1.175141
1.1750334
1.1749275
1.1748252
1.1747218
1.1746233
1.1745182
1.1744223
1.1743094
1.1742175
1.1740873
1.1740056
1.1738413
1.1737853
1.1735574
1.1735611
1.173208
1.1733366
1.172761
1.1731322
1.172171
1.1729892
1.1713557
1.1729574
1.1701791
1.1731153
1.1684709
1.1735756
1.1642518
1.1664789
1.171412
1.1757709
1.1771382