/*--------------------------------*- C++ -*----------------------------------*\
  =========                 |
  \\      /  F ield         | OpenFOAM: The Open Source CFD Toolbox
   \\    /   O peration     | Website:  https://openfoam.org
    \\  /    A nd           | Version:  6
     \\/     M anipulation  |
\*---------------------------------------------------------------------------*/
FoamFile
{
    version     2.0;
    format      ascii;
    class       volScalarField;
    location    "600";
    object      T;
}
// * * * * * * * * * * * * * * * * * * * * * * * * * * * * * * * * * * * * * //

dimensions      [0 0 0 1 0 0 0];

internalField   nonuniform List<scalar> 
16000
(
297.65266
296.48919
296.90529
296.74327
296.8876
296.85893
296.92927
296.94134
296.9887
297.01568
297.05582
297.08923
297.12764
297.16423
297.20291
297.24141
297.28095
297.3208
297.36127
297.4021
297.44332
297.48479
297.52645
297.56819
297.6099
297.65148
297.6928
297.73374
297.77416
297.81393
297.85292
297.89099
297.928
297.96381
297.99828
298.0313
298.06274
298.09249
298.12044
298.1465
298.17059
298.19263
298.21256
298.23035
298.24594
298.25932
298.27049
298.27944
298.2862
298.29077
298.29321
298.29356
298.29186
298.28821
298.28265
298.27525
298.26609
298.25526
298.24286
298.22899
298.21374
298.19722
298.17949
298.16077
298.14101
298.12078
298.09951
298.07888
298.05642
298.03724
298.01263
297.99902
297.96789
297.97022
297.91979
297.96695
297.87219
298.00951
297.84094
298.06354
297.67482
296.52168
296.95527
296.79009
296.93986
296.91123
296.98469
296.99848
297.04816
297.07741
297.11965
297.15544
297.19596
297.23489
297.27571
297.31646
297.35812
297.4001
297.4426
297.4854
297.52848
297.57171
297.615
297.65823
297.70127
297.74399
297.78627
297.82795
297.8689
297.90897
297.94801
297.98587
298.02242
298.05751
298.09101
298.12279
298.15273
298.18075
298.20673
298.23062
298.25233
298.27181
298.28904
298.30398
298.31663
298.32699
298.33508
298.34092
298.34456
298.34604
298.34541
298.34276
298.33814
298.33164
298.32334
298.31332
298.30167
298.28846
298.27381
298.25782
298.24058
298.22219
298.20273
298.18235
298.16111
298.13931
298.11687
298.09455
298.07149
298.05002
298.02636
298.00834
297.98197
297.97391
297.93567
297.962
297.89108
297.99695
297.86169
298.04268
297.71813
296.5801
297.02374
296.85717
297.01115
296.98435
297.06025
297.07673
297.12854
297.16059
297.20503
297.24351
297.28635
297.32784
297.371
297.41417
297.45811
297.50234
297.54695
297.59178
297.63674
297.68171
297.72656
297.77116
297.81536
297.85902
297.90198
297.94409
297.98519
298.02511
298.06371
298.10083
298.13633
298.17006
298.20189
298.23171
298.25942
298.28491
298.30812
298.329
298.3475
298.36359
298.37726
298.38853
298.39741
298.40393
298.40815
298.41012
298.4099
298.40758
298.40322
298.39693
298.38877
298.37886
298.3673
298.35417
298.33956
298.32357
298.30629
298.28785
298.26832
298.2478
298.22638
298.20416
298.18126
298.15785
298.13405
298.11023
298.08622
298.06305
298.03929
298.01861
297.99438
297.9809
297.9492
297.96189
297.90759
297.99041
297.87894
298.04065
297.78127
296.66333
297.11162
296.94471
297.1026
297.0782
297.15656
297.1761
297.23021
297.2653
297.31215
297.35353
297.39886
297.44306
297.48871
297.53439
297.58069
297.6272
297.67395
297.72076
297.76753
297.81411
297.86035
297.90609
297.95117
297.99543
298.03869
298.08078
298.12152
298.16075
298.19831
298.23404
298.26779
298.29944
298.32885
298.35593
298.38059
298.40277
298.42239
298.43945
298.45393
298.46583
298.47519
298.48204
298.48644
298.48845
298.48816
298.48564
298.481
298.47433
298.46574
298.45534
298.44323
298.42952
298.41433
298.39775
298.37989
298.36083
298.34068
298.31955
298.29753
298.2747
298.25115
298.22696
298.20225
298.17716
298.15184
298.12654
298.10132
298.07673
298.05228
298.02974
298.00609
297.98886
297.96175
297.96402
297.92145
297.98713
297.89382
298.03833
297.86382
296.77304
297.21923
297.05345
297.21469
297.1937
297.27438
297.29762
297.35414
297.39272
297.44218
297.48676
297.53482
297.58195
297.63027
297.67862
297.72739
297.77625
297.82515
297.87392
297.9224
297.97043
298.01785
298.06446
298.11008
298.15452
298.1976
298.23912
298.2789
298.31677
298.35257
298.38613
298.41732
298.44602
298.47212
298.49555
298.51624
298.53415
298.54928
298.5616
298.57117
298.57802
298.58222
298.58385
298.583
298.57977
298.57427
298.56664
298.55698
298.54542
298.53209
298.51712
298.50063
298.48273
298.46356
298.44323
298.42182
298.39945
298.3762
298.35219
298.3275
298.3022
298.27639
298.25013
298.22352
298.19669
298.16979
298.14301
298.11651
298.09062
298.06528
298.04134
298.01765
297.99803
297.97358
297.96857
297.93437
297.9861
297.90759
298.04116
297.96693
296.90687
297.34762
297.18453
297.34861
297.33202
297.41498
297.44251
297.50164
297.54407
297.59641
297.64445
297.69547
297.74572
297.79687
297.84798
297.89929
297.9505
298.00149
298.05208
298.10209
298.15133
298.19958
298.24666
298.29233
298.3364
298.37866
298.41892
298.45697
298.49265
298.5258
298.55626
298.58392
298.60868
298.63046
298.64922
298.66492
298.67757
298.68719
298.69384
298.69758
298.6985
298.69671
298.69233
298.68551
298.67637
298.66506
298.65174
298.63655
298.61964
298.60116
298.58126
298.56006
298.53769
298.51429
298.48997
298.46483
298.43897
298.41248
298.38545
298.35798
298.33013
298.30198
298.27358
298.24503
298.21643
298.18791
298.15965
298.13184
298.1047
298.07836
298.05326
298.02912
298.00776
297.98506
297.97511
297.94669
297.98683
297.91989
298.0461
298.09277
297.05655
297.49859
297.33982
297.50613
297.49489
297.58006
297.61241
297.67433
297.72094
297.77642
297.82815
297.88235
297.93587
297.98997
298.04391
298.09776
298.15125
298.20421
298.25643
298.30767
298.35773
298.40637
298.45335
298.49844
298.54141
298.58205
298.62015
298.65552
298.688
298.71743
298.74369
298.76669
298.78636
298.80267
298.81561
298.8252
298.8315
298.83458
298.83454
298.8315
298.8256
298.817
298.80587
298.79237
298.7767
298.75902
298.73951
298.71835
298.69571
298.67175
298.64661
298.62046
298.59341
298.5656
298.53714
298.50815
298.4787
298.44887
298.41877
298.38847
298.35803
298.3275
298.29696
298.26645
298.23608
298.20596
298.17625
298.14713
298.11882
298.09147
298.06537
298.04064
298.01802
297.99612
297.98257
297.95884
297.98907
297.93228
298.05247
298.2426
297.22965
297.67263
297.51994
297.688
297.68312
297.77057
297.80832
297.87335
297.92453
297.98347
298.03916
298.09678
298.15373
298.21091
298.2677
298.32405
298.37968
298.43437
298.48788
298.53993
298.59027
298.63864
298.68477
298.72843
298.76935
298.80734
298.84217
298.87369
298.90172
298.92617
298.94693
298.96397
298.97725
298.98681
298.99269
298.99497
298.99377
298.98922
298.98149
298.97075
298.95718
298.941
298.92242
298.90165
298.8789
298.85438
298.8283
298.80083
298.77218
298.7425
298.71196
298.68071
298.64887
298.61657
298.58392
298.55103
298.51797
298.48481
298.45163
298.41851
298.38549
298.35263
298.31997
298.28755
298.25545
298.22377
298.19266
298.16229
298.13285
298.10452
298.07754
298.05215
298.02865
298.00713
297.9909
297.97084
297.99237
297.94421
298.05851
298.41646
297.42567
297.87036
297.72565
297.89518
297.89779
297.98777
298.03159
298.10016
298.15633
298.21914
298.27908
298.34038
298.40089
298.46122
298.52081
298.57951
298.63703
298.69306
298.74734
298.79956
298.84942
298.89663
298.94091
298.98201
299.01967
299.05369
299.08388
299.1101
299.13223
299.1502
299.16397
299.17356
299.17902
299.18044
299.17793
299.17165
299.16179
299.14854
299.13213
299.11281
299.09079
299.06636
299.03974
299.01119
298.98096
298.94927
298.91633
298.88235
298.84753
298.81203
298.77601
298.73962
298.70298
298.66622
298.62941
298.59267
298.55606
298.51963
298.48345
298.44759
298.41208
298.37695
298.34225
298.308
298.27426
298.24111
298.20868
298.17714
298.14666
298.11742
298.08967
298.06363
298.0395
298.01807
298.00002
297.98277
297.99651
297.95614
298.06604
298.61458
297.64863
298.09341
297.9587
298.12949
298.14072
298.2336
298.28412
298.35674
298.41833
298.4854
298.54983
298.61501
298.67915
298.74258
298.80479
298.86552
298.92444
298.98121
299.03549
299.08694
299.13524
299.18008
299.22118
299.25826
299.29111
299.31954
299.3434
299.3626
299.37709
299.38687
299.39198
299.39251
299.38859
299.38041
299.36815
299.35207
299.33241
299.30946
299.28349
299.25481
299.2237
299.19046
299.15537
299.1187
299.08071
299.04165
299.00174
298.96119
298.92018
298.87888
298.83744
298.796
298.75467
298.71355
298.67272
298.63227
298.59225
298.55269
298.51366
298.4752
298.43733
298.40008
298.36346
298.32751
298.29225
298.25774
298.22411
298.19149
298.16007
298.13003
298.10159
298.07496
298.0504
298.02884
298.00963
297.99452
298.00134
297.96778
298.07211
298.83467
297.89984
298.34364
298.22103
298.393
298.41399
298.51026
298.56811
298.64535
298.71274
298.78446
298.85357
298.92275
298.99043
299.05674
299.12116
299.18335
299.24291
299.29946
299.3526
299.40198
299.44726
299.4881
299.52425
299.55546
299.58156
299.60241
299.61793
299.62812
299.633
299.63268
299.62729
299.61704
299.60215
299.5829
299.55958
299.53252
299.50204
299.46851
299.43225
299.39362
299.35294
299.31054
299.26671
299.22175
299.17593
299.12949
299.08265
299.03561
298.98855
298.94162
298.89495
298.84866
298.80285
298.7576
298.71298
298.66904
298.62583
298.58337
298.54169
298.50082
298.46078
298.42159
298.38324
298.34574
298.30912
298.27341
298.23872
298.20516
298.17292
298.14219
298.11317
298.08605
298.06119
298.03939
298.01958
298.00596
298.00663
297.97958
298.07879
299.07698
298.18131
298.62306
298.5148
298.68805
298.72001
298.8203
298.88614
298.9686
299.04216
299.11884
299.1927
299.2658
299.33672
299.40542
299.47131
299.534
299.59302
299.64793
299.69832
299.74382
299.78407
299.8188
299.84776
299.87079
299.88777
299.89868
299.90354
299.90244
299.89555
299.88309
299.86532
299.84255
299.81513
299.78344
299.74788
299.70883
299.66672
299.62193
299.57488
299.52593
299.47544
299.42374
299.37115
299.31796
299.26443
299.21079
299.15725
299.10398
299.05115
298.99889
298.9473
298.89649
298.84652
298.79746
298.74936
298.70224
298.65613
298.61103
298.56697
298.52396
298.482
298.44108
298.40121
298.36238
298.32458
298.28786
298.25227
298.21794
298.18502
298.15372
298.12424
298.09674
298.07169
298.04956
298.02956
298.01694
298.01218
297.99039
298.08397
299.34854
298.49571
298.93441
298.84287
299.01769
299.0618
299.1669
299.24132
299.32959
299.40957
299.49135
299.56979
299.64643
299.71992
299.79007
299.85622
299.9179
299.9746
300.02585
300.07125
300.11041
300.14306
300.16895
300.18796
300.2
300.20511
300.20337
300.19497
300.18016
300.15924
300.13257
300.10057
300.06368
300.02235
299.97707
299.9283
299.87654
299.82224
299.76585
299.70778
299.64843
299.58817
299.52732
299.46619
299.40506
299.34415
299.28369
299.22385
299.16478
299.10661
299.04945
298.99339
298.93848
298.88477
298.83231
298.7811
298.73117
298.68252
298.63514
298.58902
298.54416
298.50056
298.45819
298.41704
298.3771
298.33835
298.30081
298.26453
298.22959
298.19617
298.16444
298.13462
298.10687
298.0817
298.05926
298.03932
298.02727
298.01807
298.00061
298.08825
299.65119
298.84643
299.28108
299.20874
299.38558
299.443
299.55377
299.63726
299.73179
299.8182
299.90492
299.98739
300.06671
300.14155
300.21157
300.27605
300.33448
300.38632
300.43111
300.46848
300.49813
300.51987
300.53361
300.53933
300.53715
300.52727
300.50996
300.4856
300.4546
300.41745
300.37468
300.32683
300.27447
300.21816
300.15848
300.09595
300.03112
299.96446
299.89645
299.8275
299.75801
299.68833
299.61875
299.54956
299.481
299.41328
299.34656
299.28099
299.2167
299.15376
299.09227
299.03225
298.97377
298.91682
298.86143
298.80758
298.75527
298.70449
298.65519
298.60737
298.56101
298.51607
298.47254
298.43039
298.3896
298.35014
298.31202
298.27525
298.23992
298.20616
298.17416
298.14412
298.11626
298.09104
298.06834
298.04865
298.03652
298.02374
298.01001
298.09148
299.98792
299.23734
299.66701
299.61645
299.79599
299.86776
299.98514
300.07798
300.17892
300.27142
300.36239
300.44772
300.52813
300.60226
300.66968
300.72962
300.78157
300.82501
300.85958
300.88501
300.90116
300.908
300.90566
300.89435
300.8744
300.84626
300.81042
300.76746
300.71802
300.66275
300.60232
300.53742
300.46871
300.39684
300.32242
300.24604
300.16824
300.0895
300.01028
299.93097
299.85194
299.7735
299.6959
299.61938
299.54414
299.47033
299.39809
299.32753
299.2587
299.19168
299.12649
299.06316
299.00168
298.94205
298.88426
298.82827
298.77405
298.72157
298.67079
298.62165
298.57414
298.52822
298.48384
298.44098
298.39961
298.3597
298.32122
298.2842
298.24868
298.21478
298.18268
298.15256
298.12472
298.0995
298.07666
298.05739
298.04495
298.0294
298.01911
298.0932
300.36201
299.67317
300.09703
300.07089
300.25402
300.34104
300.46595
300.56783
300.67483
300.7724
300.86609
300.95214
301.03095
301.10115
301.16226
301.21355
301.25456
301.28493
301.30447
301.31312
301.311
301.29837
301.27564
301.24332
301.20202
301.15247
301.0954
301.03163
300.96197
300.88723
300.80821
300.72568
300.64037
300.55296
300.46408
300.3743
300.28414
300.19406
300.10446
300.01569
299.92805
299.8418
299.75713
299.67423
299.59323
299.51425
299.43737
299.36263
299.29007
299.21971
299.15155
299.08557
299.02174
298.96003
298.90039
298.84279
298.78716
298.73345
298.6816
298.63156
298.58328
298.53671
298.49182
298.44855
298.40688
298.36677
298.3282
298.29116
298.25567
298.22183
298.1898
298.15975
298.13204
298.10687
298.08402
298.06519
298.05215
298.03503
298.02763
298.09291
300.77685
300.15974
300.57697
300.57783
300.76552
300.86827
301.00192
301.11127
301.22302
301.32344
301.41702
301.50022
301.57321
301.63469
301.68423
301.72124
301.74549
301.75688
301.75556
301.74181
301.71614
301.67918
301.63171
301.57458
301.50874
301.43516
301.35484
301.26877
301.17791
301.08318
300.98544
300.8855
300.78409
300.68187
300.57943
300.47729
300.37591
300.27568
300.17692
300.07991
299.98488
299.89201
299.80143
299.71325
299.62757
299.54442
299.46384
299.38584
299.31041
299.23751
299.16712
299.0992
299.03367
298.97049
298.9096
298.85091
298.79437
298.73989
298.68742
298.63688
298.58821
298.54136
298.49627
298.45291
298.41122
298.37117
298.33274
298.29591
298.26068
298.22712
298.19533
298.16552
298.13803
298.11297
298.09029
298.07187
298.05784
298.04016
298.03514
298.09077
301.23409
300.70562
301.11493
301.1453
301.33783
301.45636
301.59505
301.71152
301.82544
301.92497
302.01374
302.08856
302.14948
302.19545
302.22628
302.24174
302.24202
302.22748
302.19875
302.15662
302.10208
302.0362
301.96016
301.87518
301.78248
301.68328
301.57875
301.46999
301.35803
301.24381
301.12819
301.01194
300.89572
300.78012
300.66564
300.55271
300.44169
300.33286
300.22647
300.1227
300.02171
299.92358
299.82837
299.73614
299.6469
299.56066
299.4774
299.39706
299.31962
299.245
299.17314
299.10397
299.03741
298.97337
298.91178
298.85254
298.79558
298.7408
298.68813
298.63749
298.5888
298.54202
298.49706
298.45389
298.41246
298.37273
298.33468
298.29828
298.26352
298.23045
298.19911
298.1697
298.14252
298.11762
298.09525
298.0772
298.06209
298.04448
298.04119
298.08717
301.74704
301.32397
301.72072
301.78355
301.97776
302.10802
302.25296
302.37192
302.48234
302.57451
302.65089
302.70896
302.74897
302.77034
302.77342
302.75861
302.72674
302.67883
302.61613
302.54004
302.45206
302.35371
302.24653
302.13203
302.01163
301.88667
301.75837
301.62786
301.49612
301.36403
301.23235
301.10173
300.97272
300.84578
300.72128
300.59954
300.48078
300.36519
300.25291
300.14402
300.0386
299.93664
299.83814
299.7431
299.65148
299.56322
299.47826
299.39652
299.31792
299.24237
299.16977
299.10004
299.03307
298.96875
298.907
298.84772
298.7908
298.73616
298.6837
298.63334
298.585
298.5386
298.49409
298.45141
298.4105
298.37134
298.33388
298.29812
298.26403
298.23163
298.20095
298.17213
298.14538
298.12071
298.0987
298.08083
298.06478
298.04792
298.04591
298.08183
302.32528
302.01851
302.39673
302.48832
302.68122
302.83395
302.97608
303.09005
303.18801
303.26239
303.3154
303.34532
303.35301
303.33878
303.30383
303.24944
303.1773
303.0892
302.9871
302.87295
302.74871
302.61625
302.47734
302.33359
302.18648
302.03733
301.88728
301.73733
301.58833
301.44099
301.2959
301.15355
301.01433
300.87852
300.74637
300.61803
300.49364
300.37324
300.25688
300.14456
300.03626
299.93191
299.83146
299.73482
299.64193
299.55268
299.46697
299.3847
299.30575
299.23001
299.15736
299.0877
299.0209
298.95685
298.89545
298.83659
298.78016
298.72606
298.67419
298.62447
298.5768
298.53111
298.48734
298.44541
298.40528
298.36691
298.33027
298.29533
298.26209
298.23054
298.20069
298.17265
298.14651
298.12223
298.10056
298.08273
298.06618
298.05032
298.04873
298.07483
302.97568
302.78988
303.14251
303.27947
303.49197
303.62783
303.75796
303.85409
303.92627
303.96862
303.98391
303.97173
303.93406
303.87249
303.78935
303.68702
303.5681
303.43514
303.29064
303.13699
302.97636
302.81076
302.64194
302.47145
302.30061
302.13054
301.96218
301.79629
301.6335
301.47428
301.31903
301.16803
301.02146
300.87949
300.74217
300.60956
300.48164
300.35838
300.23972
300.12561
300.01593
299.91054
299.80936
299.71227
299.61915
299.52987
299.44428
299.36228
299.28371
299.20845
299.13638
299.06736
299.00127
298.93799
298.8774
298.81938
298.76383
298.71065
298.65972
298.61095
298.56426
298.51957
298.4768
298.43588
298.39677
298.35941
298.32378
298.28984
298.2576
298.22705
298.19819
298.17111
298.14578
298.12215
298.101
298.08316
298.06605
298.05054
298.05006
298.06692
303.7077
303.65941
304.02183
304.16613
304.3547
304.47738
304.58079
304.64085
304.66904
304.66122
304.62183
304.55234
304.45637
304.33702
304.19786
304.04228
303.87356
303.69473
303.50855
303.31745
303.12355
302.92864
302.73423
302.54158
302.35167
302.16532
301.98314
301.80561
301.63307
301.46576
301.30384
301.14739
300.99644
300.85097
300.71094
300.57627
300.44685
300.32255
300.20326
300.08884
299.97913
299.87394
299.77316
299.67664
299.58421
299.49574
299.41106
299.33003
299.2525
299.17833
299.10738
299.03951
298.9746
298.91252
298.85314
298.79636
298.74205
298.6901
298.64042
298.59291
298.54748
298.50403
298.46251
298.42284
298.38496
298.34882
298.31439
298.28163
298.25054
298.22111
298.19336
298.16734
298.14299
298.12028
298.09994
298.08222
298.06446
298.04888
298.0498
298.05848
304.54214
304.6549
304.97662
305.11807
305.27712
305.36006
305.41056
305.41031
305.3714
305.2933
305.18238
305.04246
304.87877
304.69576
304.49787
304.28899
304.07262
303.85174
303.62887
303.40609
303.18509
302.96721
302.75351
302.54476
302.34156
302.14432
301.95332
301.76872
301.59061
301.41899
301.25382
301.09502
300.94246
300.79601
300.6555
300.52078
300.39165
300.26794
300.14949
300.03608
299.92752
299.82361
299.72421
299.62913
299.53821
299.45128
299.36818
299.28873
299.21281
299.14024
299.0709
299.00463
298.94131
298.88081
298.82301
298.76778
298.71502
298.66461
298.61646
298.57046
298.52652
298.48457
298.44452
298.4063
298.36985
298.33513
298.30207
298.27067
298.24088
298.2127
298.18616
298.16129
298.13799
298.11634
298.09697
298.07969
298.06208
298.04704
298.04684
298.04909
305.48328
305.73434
306.00112
306.10954
306.20378
306.21608
306.18394
306.09715
305.96961
305.80485
305.61132
305.39484
305.16163
304.91674
304.66465
304.40902
304.15283
303.89844
303.64769
303.40195
303.16227
302.92935
302.70368
302.48558
302.2752
302.07259
301.87772
301.69048
301.51075
301.33833
301.17304
301.01465
300.86295
300.71771
300.57869
300.44566
300.31839
300.19667
300.0803
299.96902
299.86262
299.76091
299.66371
299.57084
299.48211
299.39735
299.31639
299.23907
299.16522
299.09471
299.02739
298.96311
298.90174
298.84316
298.78724
298.73387
298.68293
298.63432
298.58794
298.54368
298.50147
298.46121
298.42283
298.38626
298.35144
298.3183
298.28681
298.25691
298.22859
298.20183
298.17663
298.15301
298.13087
298.11036
298.09198
298.07524
298.05828
298.04421
298.0424
298.03959
306.50697
306.85253
307.03263
307.06685
307.05738
306.96308
306.81866
306.62348
306.39335
306.1354
305.85904
305.57076
305.27643
304.98043
304.68626
304.39648
304.11297
303.83705
303.56961
303.31121
303.06214
302.82253
302.59234
302.37147
302.15971
301.95684
301.76258
301.57665
301.39875
301.22858
301.06584
300.91024
300.76147
300.61928
300.48337
300.35348
300.22936
300.11079
299.99753
299.8893
299.78589
299.68714
299.59283
299.50278
299.41681
299.33474
299.25641
299.18165
299.1103
299.04222
298.97726
298.9153
298.85619
298.79982
298.74606
298.69479
298.64592
298.59934
298.55494
298.51264
298.47234
298.43397
298.39744
298.3627
298.32967
298.29829
298.26852
298.24031
298.21361
298.18843
298.16474
298.14251
298.12169
298.10245
298.08511
298.06908
298.05313
298.04036
298.03681
298.03018
307.75597
307.92987
307.97194
307.87874
307.72073
307.48886
307.21429
306.90517
306.57661
306.23671
305.89332
305.55149
305.21515
304.88688
304.56844
304.26089
303.96482
303.68048
303.40787
303.14684
302.89711
302.65835
302.43017
302.21216
302.0039
301.80497
301.61498
301.43351
301.2602
301.09466
300.93656
300.78556
300.64135
300.50361
300.37206
300.24642
300.12646
300.01192
299.90255
299.79808
299.69834
299.60313
299.51225
299.42553
299.34277
299.26382
299.1885
299.11666
299.04815
298.98283
298.92055
298.86118
298.8046
298.75069
298.69933
298.65042
298.60384
298.55949
298.51729
298.47714
298.43895
298.40265
298.36816
298.33541
298.30434
298.27489
298.24701
298.22064
298.19576
298.17233
298.15033
298.12971
298.11043
298.09265
298.07652
298.06143
298.04671
298.0351
298.03033
298.022
308.71343
308.75563
308.59496
308.33463
308.0129
307.64752
307.2611
306.86466
306.46859
306.07859
305.69895
305.33197
304.97916
304.64115
304.31804
304.00962
303.71549
303.43511
303.16793
302.91333
302.67071
302.43948
302.21904
302.00883
301.80833
301.61705
301.43453
301.26035
301.09409
300.93538
300.78386
300.63918
300.50105
300.36915
300.2432
300.12293
300.00813
299.89853
299.79387
299.69392
299.59854
299.50752
299.42067
299.33781
299.25879
299.18343
299.11157
299.04307
298.97779
298.91559
298.85634
298.79991
298.74618
298.69504
298.64638
298.60008
298.55606
298.51422
298.47445
298.43669
298.40084
298.36683
298.33458
298.30403
298.27513
298.2478
298.22199
298.19767
298.17478
298.1533
298.13319
298.11441
298.09692
298.08086
298.06623
298.0525
298.03942
298.02936
298.02389
298.01329
309.01984
308.91961
308.57517
308.17924
307.75113
307.31407
306.88031
306.45709
306.04875
305.65725
305.28348
304.92743
304.58859
304.26624
303.9596
303.66784
303.39015
303.12575
302.87386
302.6338
302.40491
302.18662
301.97835
301.77962
301.58993
301.40886
301.23597
301.07088
300.91322
300.76263
300.6188
300.48142
300.35018
300.22482
300.10506
299.99068
299.88146
299.77714
299.67751
299.58239
299.49163
299.40502
299.32241
299.24362
299.1685
299.0969
299.02867
298.96367
298.90177
298.84283
298.78675
298.73339
298.68264
298.6344
298.58857
298.54503
298.5037
298.46448
298.4273
298.39205
298.35867
298.32709
298.29722
298.26902
298.24241
298.21733
298.19375
298.1716
298.15085
298.13147
298.11341
298.09663
298.08112
298.06694
298.05405
298.0421
298.0311
298.02237
298.01645
298.00799
307.97311
307.99741
307.66034
307.32437
306.93827
306.55073
306.16461
305.78895
305.42565
305.07635
304.74135
304.42057
304.11372
303.82036
303.54
303.27212
303.01618
302.77165
302.53801
302.31475
302.10136
301.89743
301.70254
301.51633
301.33838
301.16835
301.00586
300.85059
300.70222
300.56044
300.42497
300.29555
300.17191
300.05382
299.94105
299.83341
299.73064
299.63249
299.53878
299.44936
299.36404
299.28266
299.20506
299.13109
299.06061
298.99347
298.92955
298.86871
298.81083
298.7558
298.70349
298.65379
298.60661
298.56184
298.51938
298.47914
298.44102
298.40495
298.37084
298.33861
298.30818
298.2795
298.25247
298.22706
298.20319
298.18081
298.15988
298.14033
298.12214
298.10526
298.08966
298.0753
298.06217
298.05028
298.03958
298.02994
298.02139
298.01448
298.0093
298.00383
304.93734
305.41868
305.54356
305.55026
305.42081
305.23571
305.00933
304.76262
304.50467
304.24275
303.98125
303.72317
303.47047
303.22444
302.98586
302.75521
302.53271
302.31846
302.11241
301.91446
301.72444
301.54213
301.36728
301.19961
301.03887
300.88481
300.73717
300.59573
300.46024
300.33049
300.20626
300.08735
299.97355
299.8647
299.76061
299.66112
299.566
299.47509
299.38825
299.30535
299.22623
299.15076
299.07879
299.01021
298.94487
298.88268
298.82349
298.76721
298.71373
298.66293
298.61471
298.56898
298.52564
298.48459
298.44576
298.40904
298.37437
298.34166
298.31083
298.28182
298.25454
298.22894
298.20496
298.18253
298.16159
298.1421
298.12401
298.10727
298.09184
298.07769
298.06477
298.05306
298.04254
298.03319
298.02499
298.01788
298.0119
298.00714
298.00361
298.00098
308.07456
308.14424
307.72624
307.0053
306.14167
305.31651
304.60491
304.00468
303.49405
303.05737
302.64372
302.27745
301.94977
301.65126
301.36947
301.10814
300.86183
300.63757
300.42909
300.24128
300.06673
299.91276
299.77027
299.64422
299.52788
299.4249
299.33093
299.24802
299.17017
299.1006
299.03845
298.98136
298.92829
298.8784
298.83115
298.78612
298.74301
298.7016
298.66173
298.62336
298.58636
298.55058
298.51603
298.48275
298.45062
298.41961
298.3897
298.36086
298.33303
298.30618
298.28027
298.25524
298.23104
298.20762
298.18492
298.16291
298.14146
298.12062
298.10012
298.08031
298.06042
298.04161
298.0218
298.00426
297.98375
297.96848
297.94599
297.93483
297.907
297.90445
297.87092
297.88197
297.8337
297.86962
297.799
297.87339
297.78231
297.89708
297.80912
297.93516
306.1553
305.49723
304.85979
304.06227
303.20508
302.47229
301.90756
301.49817
301.20547
300.98072
300.79854
300.64254
300.50291
300.37322
300.2481
300.1318
300.01516
299.91162
299.8058
299.71308
299.61812
299.5365
299.45325
299.38234
299.31132
299.24694
299.18321
299.12794
299.07286
299.02072
298.97175
298.92499
298.87971
298.83581
298.79326
298.75201
298.71203
298.67329
298.6358
298.5996
298.56459
298.5307
298.49791
298.46631
298.43577
298.40628
298.37782
298.35034
298.32381
298.29819
298.27344
298.2495
298.22633
298.20388
298.18208
298.16091
298.14022
298.12009
298.10023
298.081
298.06164
298.04327
298.0239
298.00664
297.9865
297.97132
297.94918
297.93809
297.91072
297.90782
297.87523
297.88532
297.8373
297.87324
297.80251
297.87713
297.78519
297.90282
297.80936
297.94287
300.5
300.42741
299.87807
299.1229
298.72524
298.67469
298.72514
298.80654
298.90005
298.99148
299.07368
299.14367
299.20107
299.2451
299.2754
299.29978
299.30658
299.31145
299.28887
299.2744
299.24171
299.219
299.18122
299.15336
299.1133
299.07911
299.04213
299.00735
298.96909
298.93047
298.89233
298.85421
298.81595
298.77801
298.74065
298.70401
298.66817
298.63318
298.59913
298.56619
298.53409
298.5029
298.4727
298.44345
298.41511
298.38769
298.36117
298.3355
298.31066
298.28664
298.26337
298.24083
298.21895
298.19772
298.17703
298.15692
298.13715
298.11795
298.09882
298.08043
298.06158
298.04399
298.02488
298.00843
297.98824
297.97404
297.95136
297.94142
297.91282
297.91194
297.87706
297.88988
297.83898
297.87836
297.80407
297.88321
297.78587
297.90882
297.80978
297.94863
302.88679
302.90462
302.29743
301.0222
300.2015
300.00677
299.93822
299.89202
299.85278
299.79219
299.73364
299.67453
299.619
299.56298
299.53555
299.46328
299.46858
299.37408
299.37904
299.28942
299.29209
299.20752
299.20525
299.12801
299.0955
299.04392
299.02691
298.97089
298.93099
298.8922
298.85354
298.8159
298.77917
298.74333
298.70834
298.67416
298.64078
298.6082
298.57648
298.54562
298.51553
298.48624
298.45781
298.4302
298.40343
298.37748
298.35233
298.32797
298.30436
298.28149
298.25931
298.23778
298.21684
298.1965
298.17662
298.15727
298.13818
298.11962
298.10102
298.08314
298.06467
298.0475
298.02861
298.01249
297.99236
297.97842
297.95567
297.94597
297.91744
297.91647
297.88162
297.89438
297.84333
297.88253
297.80731
297.88708
297.78875
297.91334
297.81135
297.95321
302.09209
301.69753
300.73044
299.55052
299.10785
299.00135
299.02498
299.03085
299.03625
299.03392
299.03754
299.03723
299.03786
299.03538
299.03244
299.02646
299.01963
299.00979
298.99886
298.9895
298.97074
298.96532
298.9436
298.93185
298.91113
298.89003
298.86082
298.83777
298.81187
298.78499
298.75762
298.72981
298.7017
298.67343
298.64515
298.61696
298.58898
298.56129
298.53403
298.50726
298.4809
298.45507
298.42982
298.40516
298.38112
298.3577
298.33491
298.31272
298.29113
298.27014
298.24968
298.22976
298.2103
298.19132
298.17268
298.15447
298.1364
298.11878
298.10099
298.08389
298.06602
298.04948
298.03097
298.0154
297.99541
297.98201
297.95913
297.94996
297.92076
297.92081
297.88399
297.89902
297.84607
297.88721
297.80963
297.89217
297.79027
297.91841
297.81229
297.95788
302.16443
301.78086
300.76321
299.55939
298.9972
298.91656
298.94865
298.94419
298.94246
298.93394
298.93509
298.93153
298.92948
298.92449
298.91971
298.91247
298.90517
298.8956
298.88581
298.87288
298.86142
298.8446
298.83035
298.8119
298.79429
298.77534
298.75749
298.73696
298.71615
298.69489
298.6731
298.65084
298.62823
298.60537
298.58234
298.55921
298.53606
298.51296
298.49002
298.46729
298.44474
298.42247
298.40054
298.37898
298.35783
298.3371
298.31681
298.29694
298.27751
298.25851
298.2399
298.22168
298.20378
298.18624
298.16891
298.15189
298.13489
298.11823
298.10129
298.08495
298.06772
298.05176
298.03369
298.01856
297.99881
297.98576
297.96286
297.95405
297.92485
297.92512
297.88814
297.90348
297.84962
297.89168
297.81238
297.89656
297.7925
297.92314
297.81347
297.96223
301.8234
301.35428
300.21966
299.07494
298.66225
298.59721
298.62787
298.63544
298.65047
298.65414
298.66251
298.66548
298.67061
298.67308
298.67602
298.67695
298.67738
298.67673
298.67513
298.67285
298.66901
298.66508
298.65922
298.6529
298.64498
298.636
298.62537
298.61406
298.60168
298.58837
298.57417
298.55915
298.5434
298.52704
298.51015
298.49281
298.47513
298.45717
298.43906
298.42088
298.40262
298.38439
298.36624
298.34823
298.33038
298.31275
298.29533
298.27815
298.2612
298.2445
298.22802
298.21176
298.19566
298.17976
298.16393
298.14827
298.13248
298.11692
298.10095
298.08546
298.06896
298.05365
298.03609
298.02144
298.00199
297.98931
297.96648
297.95799
297.92855
297.92932
297.89228
297.90763
297.85224
297.89614
297.81515
297.90105
297.79444
297.92779
297.81455
297.96644
301.67389
301.13367
299.90392
298.81623