/*--------------------------------*- C++ -*----------------------------------*\
  =========                 |
  \\      /  F ield         | OpenFOAM: The Open Source CFD Toolbox
   \\    /   O peration     | Website:  https://openfoam.org
    \\  /    A nd           | Version:  6
     \\/     M anipulation  |
\*---------------------------------------------------------------------------*/
FoamFile
{
    version     2.0;
    format      ascii;
    class       volVectorField;
    location    "600";
    object      U;
}
// * * * * * * * * * * * * * * * * * * * * * * * * * * * * * * * * * * * * * //

dimensions      [0 1 -1 0 0 0 0];

internalField   nonuniform List<vector> 
16000
(
(150.88932 1.2832571e-15 -17.397676)
(159.16722 -1.1444018e-15 -11.334454)
(156.01362 4.4271114e-18 -16.434685)
(157.47903 4.0032272e-18 -12.314742)
(156.25917 0 -15.344888)
(156.6728 -9.1460811e-16 -12.994644)
(156.07342 8.6575915e-16 -14.574803)
(156.11185 0 -13.342465)
(155.7406 -1.8883201e-19 -14.066872)
(155.62402 1.786026e-19 -13.445784)
(155.34037 3.3834995e-19 -13.71904)
(155.15411 -6.5631061e-16 -13.395387)
(154.90098 6.2221498e-16 -13.448811)
(154.68169 4.900221e-18 -13.253603)
(154.43547 5.5969533e-16 -13.204124)
(154.1988 -5.3119205e-16 -13.055253)
(153.95057 -1.0093842e-15 -12.956193)
(153.70345 9.5777352e-16 -12.816914)
(153.45073 0 -12.690296)
(153.19679 8.6508696e-16 -12.545194)
(152.9399 -8.2247473e-16 -12.399182)
(152.68178 -7.8295257e-16 -12.24206)
(152.42237 -7.2837645e-19 -12.079316)
(152.16264 -3.4861815e-19 -11.907785)
(151.90308 6.6339563e-16 -11.72911)
(151.64451 0 -11.54241)
(151.38765 6.1191e-16 -11.348234)
(151.13334 -5.7289962e-16 -11.146468)
(150.88239 -5.4140146e-19 -10.937438)
(150.63568 -5.1592016e-19 -10.721349)
(150.39408 -5.0387164e-16 -10.498571)
(150.15847 4.7966767e-16 -10.269498)
(149.92976 -1.4318416e-17 -10.034627)
(149.70881 -1.2802848e-17 -9.7945089)
(149.49648 8.3333898e-16 -9.5497729)
(149.29361 -1.5905513e-15 -9.3011088)
(149.10096 7.5835888e-16 -9.0492666)
(148.9193 1.1317211e-17 -8.7950483)
(148.74929 1.0802802e-17 -8.5393011)
(148.59156 0 -8.2829069)
(148.44666 -1.2299316e-18 -8.026769)
(148.31505 1.1746464e-18 -7.7718011)
(148.19712 -5.7363401e-16 -7.5189154)
(148.09319 5.5003608e-16 -7.2690092)
(148.00349 5.2363224e-16 -7.022952)
(147.92815 -5.0130185e-16 -6.7815737)
(147.86724 -9.3565886e-19 -6.545653)
(147.82074 0 -6.3159066)
(147.78857 4.3804513e-16 -6.0929805)
(147.77056 -4.1886576e-16 -5.8774417)
(147.76648 0 -5.6697736)
(147.77605 0 -5.4703671)
(147.79887 2.2927038e-17 -5.279529)
(147.83453 -1.3708008e-18 -5.0974783)
(147.88256 2.1006474e-17 -4.9243309)
(147.94253 0 -4.7601139)
(148.0139 0 -4.6047738)
(148.09604 0 -4.4581805)
(148.18826 0 -4.3201192)
(148.28985 -3.6014733e-17 -4.1903285)
(148.40017 -3.2497042e-17 -4.0684493)
(148.51832 0 -3.9541691)
(148.64388 2.9894772e-17 -3.8469337)
(148.77526 0 -3.7465729)
(148.91294 -3.097801e-17 -3.6520592)
(149.05289 -4.2630606e-16 -3.5639944)
(149.19909 4.0644484e-16 -3.4797821)
(149.33966 -3.051299e-18 -3.4029063)
(149.49141 3.755143e-16 -3.3253711)
(149.61774 -3.8113929e-16 -3.2609121)
(149.77843 0 -3.1821912)
(149.86136 -3.3496848e-16 -3.1373878)
(150.06222 6.455193e-16 -3.0321547)
(150.02881 -3.115661e-16 -3.048748)
(150.3577 4.6915343e-18 -2.8428399)
(150.01923 0 -3.0781112)
(150.65437 -1.4020534e-16 -2.4769794)
(149.6806 1.7188368e-17 -3.4477406)
(150.84472 1.3149962e-16 -1.590746)
(149.20478 -3.2069756e-17 -4.606249)
(150.53718 -1.2933324e-15 -19.080949)
(158.83547 1.1553982e-15 -12.748434)
(155.49729 -4.3688907e-18 -18.087865)
(157.04941 1.0481804e-15 -13.73313)
(155.74723 -9.9902394e-16 -16.924493)
(156.19929 7.2911169e-18 -14.425165)
(155.5554 0 -16.085575)
(155.60281 0 -14.770048)
(155.20631 7.778365e-16 -15.520014)
(155.08501 -7.5901022e-16 -14.853093)
(154.78482 6.9732388e-16 -15.122589)
(154.58837 -6.7086696e-16 -14.769373)
(154.32193 0 -14.805527)
(154.09087 5.9883973e-16 -14.585507)
(153.83249 -5.7243852e-16 -14.512804)
(153.58402 0 -14.338859)
(153.32436 0 -14.213443)
(153.06609 0 -14.047111)
(152.80283 -9.1723763e-16 -13.891787)
(152.53884 8.8522291e-16 -13.717235)
(152.27265 0 -13.540305)
(152.00598 8.0083787e-16 -13.35135)
(151.73894 -7.4953632e-16 -13.155516)
(151.47256 -7.2491082e-16 -12.949918)
(151.20746 3.1992431e-17 -12.736096)
(150.94456 6.3595899e-16 -12.513322)
(150.68468 6.4498513e-16 -12.282165)
(150.42875 -1.2003389e-15 -12.042626)
(150.17766 1.1345925e-15 -11.795115)
(149.93237 -5.2348698e-16 -11.539948)
(149.69381 5.1522186e-16 -11.277617)
(149.46292 -9.8194409e-16 -11.008644)
(149.24061 9.5073141e-16 -10.73366)
(149.02777 -8.7863515e-16 -10.453361)
(148.82525 4.2551718e-16 -10.168525)
(148.63385 0 -9.8799924)
(148.4543 2.4218777e-17 -9.5886673)
(148.28729 -1.1540602e-17 -9.2954998)
(148.13339 -7.162905e-16 -9.0014793)
(147.99312 7.1500394e-16 -8.7076242)
(147.8669 0 -8.4149693)
(147.75505 -6.1339344e-16 -8.1245459)
(147.65782 3.6492261e-17 -7.8373738)
(147.57535 1.1185008e-15 -7.5544435)
(147.5077 -5.3410436e-16 -7.2767057)
(147.45483 -5.1028632e-16 -7.0050559)
(147.41663 5.1794403e-16 -6.7403255)
(147.39293 -4.0758826e-16 -6.4832691)
(147.38347 8.3467786e-16 -6.2345588)
(147.38793 -4.2549708e-16 -5.9947739)
(147.40594 0 -5.764399)
(147.43709 0 -5.5438178)
(147.48089 -2.3238483e-17 -5.3333125)
(147.53681 -7.1141293e-16 -5.1330778)
(147.60431 6.5937492e-16 -4.9432015)
(147.68285 6.1054574e-16 -4.7636634)
(147.7719 -5.8924232e-20 -4.5943607)
(147.87081 -6.7132948e-16 -4.4351133)
(147.97886 0 -4.2856569)
(148.09536 3.4189965e-17 -4.1456595)
(148.21963 -3.2769797e-17 -4.01472)
(148.35091 -6.2774052e-17 -3.8924155)
(148.48858 -4.5107055e-16 -3.7782128)
(148.63161 9.065794e-20 -3.6716872)
(148.77959 4.1469456e-16 -3.5720876)
(148.93043 0 -3.4792665)
(149.08479 -4.0698918e-16 -3.391798)
(149.23708 3.9072482e-16 -3.3107863)
(149.39304 -4.6892298e-17 -3.2322874)
(149.53581 3.8280007e-16 -3.1623658)
(149.69141 -6.9251452e-16 -3.0872449)
(149.80395 3.7462902e-16 -3.0329154)
(149.97246 3.2019062e-16 -2.9428569)
(150.00961 -1.1937318e-19 -2.9315157)
(150.25438 -3.1999175e-16 -2.7616074)
(150.05511 2.6841714e-16 -2.9298999)
(150.52832 -2.7149088e-16 -2.4285254)
(149.77315 -1.6722336e-17 -3.2577729)
(150.70542 1.6049767e-17 -1.5876171)
(149.34522 3.1248699e-17 -4.3272529)
(150.02669 1.3080131e-15 -20.795099)
(158.31935 -8.2117441e-21 -14.223095)
(154.8408 -1.1389844e-15 -19.743982)
(156.46821 1.0547954e-15 -15.221881)
(155.09376 7.8879769e-18 -18.506567)
(155.56994 9.4377375e-16 -15.917444)
(154.88902 -1.802069e-15 -17.604723)
(154.93664 1.2931418e-17 -16.246)
(154.51856 8.0608896e-16 -16.987083)
(154.38753 1.1918543e-17 -16.296433)
(154.07176 -7.346958e-16 -16.542371)
(153.86228 6.8520875e-16 -16.169345)
(153.58225 0 -16.177278)
(153.33772 0 -15.93509)
(153.06659 -5.8524726e-16 -15.83264)
(152.80532 5.5529703e-16 -15.63266)
(152.53374 0 -15.47621)
(152.26387 1.5670033e-17 -15.280152)
(151.98991 -1.4870246e-17 -15.092036)
(151.71593 8.7704907e-16 -14.884557)
(151.44078 4.523111e-19 -14.672707)
(151.16617 -7.9258844e-16 -14.448053)
(150.89241 7.6654929e-16 -14.215073)
(150.62062 -7.4052984e-16 -13.971371)
(150.35156 -7.2713414e-16 -13.718316)
(150.08625 6.9180478e-16 -13.455414)
(149.82563 2.0010498e-17 -13.18326)
(149.57071 3.8054959e-17 -12.902022)
(149.3225 3.6245338e-17 -12.612216)
(149.082 -5.6936362e-16 -12.314324)
(148.8502 4.9291592e-16 -12.008984)
(148.62808 5.32645e-16 -11.69689)
(148.41656 -4.7757951e-16 -11.378845)
(148.21652 -4.5543862e-16 -11.055723)
(148.02877 8.6825074e-16 -10.728478)
(147.85405 -8.2790695e-16 -10.39813)
(147.69302 -3.7024889e-16 -10.065754)
(147.54624 7.5296581e-16 -9.7324662)
(147.41418 0 -9.3994136)
(147.29717 -6.8543818e-16 -9.0677509)
(147.1955 6.1303532e-16 -8.7386383)
(147.10929 0 -8.4132173)
(147.03859 -3.7214322e-17 -8.0925984)
(146.98336 0 -7.7778431)
(146.94343 6.7899794e-17 -7.4699562)
(146.91858 0 -7.1698677)
(146.9085 -3.0927721e-17 -6.8784261)
(146.91281 4.8980264e-20 -6.5963868)
(146.93108 1.1291163e-16 -6.3244076)
(146.9628 0 -6.0630405)
(147.00747 0 -5.8127313)
(147.06452 0 -5.5738156)
(147.13337 0 -5.3465198)
(147.21338 0 -5.1309657)
(147.3039 8.6035754e-17 -4.9271835)
(147.40433 4.1115285e-17 -4.7350917)
(147.5141 6.2927294e-16 -4.554505)
(147.63253 -6.0205271e-16 -4.3851703)
(147.75893 -7.2004935e-17 -4.2267547)
(147.89257 0 -4.0788499)
(148.03279 6.5919287e-17 -3.9409897)
(148.1789 5.6793581e-16 -3.812665)
(148.33024 -5.4385643e-16 -3.6933049)
(148.486 0 -3.5823426)
(148.64551 -5.5443352e-17 -3.4790972)
(148.80745 -1.0621213e-16 -3.3830594)
(148.97123 4.0704423e-16 -3.2932913)
(149.13392 -3.9028231e-16 -3.2097286)
(149.29652 4.6768019e-17 -3.130448)
(149.45108 -3.5885868e-16 -3.0574324)
(149.60713 9.5664845e-20 -2.9843141)
(149.73867 2.8930944e-16 -2.9227007)
(149.89237 0 -2.8442671)
(149.96771 0 -2.8119063)
(150.16678 1.8311774e-17 -2.6759098)
(150.06005 1.7637451e-17 -2.7784891)
(150.41789 2.9645167e-17 -2.3715876)
(149.82547 -1.1447685e-16 -3.0492506)
(150.59322 1.1406262e-16 -1.5719401)
(149.37596 -6.0378991e-17 -4.1052595)
(149.36348 3.1624811e-17 -22.550217)
(157.62666 9.414886e-18 -15.726611)
(154.03332 1.1767117e-15 -21.434775)
(155.73576 4.7180159e-19 -16.740872)
(154.28667 -1.0283784e-15 -20.116544)
(154.78626 -9.6917734e-16 -17.437744)
(154.0669 9.1800786e-16 -19.146254)
(154.11319 -1.3552719e-17 -17.74599)
(153.67258 8.3519883e-16 -18.472119)
(153.53031 -7.5389696e-16 -17.758377)
(153.19815 -7.3805576e-16 -17.975763)
(152.97449 1.3769148e-15 -17.581907)
(152.68019 -6.6319329e-16 -17.557651)
(152.42147 1.9683239e-17 -17.291011)
(152.13714 0 -17.155329)
(151.86279 0 -16.926285)
(151.57924 -5.38687e-16 -16.73538)
(151.29796 4.9548357e-16 -16.506166)
(151.01376 0 -16.281716)
(150.73053 9.5325685e-16 -16.037663)
(150.44746 -9.0585606e-16 -15.787214)
(150.16628 4.4072768e-20 -15.52311)
(149.88752 0 -15.249235)
(149.61238 -4.7300393e-17 -14.963675)
(149.34179 -7.1965799e-16 -14.667684)
(149.07687 6.4174228e-16 -14.361017)
(148.81868 -6.9271685e-16 -14.044343)
(148.56832 5.8170827e-16 -13.718022)
(148.32687 -3.690869e-17 -13.382724)
(148.0954 -3.5212419e-17 -13.039121)
(147.87492 -5.0280264e-16 -12.688039)
(147.66642 4.7880384e-16 -12.330376)
(147.4708 0 -11.967133)
(147.2889 0 -11.59939)
(147.12144 0 -11.228299)
(146.96907 -5.2721227e-17 -10.855071)
(146.83231 -5.0186216e-17 -10.480962)
(146.71156 8.1417315e-16 -10.107256)
(146.60712 -9.1220593e-17 -9.7352524)
(146.51914 -6.5308024e-16 -9.3662399)
(146.44768 4.1514501e-17 -9.0014842)
(146.39264 6.3407469e-16 -8.642215)
(146.35386 -5.2920666e-16 -8.2896089)
(146.33104 -5.7721931e-16 -7.9447694)
(146.32381 -6.8855974e-17 -7.6087211)
(146.33171 9.8565129e-16 -7.2823938)
(146.35421 -3.7627445e-16 -6.9666162)
(146.39073 -5.9852796e-17 -6.6621076)
(146.44066 4.0019276e-16 -6.3694743)
(146.50333 -5.4592371e-16 -6.0892055)
(146.57806 -4.1701002e-16 -5.8216736)
(146.66416 3.9830202e-16 -5.5671342)
(146.76094 0 -5.3257289)
(146.86769 7.2678758e-16 -5.097488)
(146.98368 -7.8124563e-16 -4.8823479)
(147.10823 0 -4.6801454)
(147.24072 6.3416603e-16 -4.4906107)
(147.38053 -9.8511784e-16 -4.3133962)
(147.52692 5.0713272e-16 -4.1480918)
(147.67921 5.5408906e-16 -3.99421)
(147.83674 -1.3261103e-16 -3.8512083)
(147.99887 -5.0686728e-16 -3.718502)
(148.16497 -4.8473694e-16 -3.5954575)
(148.33436 5.7982346e-16 -3.4814187)
(148.50633 -4.4376801e-16 -3.375678)
(148.67988 1.0627818e-16 -3.2775663)
(148.85409 4.0661065e-16 -3.186266)
(149.02703 -3.8919297e-16 -3.1012539)
(149.19798 5.5919634e-16 -3.0213232)
(149.36263 0 -2.9467575)
(149.52357 0 -2.8745333)
(149.66806 0 -2.8091986)
(149.81746 0 -2.7368442)
(149.91906 1.5076669e-16 -2.6910925)
(150.08693 -2.8916485e-16 -2.5806301)
(150.049 3.4726654e-16 -2.6313762)
(150.32616 -3.6642392e-16 -2.303806)
(149.85596 4.9719351e-16 -2.8462522)
(150.49913 -3.7321042e-16 -1.5423285)
(149.39924 -1.0139132e-19 -3.8449896)
(148.54953 1.369552e-15 -24.339076)
(156.74075 5.2755272e-19 -17.26008)
(153.06922 -1.2144065e-15 -23.149405)
(154.84277 0 -18.295601)
(153.32021 -1.63671e-17 -21.744062)
(153.83765 -3.0865371e-17 -18.990035)
(153.08122 0 -20.701669)
(153.12157 -8.5678029e-16 -19.270707)
(152.65888 8.3760441e-16 -19.968238)
(152.50214 -8.1844756e-16 -19.236526)
(152.15327 7.5194401e-16 -19.416336)
(151.91337 -3.7986297e-20 -19.002183)
(151.60414 0 -18.9396)
(151.33002 6.2191557e-16 -18.646302)
(151.03197 -6.0897503e-16 -18.472532)
(150.74402 0 -18.210833)
(150.44839 5.4939482e-16 -17.980964)
(150.15586 -5.5424812e-16 -17.714354)
(149.86194 4.9590995e-16 -17.449039)
(149.57033 4.4211371e-16 -17.163879)
(149.28061 -8.6765794e-16 -16.87022)
(148.99455 -2.6597005e-17 -16.562038)
(148.71288 5.0690162e-17 -16.242663)
(148.43693 -9.5759549e-20 -15.910687)
(148.16779 0 -15.567302)
(147.9067 -8.6743862e-20 -15.212547)
(147.65481 0 -14.847215)
(147.41331 3.9547703e-17 -14.471901)
(147.18335 0 -14.087472)
(146.96602 3.5779806e-17 -13.694835)
(146.76233 0 -13.295044)
(146.57324 0 -12.889233)
(146.39958 6.1942113e-17 -12.478637)
(146.2421 0 -12.064563)
(146.10139 -4.494239e-16 -11.648381)
(145.97794 4.8162011e-16 -11.231502)
(145.87207 0 -10.815369)
(145.78399 -4.8584174e-17 -10.401427)
(145.71375 -6.4899118e-16 -9.9911086)
(145.66127 6.1859917e-16 -9.5858204)
(145.62632 -6.7410466e-16 -9.1869112)
(145.60858 7.2313951e-16 -8.7956635)
(145.60758 -7.6626134e-16 -8.4132824)
(145.62279 5.8464385e-16 -8.0408739)
(145.65358 -1.3950664e-16 -7.6794386)
(145.69924 6.6468793e-17 -7.3298622)
(145.75902 -1.2683643e-16 -6.9929087)
(145.83214 1.2114304e-16 -6.6692172)
(145.91778 -4.6216312e-16 -6.3593)
(146.01513 9.9241016e-16 -6.0635428)
(146.12336 -5.1616929e-20 -5.7822072)
(146.24165 -5.0239811e-16 -5.5154339)
(146.36922 1.918834e-16 -5.2632482)
(146.50528 0 -5.0255659)
(146.64907 0 -4.8022021)
(146.79985 0 -4.5928908)
(146.95697 -6.3786052e-16 -4.3972652)
(147.11981 4.5711652e-16 -4.2148749)
(147.2877 1.4550275e-16 -4.0452172)
(147.45994 -1.3906782e-16 -3.8877237)
(147.63592 1.3283358e-16 -3.741771)
(147.81506 -7.6172541e-16 -3.6067008)
(147.99677 9.7068413e-16 -3.4818125)
(148.18045 -1.0437589e-15 -3.3663783)
(148.36546 9.97764e-16 -3.2596398)
(148.55097 -2.121209e-16 -3.1608364)
(148.73602 -6.0815961e-16 -3.0691543)
(148.91911 0 -2.9838693)
(149.09893 -1.8538693e-16 -2.9040187)
(149.27266 1.7737917e-16 -2.8291614)
(149.43992 0 -2.7576621)
(149.59431 0 -2.6907104)
(149.74391 -1.5548684e-16 -2.6222018)
(149.86243 -2.9777221e-16 -2.5671131)
(150.01245 -2.8511676e-16 -2.4761546)
(150.02333 6.8351905e-17 -2.4854425)
(150.24214 -6.5523172e-17 -2.2233214)
(149.86679 2.5158793e-16 -2.6443845)
(150.41027 -6.0146436e-17 -1.5036514)
(149.38906 2.2725048e-16 -3.6014475)
(147.57557 1.3677858e-15 -26.159281)
(155.67008 -1.2471676e-15 -18.825025)
(151.93574 1.8692492e-17 -24.88887)
(153.77628 0 -19.885358)
(152.18175 1.6624236e-17 -23.387532)
(152.71167 1.0361026e-15 -20.571512)
(151.91962 -9.2185567e-16 -22.26749)
(151.94978 -5.62826e-17 -20.814992)
(151.46547 0 -21.470178)
(151.29146 -8.0837338e-16 -20.723719)
(150.9256 7.1432516e-17 -20.856886)
(150.66783 2.2261923e-17 -20.42127)
(150.34322 6.4573232e-16 -20.313967)
(150.05295 0 -19.990436)
(149.741 6.2070202e-16 -19.773207)
(149.43943 -1.1413669e-15 -19.474173)
(149.13213 1.118902e-15 -19.200165)
(148.82908 -4.9807384e-16 -18.891016)
(148.5266 0 -18.579595)
(148.22822 2.9958096e-17 -18.248021)
(147.93389 -9.1239922e-16 -17.905871)
(147.64547 1.734336e-15 -17.548334)
(147.36393 -1.7006214e-15 -17.178281)
(147.09071 8.8202359e-16 -16.794822)
(146.82707 -7.4613103e-16 -16.399166)
(146.57434 7.0936348e-16 -15.991671)
(146.33379 0 -15.573316)
(146.10665 -6.0241351e-16 -15.144979)
(145.8941 6.1143092e-16 -14.707776)
(145.6972 7.2852881e-17 -14.262895)
(145.51695 6.9354881e-17 -13.811657)
(145.35419 -5.9379439e-16 -13.355467)
(145.20963 9.4218431e-16 -12.89582)
(145.08385 1.3775761e-19 -12.434266)
(144.97726 -9.1154893e-16 -11.972401)
(144.8901 5.4275398e-16 -11.511837)
(144.82245 0 -11.05419)
(144.77422 3.9410421e-16 -10.601046)
(144.74519 -4.6944036e-16 -10.153948)
(144.73497 0 -9.7143751)
(144.74302 -6.8212972e-16 -9.2837226)
(144.76872 8.1434679e-17 -8.8632814)
(144.81131 5.4215831e-16 -8.4542311)
(144.86997 0 -8.0576304)
(144.94379 1.407652e-16 -7.6744032)
(145.03184 6.7157823e-16 -7.3053391)
(145.13314 -5.1233979e-16 -6.9510877)
(145.24669 1.2117334e-19 -6.6121598)
(145.37153 -4.6600123e-16 -6.2889301)
(145.50667 8.8909448e-16 -5.98164)
(145.65117 -7.7191426e-20 -5.6904043)
(145.80412 -1.0114899e-16 -5.4152173)
(145.96466 -1.9294979e-16 -5.1559607)
(146.13195 1.8422923e-16 -4.912412)
(146.30521 1.7579548e-16 -4.684253)
(146.48369 6.7079158e-16 -4.4710909)
(146.6667 -6.4040409e-16 -4.2724509)
(146.85369 0 -4.0877823)
(147.04401 0 -3.9164779)
(147.23702 1.3924635e-16 -3.757888)
(147.43215 5.3182543e-16 -3.611309)
(147.62888 -2.5404916e-16 -3.4760103)
(147.82669 -4.8491246e-16 -3.3512278)
(148.02505 -2.3147114e-16 -3.2361713)
(148.22342 2.2120175e-16 -3.1300296)
(148.42109 4.2247504e-16 -3.0319791)
(148.61716 8.0704122e-16 -2.9411754)
(148.81037 -3.855652e-16 -2.8567943)
(148.99927 3.6825378e-16 -2.7779285)
(149.18167 -7.0389026e-16 -2.7038449)
(149.35603 -3.3625031e-16 -2.6334092)
(149.51864 3.2148043e-16 -2.5663417)
(149.67134 1.5361797e-16 -2.5002162)
(149.80206 1.4688249e-16 -2.4396677)
(149.94055 -2.8092363e-16 -2.3623234)
(149.98732 1.3438932e-16 -2.3401051)
(150.1628 1.2857782e-16 -2.1334366)
(149.8679 -4.9270643e-16 -2.4454268)
(150.33038 2.9442745e-16 -1.454945)
(149.36556 0 -3.3495242)
(146.4244 2.2034933e-17 -28.010853)
(154.47131 -1.2293605e-15 -20.421612)
(150.62037 3.7490011e-17 -26.643889)
(152.52266 1.14005e-15 -21.503284)
(150.85898 -1.0832055e-15 -25.036486)
(151.39504 1.053736e-15 -22.174291)
(150.56961 -6.0522774e-17 -23.833828)
(150.58485 2.8607365e-17 -22.369532)
(150.07968 0 -22.967957)
(149.88548 8.2269835e-16 -22.20941)
(149.50245 -8.7688201e-16 -22.28664)
(149.22525 0 -21.827447)
(148.8849 7.4517014e-16 -21.668692)
(148.57792 -6.6505689e-16 -21.31038)
(148.2521 6.3156254e-16 -21.043754)
(147.93724 -6.3658148e-16 -20.701774)
(147.61906 4.9803957e-16 -20.377713)
(147.30676 -1.0809888e-15 -20.019994)
(146.99749 5.1328166e-16 -19.656423)
(146.69465 -4.8798236e-16 -19.272304)
(146.39861 5.2148878e-16 -18.875613)
(146.11131 -5.5156923e-17 -18.462721)
(145.83397 -5.2434182e-17 -18.036169)
(145.56816 -4.9726319e-17 -17.595606)
(145.31528 0 -17.14235)
(145.07675 4.4972901e-17 -16.677129)
(144.85389 6.8539997e-16 -16.201185)
(144.64797 -7.3313185e-16 -15.71573)
(144.46011 5.4272137e-16 -15.222191)
(144.29133 -1.4733815e-16 -14.722079)
(144.14247 -6.3168842e-16 -14.217023)
(144.01423 -1.519389e-19 -13.708727)
(143.9071 -5.0891131e-16 -13.198961)
(143.82141 4.8435828e-16 -12.689525)
(143.75727 1.1542806e-16 -12.182232)
(143.71464 -1.0968586e-16 -11.678878)
(143.69324 0 -11.181221)
(143.69266 -3.9831057e-16 -10.69095)
(143.71229 4.741297e-16 -10.209671)
(143.7514 -7.2277419e-16 -9.7388813)
(143.80911 8.6086802e-16 -9.2799609)
(143.88446 -1.6389632e-16 -8.8341492)
(143.97637 7.8128652e-16 -8.4025384)
(144.08373 -1.3404912e-15 -7.9860754)
(144.20536 -1.4195083e-16 -7.5855479)
(144.3401 4.0597909e-16 -7.2015905)
(144.48675 0 -6.8346854)
(144.64414 1.2311983e-16 -6.4851658)
(144.81115 0 -6.1532248)
(144.98668 -2.2357961e-16 -5.8389214)
(145.16971 0 -5.5421907)
(145.35925 -4.0638373e-16 -5.2628527)
(145.5544 1.9383221e-16 -5.0006236)
(145.75431 -3.6957459e-16 -4.7551251)
(145.95819 -1.7618248e-16 -4.525895)
(146.16532 0 -4.3124013)
(146.37504 0 -4.1140565)
(146.58681 0 -3.9302054)
(146.80007 -5.8355964e-16 -3.7601407)
(147.01425 2.7862969e-16 -3.6031283)
(147.22884 1.5991305e-19 -3.458391)
(147.44338 5.0696501e-16 -3.3251302)
(147.65743 0 -3.2025246)
(147.87055 6.9213813e-16 -3.089731)
(148.08228 -6.6057446e-16 -2.9858917)
(148.29204 -2.0995657e-16 -2.8901366)
(148.49903 -2.0036001e-16 -2.801586)
(148.70216 7.6538964e-16 -2.7193599)
(148.9 -3.6529165e-16 -2.6425461)
(149.09063 -5.227927e-16 -2.5702896)
(149.27216 2.1279675e-19 -2.5015686)
(149.44188 2.0636189e-19 -2.4356154)
(149.5988 1.5161713e-15 -2.3713308)
(149.73824 -5.7915049e-16 -2.3081628)
(149.87058 5.529101e-16 -2.2396867)
(149.94252 0 -2.1947401)
(150.08538 5.0440564e-16 -2.0346951)
(149.85886 -4.8265266e-16 -2.2500301)
(150.25041 0 -1.3970104)
(149.32907 2.1394788e-16 -3.1054548)
(145.08401 1.4074894e-15 -29.893441)
(153.10958 -2.5802254e-15 -22.044036)
(149.11671 -3.9231295e-17 -28.405194)
(151.0734 -7.0771942e-19 -23.143527)
(149.34342 1.1004469e-15 -26.682383)
(149.87789 -1.0396676e-15 -23.790727)
(149.02102 1.9997529e-15 -25.392068)
(149.01582 -9.3146069e-16 -23.924955)
(148.49009 0 -24.452027)
(148.27241 0 -23.682548)
(147.87168 9.909119e-17 -23.694382)
(147.57341 -7.5176394e-16 -23.207924)
(147.21688 7.5710687e-16 -22.990475)
(146.89277 0 -22.591418)
(146.55338 0 -22.268618)
(146.22598 6.0911719e-16 -21.876835)
(145.89829 -5.057062e-16 -21.495799)
(145.57875 0 -21.082367)
(145.26535 5.2143206e-16 -20.659605)
(144.96142 -4.9498751e-16 -20.215839)
(144.66775 -5.8722901e-17 -19.757697)
(144.38638 5.5797606e-17 -19.282688)
(144.11877 5.3026203e-17 -18.793182)
(143.86659 0 -18.289405)
(143.63135 0 -17.772889)
(143.41453 0 -17.244799)
(143.21744 0 -16.706718)
(143.04128 0 -16.160253)
(142.88709 7.0598487e-16 -15.607197)
(142.75568 -5.2227108e-16 -15.049425)
(142.6477 0 -14.488903)
(142.56355 6.0771277e-16 -13.927648)
(142.50343 9.820267e-20 -13.367701)
(142.4673 7.2682974e-20 -12.811098)
(142.45491 -9.3072353e-16 -12.259838)
(142.46577 4.4303711e-16 -11.715856)
(142.49923 5.2729121e-16 -11.180999)
(142.55444 -4.0149853e-16 -10.656994)
(142.63039 -3.8225334e-16 -10.14544)
(142.72594 -3.6394167e-16 -9.6477803)
(142.83985 -1.7309245e-16 -9.1652971)
(142.97079 6.6028063e-16 -8.6991029)
(143.11737 -1.5732833e-16 -8.2501311)
(143.27819 -4.4930145e-16 -7.8191419)
(143.45184 1.4270085e-16 -7.4067224)
(143.63691 6.7973008e-16 -7.0132911)
(143.83204 -2.5914323e-16 -6.6391089)
(144.03594 2.4684926e-16 -6.2842853)
(144.24736 -2.3513463e-16 -5.9487921)
(144.46513 2.2402276e-16 -5.6324732)
(144.68817 0 -5.3350577)
(144.91548 -1.4922607e-19 -5.0561717)
(145.14616 -1.939693e-16 -4.7953508)
(145.37936 1.8489067e-16 -4.5520513)
(145.61435 -3.5268327e-16 -4.3256614)
(145.85046 0 -4.1155112)
(146.08707 -3.2046e-16 -3.9208962)
(146.3237 3.052837e-16 -3.7410571)
(146.55989 -1.1648731e-15 -3.5752008)
(146.79516 5.5550109e-16 -3.4225084)
(147.02906 5.2936443e-16 -3.2821389)
(147.26122 -2.5244956e-16 -3.1532338)
(147.49129 4.8122195e-16 -3.034924)
(147.71891 -9.1778889e-16 -2.9263238)
(147.94372 -4.3743248e-16 -2.8265392)
(148.16525 8.3442382e-16 -2.7346672)
(148.38283 9.9198686e-20 -2.6497994)
(148.59549 3.7927488e-16 -2.5710212)
(148.80193 3.6158423e-16 -2.4974056)
(149.00037 0 -2.4280359)
(149.18883 9.8582802e-16 -2.3618865)
(149.36492 -1.8805481e-15 -2.2980961)
(149.52659 1.0285904e-19 -2.2357278)
(149.67228 8.5487586e-16 -2.1724915)
(149.802 -1.3588646e-15 -2.1095442)
(149.89287 2.1884832e-19 -2.0489959)
(150.00958 2.4732178e-16 -1.9266412)
(149.84301 -4.7192162e-16 -2.0579525)
(150.17323 1.1256588e-15 -1.3338159)
(149.29216 -2.0777306e-16 -2.8629376)
(143.54575 0 -31.804085)
(151.54406 -1.3125081e-15 -23.687658)
(147.41373 1.2559423e-15 -30.170038)
(149.41606 3.6913638e-17 -24.803714)
(147.62254 1.1538269e-15 -28.320754)
(148.14639 -3.2255132e-17 -25.415575)
(147.25982 -1.0001303e-15 -26.935789)
(147.22804 8.8800472e-16 -25.472911)
(146.6817 -8.9653041e-16 -25.913535)
(146.43711 -9.0310102e-16 -25.131898)
(146.01799 -3.9954327e-19 -25.068284)
(145.69715 7.629309e-16 -24.548685)
(145.32417 1.3694142e-19 -24.264307)
(144.98301 -6.8654172e-16 -23.816702)
(144.63088 6.508171e-16 -23.429676)
(144.29249 7.7348211e-17 -22.979659)
(143.95761 6.5983908e-16 -22.533414)
(143.63399 -5.5627352e-16 -22.055776)
(143.32046 -5.2844776e-16 -21.565593)
(143.02033 4.3864606e-16 -21.053996)
(142.73477 -4.7650365e-16 -20.526564)
(142.46594 4.5232118e-16 -19.98192)
(142.21548 -4.2991103e-16 -19.422441)
(141.98515 3.0597439e-16 -18.848982)
(141.7765 0 -18.263418)
(141.59096 7.3755863e-16 -17.667411)
(141.42977 -7.0069932e-16 -17.062973)
(141.29393 -6.6626685e-16 -16.452158)
(141.18426 -1.8440843e-19 -15.837174)
(141.10127 6.0199602e-16 -15.220282)
(141.04526 5.7253197e-16 -14.603794)
(141.01622 -5.443577e-16 -13.990025)
(141.01392 1.2960822e-16 -13.381259)
(141.03784 -4.9248866e-16 -12.779717)
(141.08723 8.1996991e-16 -12.187523)
(141.16114 -4.4571328e-16 -11.606675)
(141.2584 -7.4225298e-16 -11.039024)
(141.37768 4.0358058e-16 -10.486244)
(141.51753 0 -9.9498312)
(141.67639 -1.8293913e-16 -9.4310787)
(141.85263 -6.9586146e-16 -8.9310799)
(142.04457 6.6260789e-16 -8.450729)
(142.25053 7.882765e-16 -7.9907179)
(142.46885 -7.5095062e-16 -7.551545)
(142.69791 -2.8569783e-16 -7.1335293)
(142.93613 6.8115584e-16 -6.7368168)
(143.18204 2.5922801e-16 -6.361398)
(143.43425 2.4715891e-16 -6.0071195)
(143.69144 2.353328e-16 -5.6736999)
(143.95244 -1.6670628e-19 -5.3607449)
(144.21616 -6.4074322e-16 -5.0677613)
(144.48164 6.1010091e-16 -4.7941709)
(144.74799 3.8736272e-16 -4.5393238)
(145.01446 -7.3864864e-16 -4.3025101)
(145.28037 3.5169541e-16 -4.0829711)
(145.54513 -6.7020141e-16 -3.8799078)
(145.80823 1.5965469e-15 -3.6924998)
(146.06925 -3.0443632e-16 -3.5198966)
(146.32785 -2.8995991e-16 -3.3612301)
(146.58364 -2.7618814e-16 -3.2156064)
(146.83628 0 -3.0821316)
(147.08548 -7.5238636e-16 -2.9598998)
(147.33097 -4.7766746e-16 -2.8480056)
(147.5725 1.3660241e-15 -2.745534)
(147.8098 4.3370589e-16 -2.6515672)
(148.04252 -4.1322217e-16 -2.5651821)
(148.2701 -1.5746553e-15 -2.4854523)
(148.49172 -3.7481959e-16 -2.4114451)
(148.70619 3.5740971e-16 -2.3422231)
(148.91186 0 -2.2768293)
(149.10679 9.7232919e-16 -2.2142319)
(149.28859 -6.1763118e-16 -2.1535791)
(149.45504 8.8232924e-16 -2.0936423)
(149.60517 -8.4031037e-16 -2.032296)
(149.73434 1.8202163e-19 -1.9728855)
(149.83811 5.0848817e-16 -1.903101)
(149.9352 2.4210402e-16 -1.8101081)
(149.82182 0 -1.8705539)
(150.0954 -2.1965557e-16 -1.2671475)
(149.25344 0 -2.6254362)
(141.7953 -1.4714321e-15 -33.7415)
(149.76472 -4.1686606e-17 -25.351785)
(145.49409 -3.9939187e-17 -31.93524)
(147.53214 -3.7438764e-17 -26.480665)
(145.67835 -3.5458733e-17 -29.945645)
(146.18168 -1.0743699e-15 -27.041898)
(145.26725 1.0794991e-15 -28.456755)
(145.20258 6.0035939e-17 -27.002618)
(144.63555 9.6792786e-16 -27.341155)
(144.3609 -7.5432138e-16 -26.543235)
(143.92287 -1.0213887e-16 -26.39332)
(143.57858 8.2299747e-16 -25.832174)
(143.18949 -7.7933977e-16 -25.471339)
(142.83223 0 -24.965291)
(142.46927 0 -24.504444)
(142.12276 -7.0398135e-16 -23.986006)
(141.78454 4.4490961e-16 -23.464808)
(141.46174 0 -22.913028)
(141.15402 -6.0142918e-16 -22.345947)
(140.8647 1.0140066e-15 -21.757265)
(140.59528 2.794477e-19 -21.151871)
(140.34802 -7.9945037e-16 -20.529487)
(140.12467 4.3373747e-16 -19.892704)
(139.92698 -7.2128583e-16 -19.243065)
(139.75642 8.8028162e-16 -18.582921)
(139.61427 -9.3058369e-17 -17.914501)
(139.5015 0 -17.240315)
(139.41882 0 -16.562906)
(139.36661 4.7772872e-16 -15.884914)
(139.34496 9.1770419e-20 -15.208984)
(139.35362 1.4413456e-16 -14.537739)
(139.39205 -1.0939541e-15 -13.873741)
(139.45943 5.2029608e-16 -13.219444)
(139.55465 -4.9432504e-16 -12.577165)
(139.67637 5.8771451e-16 -11.949048)
(139.82305 -4.4695579e-16 -11.337043)
(139.99299 6.3750531e-16 -10.742883)
(140.18436 0 -10.168072)
(140.39521 0 -9.6138826)
(140.62359 3.6599196e-16 -9.0813462)
(140.86749 -1.7426394e-16 -8.5712654)
(141.12494 -8.2850015e-16 -8.0842186)
(141.394 -1.5757091e-16 -7.6205696)
(141.67281 1.0508817e-15 -7.1804864)
(141.95961 2.858062e-16 -6.7639587)
(142.25273 -1.0881802e-15 -6.3708117)
(142.55062 0 -6.0007275)
(142.85187 -7.3945082e-16 -5.6532622)
(143.15519 4.6961994e-16 -5.3278634)
(143.45943 2.2361738e-16 -5.0238877)
(143.76357 4.2545295e-16 -4.7406158)
(144.06671 -8.1074488e-16 -4.477267)
(144.36808 7.7184665e-16 -4.233012)
(144.66701 -1.1030457e-15 -4.0069841)
(144.96293 3.5013456e-16 -3.7982893)
(145.25538 3.3341314e-16 -3.6060136)
(145.54394 0 -3.4292359)
(145.82832 0 -3.2670292)
(146.10828 5.7573345e-16 -3.1184608)
(146.38357 5.4817238e-16 -2.9825826)
(146.65393 -5.2238094e-16 -2.8584599)
(146.91919 4.9690487e-16 -2.7451552)
(147.17916 -4.7336873e-16 -2.6417406)
(147.43369 4.5051816e-16 -2.5472861)
(147.68261 -1.2874742e-15 -2.4608638)
(147.92566 -8.1690392e-16 -2.3815444)
(148.16243 1.1667671e-15 -2.3083957)
(148.39222 3.7013739e-16 -2.2404814)
(148.61397 0 -2.176861)
(148.82617 6.705327e-16 -2.1165546)
(149.02693 -6.3834695e-16 -2.0585543)
(149.21382 0 -2.001982)
(149.38477 -5.7805568e-16 -1.945308)
(149.53815 -5.5005958e-16 -1.8873316)
(149.66831 0 -1.8304093)
(149.78037 0 -1.7571848)
(149.86293 0 -1.6863221)
(149.79681 -4.5120924e-16 -1.6889632)
(150.02151 0 -1.1979285)
(149.22192 -7.7513314e-16 -2.3904477)
(139.81271 -4.6767984e-17 -35.703754)
(147.74912 0 -27.032824)
(143.33747 -1.2573413e-15 -33.693942)
(145.39986 1.2576653e-15 -28.168374)
(143.48968 0 -31.548014)
(143.96171 -1.0918219e-15 -28.659228)
(143.02129 9.6717911e-16 -29.943481)
(142.91743 0 -28.499423)
(142.32956 8.6669911e-16 -28.719757)
(142.02219 -9.2905888e-16 -27.898094)
(141.56515 5.1679763e-17 -27.649985)
(141.1974 7.3590781e-16 -27.036072)
(140.79353 -9.2513667e-17 -26.587614)
(140.42253 -6.157482e-16 -26.010907)
(140.05226 5.8405733e-16 -25.464814)
(139.70245 7.9706643e-17 -24.865847)
(139.36693 -5.247149e-16 -24.258302)
(139.05233 0 -23.62097)
(138.75908 6.7292278e-17 -22.966304)
(138.49047 1.919671e-16 -22.29038)
(138.24829 -1.2155162e-16 -21.597765)
(138.03478 -2.3019388e-16 -20.889308)
(137.85168 0 -20.168022)
(137.70056 1.038212e-16 -19.436223)
(137.58267 -9.8179559e-17 -18.696842)
(137.4989 9.3196006e-17 -17.952737)
(137.44979 0 -17.206956)
(137.4355 -1.6856718e-16 -16.462536)
(137.45583 -4.7966177e-16 -15.722518)
(137.51019 4.5504025e-16 -14.98987)
(137.59765 -1.4395242e-16 -14.267451)
(137.71695 0 -13.557953)
(137.86654 3.904743e-16 -12.863877)
(138.04462 -6.1841905e-16 -12.187493)
(138.24919 1.1792405e-16 -11.530816)