/*--------------------------------*- C++ -*----------------------------------*\
  =========                 |
  \\      /  F ield         | OpenFOAM: The Open Source CFD Toolbox
   \\    /   O peration     | Website:  https://openfoam.org
    \\  /    A nd           | Version:  6
     \\/     M anipulation  |
\*---------------------------------------------------------------------------*/
FoamFile
{
    version     2.0;
    format      ascii;
    class       surfaceScalarField;
    location    "0";
    object      phi;
}
// * * * * * * * * * * * * * * * * * * * * * * * * * * * * * * * * * * * * * //

dimensions      [0 3 -1 0 0 0 0];

internalField   nonuniform List<scalar> 
23266
(
-7.89362e-05
0.0313289
-0.000157563
0.0313286
-0.000235505
0.0313279
-0.000312248
0.0313267
-0.000387075
0.0313248
-0.000458987
0.0313219
-0.000526633
0.0313176
-0.000588251
0.0313116
-0.00064162
0.0313034
-0.000684058
0.0312924
-0.000712486
0.0312784
-0.000723579
0.0312611
-0.00071404
0.0312405
-0.000680995
0.031217
-0.000622483
0.0311915
-0.000537976
0.0311655
-0.000428889
0.0311409
-0.000298847
0.03112
-0.000153481
0.0311046
-7.74151e-09
0.0310965
0.000153466
0.0310965
0.000298833
0.0311046
0.000428877
0.03112
0.000537965
0.0311409
0.000622474
0.0311655
0.000680988
0.0311915
0.000714034
0.031217
0.000723575
0.0312405
0.000712484
0.0312611
0.000684057
0.0312784
0.000641619
0.0312924
0.000588251
0.0313034
0.000526634
0.0313116
0.000458988
0.0313176
0.000387076
0.0313219
0.000312249
0.0313248
0.000235505
0.0313267
0.000157564
0.0313279
7.89364e-05
0.0313286
0.0313289
-7.95081e-05
0.0314084
-0.000158831
0.0314079
-0.00023772
0.0314068
-0.000315794
0.0314048
-0.000392468
0.0314015
-0.000466876
0.0313963
-0.000537784
0.0313886
-0.000603509
0.0313773
-0.000661836
0.0313617
-0.000709972
0.0313406
-0.00074455
0.031313
-0.00076174
0.0312783
-0.000757515
0.0312362
-0.0007281
0.0311875
-0.000670563
0.0311339
-0.00058344
0.0310784
-0.000467649
0.0310251
-0.000327189
0.0309795
-0.000168477
0.0309459
-8.30546e-09
0.0309281
0.000168461
0.0309281
0.000327173
0.0309459
0.000467636
0.0309795
0.000583428
0.0310251
0.000670554
0.0310784
0.000728093
0.0311339
0.00075751
0.0311875
0.000761737
0.0312362
0.000744548
0.0312783
0.000709971
0.031313
0.000661836
0.0313406
0.000603509
0.0313617
0.000537785
0.0313773
0.000466877
0.0313886
0.000392469
0.0313963
0.000315795
0.0314015
0.000237721
0.0314048
0.000158832
0.0314068
7.95083e-05
0.031408
0.0314084
-8.04219e-05
0.0314889
-0.000160902
0.0314884
-0.000241443
0.0314874
-0.000321928
0.0314853
-0.000402052
0.0314816
-0.000481236
0.0314755
-0.000558522
0.0314658
-0.000632448
0.0314513
-0.000700902
0.0314301
-0.000760963
0.0314006
-0.000808774
0.0313608
-0.00083951
0.031309
-0.00084758
0.0312443
-0.000827222
0.0311672
-0.000773363
0.0310801
-0.000681927
0.0309869
-0.000552038
0.0308952
-0.000389288
0.0308167
-0.000201519
0.0307582
-9.57472e-09
0.0307265
0.0002015
0.0307265
0.000389271
0.0307582
0.000552023
0.0308167
0.000681915
0.0308952
0.000773354
0.0309869
0.000827216
0.0310801
0.000847576
0.0311672
0.000839508
0.0312443
0.000808774
0.031309
0.000760963
0.0313608
0.000700903
0.0314006
0.00063245
0.0314301
0.000558524
0.0314513
0.000481238
0.0314658
0.000402054
0.0314755
0.00032193
0.0314816
0.000241444
0.0314853
0.000160903
0.0314874
8.04223e-05
0.0314884
0.0314889
-8.12276e-05
0.0315701
-0.000162862
0.0315701
-0.000245269
0.0315698
-0.00032873
0.0315688
-0.000413376
0.0315663
-0.000499108
0.0315612
-0.000585475
0.0315522
-0.000671511
0.0315373
-0.00075549
0.0315141
-0.00083461
0.0314798
-0.000904582
0.0314308
-0.000959203
0.0313636
-0.000990225
0.0312753
-0.000988307
0.0311653
-0.000945668
0.0310375
-0.000851535
0.0308928
-0.000697208
0.0307409
-0.00049766
0.0306172
-0.000259976
0.0305205
-1.19077e-08
0.0304666
0.000259954
0.0304666
0.00049764
0.0305205
0.000697191
0.0306172
0.000851522
0.0307409
0.000945659
0.0308928
0.000988302
0.0310374
0.000990222
0.0311653
0.000959203
0.0312753
0.000904584
0.0313636
0.000834612
0.0314308
0.000755492
0.0314798
0.000671514
0.0315141
0.000585478
0.0315373
0.00049911
0.0315522
0.000413378
0.0315612
0.000328732
0.0315663
0.000245271
0.0315688
0.000162863
0.0315698
8.12281e-05
0.0315701
0.0315701
-8.1281e-05
0.0316514
-0.000163391
0.0316522
-0.000247148
0.0316535
-0.000333339
0.031655
-0.000422691
0.0316556
-0.000515802
0.0316543
-0.000613044
0.0316494
-0.000714377
0.0316386
-0.000819064
0.0316188
-0.000925179
0.0315859
-0.00102878
0.0315344
-0.00112254
0.0314574
-0.00119379
0.0313466
-0.00122471
0.0311962
-0.00121321
0.031026
-0.00113248
0.0308121
-0.000926016
0.0305344
-0.000676571
0.0303678
-0.000359644
0.0302035
-1.57006e-08
0.030107
0.000359614
0.030107
0.000676545
0.0302035
0.000925996
0.0303677
0.00113247
0.0305344
0.00121321
0.030812
0.00122471
0.0310259
0.00119379
0.0311962
0.00112255
0.0313466
0.00102879
0.0314574
0.000925184
0.0315344
0.000819068
0.0315859
0.000714381
0.0316188
0.000613048
0.0316386
0.000515806
0.0316494
0.000422694
0.0316543
0.000333342
0.0316556
0.00024715
0.031655
0.000163392
0.0316535
8.12817e-05
0.0316522
0.0316514
-7.98012e-05
0.0317312
-0.000160874
0.0317332
-0.000244523
0.0317372
-0.000332105
0.0317425
-0.000425052
0.0317486
-0.000524859
0.0317542
-0.000633043
0.0317576
-0.000751039
0.0317566
-0.000879996
0.0317478
-0.00102039
0.0317263
-0.0011712
0.0316852
-0.00132752
0.0316137
-0.00147196
0.031491
-0.00153957
0.0312638
-0.00160882
0.0310952
-0.00164597
0.0308492
-0.00123433
0.0148199
0.0153029
-0.000980295
0.0150786
0.0150351
-0.000538291
0.0148953
0.0148662
-2.23424e-08
0.0147896
0.014779
0.000538249
0.014779
0.0147896
0.000980261
0.0148662
0.0148953
0.0012343
0.0150351
0.0150786
0.00164595
0.0153029
0.0148198
0.00160882
0.0308492
0.00153957
0.0310952
0.00147197
0.0312638
0.00132753
0.031491
0.00117121
0.0316137
0.0010204
0.0316852
0.000880003
0.0317263
0.000751046
0.0317478
0.000633049
0.0317566
0.000524863
0.0317576
0.000425055
0.0317542
0.000332108
0.0317486
0.000244525
0.0317425
0.000160876
0.0317372
7.98019e-05
0.0317333
0.0317312
-7.59687e-05
0.0318071
-0.000153596
0.0318109
-0.000234621
0.0318182
-0.000320947
0.0318289
-0.000414724
0.0318423
-0.000518421
0.0318578
-0.000634895
0.0318741
-0.000767429
0.0318892
-0.000919772
0.0319001
-0.00109634
0.0319028
-0.00130341
0.0318923
-0.00155447
0.0318648
-0.00189223
0.0318288
-0.00185138
0.0153511
0.0158718
-0.00206383
0.0156756
0.015632
-0.000892763
0.0154313
0.0153731
-0.00112633
0.0151111
-0.00118403
0.000975051
0.0149862
-0.000882675
0.000725277
0.014762
-0.000591939
0.000398561
0.014602
-0.000210915
1.54995e-08
0.0145681
0.000210884
-0.000398532
0.0146728
0.000591913
-0.000725255
0.0148777
0.000882657
-0.000975038
0.015094
0.00118402
0.00206384
0.0153731
0.0154313
-0.00112633
-0.000892758
0.00185139
0.015632
0.0156756
0.00189225
0.0158718
0.0153511
0.00155449
0.0318288
0.00130342
0.0318648
0.00109635
0.0318923
0.000919783
0.0319028
0.000767438
0.0319001
0.000634902
0.0318892
0.000518426
0.0318741
0.000414728
0.0318579
0.000320951
0.0318423
0.000234623
0.0318289
0.000153597
0.0318182
7.59695e-05
0.0318109
0.0318071
-6.90691e-05
0.0318762
-0.000140032
0.0318818
-0.000214913
0.0318931
-0.00029601
0.03191
-0.000386046
0.0319324
-0.00048835
0.0319602
-0.000607042
0.0319928
-0.000747182
0.0320293
-0.000914738
0.0320677
-0.00111589
0.032104
-0.00135422
0.0321306
-0.00162109
0.0321317
-0.000839676
0.0320713
-0.0010239
0.0157911
-0.00127961
0.00123241
0.0157634
-0.00132017
0.0155368
-0.00146993
0.00136445
0.00146792
0.015222
-0.00148938
-0.0152005
0.00146566
0.0148107
-0.00138109
-0.0148952
0.0012271
0.0143545
-0.00100284
-0.0145787
0.000712206
0.0140048
-0.000370346
-0.0143466
2.59437e-08
0.013924
0.000370296
-0.0142943
-0.00071216
0.0141549
0.0010028
-0.0144455
-0.00122707
0.0145801
0.00138106
-0.0147341
-0.00146564
0.0150288
0.00148938
-0.0150526
-0.00146792
0.0153711
0.00146993
-0.00136445
0.0156763
0.00132018
-0.00123242
0.0158246
0.00127962
0.00162111
0.0320713
-0.00102391
-0.000839689
0.00135424
0.0321317
0.00111591
0.0321306
0.000914751
0.032104
0.000747192
0.0320677
0.000607049
0.0320293
0.000488356
0.0319928
0.000386051
0.0319602
0.000296014
0.0319324
0.000214916
0.03191
0.000140034
0.0318931
6.90698e-05
0.0318818
0.0318762
-5.86669e-05
0.0319349
-0.00011922
0.0319424
-0.000183711
0.0319576
-0.000254539
0.0319808
-0.000334678
0.0320125
-0.00042797
0.0320534
-0.000539517
0.0321043
-0.000676224
0.032166
-0.000847563
0.032239
-0.00106668
0.0323231
-0.00135227
0.0324162
-0.00173278
0.0325122
-0.00112199
0.0325979
-0.00113741
-0.0159847
0.0161394
-0.00127672
0.0160869
-0.00163246
-0.0158991
0.0014447
-0.0156909
0.00185641
0.00796586
0.00770843
-0.000856071
-0.000983756
-0.00767542
0.0010614
0.00771224
-0.00109823
0.00113599
-0.00739035
0.00741241
-0.00115805
0.00104653
-0.00705738
0.00701174
-0.00100089
0.000654028
-0.00677725
0.00664347
-0.000520241
2.22293e-08
-0.00669855
0.00651789
0.00018064
-0.00065399
-0.00687214
0.00672532
0.000800807
-0.00104651
-0.0071918
0.0071217
0.00111661
-0.00113599
-0.00751159
0.00750438
0.0011432
-0.00106141
-0.00779513
0.00776807
0.00108847
-0.00185643
0.0160413
0.00163249
-0.0158174
-0.00144472
-0.0159527
0.0161207
0.00127674
0.00173282
0.0325979
-0.00113743
-0.00112202
0.0013523
0.0325122
0.0010667
0.0324162
0.000847577
0.0323231
0.000676234
0.032239
0.000539524
0.032166
0.000427976
0.0321044
0.000334683
0.0320535
0.000254542
0.0320125
0.000183713
0.0319808
0.000119221
0.0319576
5.86676e-05
0.0319424
0.0319349
-4.47759e-05
0.0319797
-9.11257e-05
0.0319887
-0.000140786
0.0320072
-0.000195844
0.0320358
-0.000258984
0.0320757
-0.000333826
0.0321283
-0.000425454
0.032196
-0.000541211
0.0322818
-0.000692015
0.0323898
-0.000894518
0.0325256
-0.00117476
0.0326964
-0.00157423
0.0329116
-0.00109772
0.0331825
-0.00106109
-0.0163134
0.0165214
-0.00130574
-0.0162964
0.0165821
-0.00183004
0.00154433
-0.00808125
0.00108355
0.00817382
-0.00117612
-0.00396238
0.000739552
0.00398676
-0.00076393
-0.00377622
0.000941311
0.00379859
-0.000963676
-0.00343292
0.00103603
0.00342442
-0.00102752
0.000754688
-0.00301819
0.00294592
-0.000682418
2.21764e-08
-0.00283141
0.00272306
0.000108333
-0.000754652
-0.00306533
0.00300108
0.000818902
-0.00103601
-0.00348384
0.0034811
0.00103875
-0.00380844
-0.000941317
0.00383191
0.000917848
-0.000739567
-0.00796805
0.00808232
0.00137787
-0.000752582
-0.00108358
-0.0162351
0.0165893
0.00183009
-0.00110068
-0.00154438
-0.0163165
0.0165551
0.00130578
0.00157427
0.0331825
-0.00106112
-0.00109775
0.00117479
0.0329116
0.000894537
0.0326965
0.000692028
0.0325256
0.000541221
0.0323898
0.000425461
0.0322818
0.000333831
0.032196
0.000258987
0.0321283
0.000195847
0.0320757
0.000140788
0.0320359
9.1127e-05
0.0320072
4.47764e-05
0.0319887
0.0319797
-2.79739e-05
0.0320076
-5.69081e-05
0.0320177
-8.78771e-05
0.0320382
-0.000122204
0.0320702
-0.000161641
0.0321151
-0.000208638
0.0321753
-0.00026676
0.0322541
-0.000341377
0.0323564
-0.000440844
0.0324893
-0.000578567
0.0326633
-0.000776739
0.0328946
-0.00107326
0.0332081
-0.000826523
0.0336442
-0.000708444
-0.0167039
0.0169322
-0.00105488
-0.0169045
0.0172307
-0.00163797
0.00131183
-0.00852827
0.00105048
0.00867479
-0.001197
-0.00428177
0.000872737
0.0043387
-0.000929668
-0.00416335
0.00145112
0.00425719
-0.00154496
-0.00181795
0.00111373
0.00184083
-0.00113661
-0.00112666
0.00119816
0.00109484
-0.00116634
-0.000588707
2.49448e-08
0.000482286
0.000106395
-0.00119812
-0.00117879
0.00115215
0.00122475
-0.00111378
-0.0018468
0.00186849
0.00109208
-0.00145117
-0.00419342
0.00428243
0.00136215
-0.00856836
-0.000872637
0.00877663
0.00153628
-0.000871914
-0.00105053
-0.0170012
0.0174309
0.00163804
-0.00101727
-0.00131189
-0.0168059
0.0170628
0.00105492
0.00107329
0.0336442
-0.00070847
-0.000826553
0.000776759
0.0332082
0.00057858
0.0328946
0.000440853
0.0326634
0.000341383
0.0324893
0.000266764
0.0323564
0.000208641
0.0322541
0.000161643
0.0321753
0.000122205
0.0321151
8.78783e-05
0.0320702
5.69085e-05
0.0320382
2.79742e-05
0.0320177
0.0320076
-9.39567e-06
0.032017
-1.8927e-05
0.0320272
-2.87575e-05
0.032048
-3.91111e-05
0.0320805
-5.03169e-05
0.0321263
-6.28739e-05
0.0321878
-7.75555e-05
0.0322688
-9.55816e-05
0.0323744
-0.000118916
0.0325126
-0.000150809
0.0326952
-0.000196808
0.0329406
-0.000266772
0.0332781
-0.000277142
0.0337564
-0.000101866
-0.0170371
0.0171779
-0.000417957
-0.0174968
0.017657
-0.000706669
0.00054647
-0.00902938
0.000515955
0.00915515
-0.000641726
-0.00476401
0.000552052
0.00483234
-0.000620382
-0.00258654
0.000621172
0.00263764
-0.000672268
-0.00291882
0.00176603
0.0030202
-0.000924222
-0.000943185
-0.00176602
-0.00289946
0.00301336
0.00165212
-0.000620938
-0.00512137
0.00114625
-0.000603056
0.00254979
0.00264932
-0.00942046
-0.000552112
0.00958703
0.000896485
-0.000510946
-0.000515992
-0.0178001
0.0180213
0.000706711
-0.000411881
-0.000546497
-0.0172509
0.0173794
0.000417975
0.000266777
0.0337565
-0.000101867
-0.000277151
0.000196811
0.0332781
0.00015081
0.0329406
0.000118917
0.0326952
9.5582e-05
0.0325126
7.75557e-05
0.0323744
6.28739e-05
0.0322688
5.03169e-05
0.0321879
3.91112e-05
0.0321263
2.87573e-05
0.0320805
1.89272e-05
0.032048
9.3956e-06
0.0320272
0.032017
9.43353e-06
0.0320076
1.96074e-05
0.032017
3.13298e-05
0.0320363
4.55576e-05
0.0320663
6.3507e-05
0.0321084
8.68205e-05
0.0321645
0.000117835
0.0322378
0.000160033
0.0323322
0.000218839
0.0324538
0.000303041
0.032611
0.000427446
0.0328162
0.000617906
0.0330877
0.000382785
0.0334531
0.000538432
-0.0171214
0.0170952
0.000408931
-0.0176571
0.0175113
0.00064953
-0.000503722
-0.00917777
-0.000376654
0.00916325
0.000391179
-0.00493127
-0.000289825
0.00492529
0.000295808
-0.00284401
-0.000278337
0.00282533
0.000297014
-0.00144816
-0.000206978
0.00165514
-0.00177592
0.000206651
0.0018709
-0.000301638
0.000278237
-0.00280892
0.00279241
-0.000261724
-0.00970484
0.000289867
0.0096021
-0.000527612
0.000340481
0.000376688
-0.0180263
0.0178169
-0.000649579
0.000482226
0.000503756
-0.017367
0.0172722
-0.000408956
-0.000617934
0.0334531
0.000538459
0.000382805
-0.000427464
0.0330877
-0.000303053
0.0328162
-0.000218847
0.032611
-0.000160039
0.0324538
-0.000117839
0.0323322
-8.68233e-05
0.0322378
-6.35091e-05
0.0321645
-4.55591e-05
0.0321084
-3.13305e-05
0.0320663
-1.96082e-05
0.0320363
-9.43368e-06
0.032017
0.0320076
2.68934e-05
0.0319807
5.52777e-05
0.0319886
8.67831e-05
0.0320048
0.000123343
0.0320297
0.00016741
0.0320643
0.000222271
0.0321097
0.000292538
0.0321675
0.000384933
0.0322398
0.00050962
0.0323291
0.000682532
0.0324381
0.000929525
0.0325692
0.00129385
0.0327233
0.000885238
0.032898
0.000963762
-0.0168974
0.0167413
0.00104137
-0.0172427
0.0169217
0.00160044
-0.00127946
-0.0088064
-0.000996826
0.0086892
0.00111402
-0.00453439
-0.000832824
0.00447613
0.000891082
-0.00464569
-0.0015496
0.00451142
0.00168387
-0.00217051
-0.00153948
0.00210831
0.00160168
-0.00219763
0.00153933
0.00213622
-0.00147792
0.00154965
-0.00464143
0.00451853
-0.00142675
-0.00902139
0.000832878
0.00879991
-0.00145456
0.00084316
0.000996882
-0.0174513
0.0170227
-0.00160052
0.00103222
0.00127952
-0.0170624
0.0168243
-0.00104142
-0.0012939
0.032898
0.000963798
0.000885274
-0.000929555
0.0327233
-0.000682553
0.0325692
-0.000509634
0.0324381
-0.000384943
0.0323291
-0.000292545
0.0322398
-0.000222277
0.0321675
-0.000167413
0.0321097
-0.000123345
0.0320643
-8.67851e-05
0.0320297
-5.52784e-05
0.0320048
-2.68939e-05
0.0319887
0.0319807
4.15959e-05
0.0319391
8.51751e-05
0.0319451
0.000132888
0.0319571
0.000187243
0.0319754
0.000251346
0.0320002
0.000329229
0.0320318
0.000426315
0.0320704
0.000550102
0.032116
0.000711204
0.032168
0.000925006
0.0322243
0.00121457
0.0322796
0.00161687
0.032321
0.00109645
0.0323153
0.00110309
-0.0165101
0.01632
0.00128656
-0.0165941
0.0163066
0.00181066
-0.00152319
-0.00829553
-0.00109248
0.00818322
0.00120479
-0.00410193
-0.000802507
0.00405935
0.000845082
-0.00391112
-0.00114378
0.00386751
0.0011874
-0.00342915
-0.00141895
0.00341858
0.00142952
-0.00133448
-0.00115765
0.002755
0.00106014
-0.00132301
-0.00111705
-1.568e-08
0.00116323
-4.61681e-05
-0.00137391
0.0011576
0.00283516
-0.00123292
-0.00138593
-0.00350957
0.00141893
0.00349094
-0.00140031
-0.00394737
0.0011438
0.00390331
-0.00109974
-0.00823406
0.000802528
0.0080941
-0.00145329
0.000790721
-0.0166067
0.00109252
0.0162487
-0.00181072
0.00107623
0.00152324
-0.0165597
0.016323
-0.0012866
-0.00161692
0.0323153
0.00110312
0.00109648
-0.00121461
0.032321
-0.000925029
0.0322796
-0.000711221
0.0322243
-0.000550114
0.032168
-0.000426324
0.032116
-0.000329236
0.0320704
-0.000251351
0.0320318
-0.000187246
0.0320002
-0.00013289
0.0319754
-8.51767e-05
0.0319571
-4.15964e-05
0.0319451
0.0319391
5.26302e-05
0.0318865
0.000107427
0.0318903
0.000166708
0.0318978
0.000233112
0.031909
0.000309795
0.0319235
0.00040067
0.0319409
0.000510704
0.0319604
0.000646252
0.0319805
0.000815317
0.031999
0.00102734
0.0320123
0.00129112
0.0320159
0.00160628
0.0320059
0.00105467
0.0319892
0.000877745
-0.0161309
0.0159092
0.00127643
-0.0160957
0.0159158
0.00162339
-0.00144341
-0.00771361
-0.00184633
0.0156977
-0.00797117
0.00098057
0.000852887
-0.007757
-0.00116558
0.00772012
0.00120246
-0.00742555
-0.00131184
0.00740991
0.00132748
-0.00692665
-0.00126273
0.00699597
0.00119341
-0.00643309
-0.000817154
0.00661195
0.000638295
-0.00625574
-2.72752e-08
0.00647877
-0.000223001
-0.00653956
0.000817109
0.00669319
-0.000970744
-0.00706069
0.00126271
0.00710428
-0.00130629
-0.00752822
0.00131183
0.00749964
-0.00128325
0.00116559
-0.0078358
0.00777202
-0.00110181
-0.0160524
0.00184636
0.0158294
-0.00162342
0.00144344
-0.0161224
0.0159554
-0.00127646
-0.00160632
0.0319892
0.000877763
0.00105469
-0.00129115
0.0320059
-0.00102736
0.0320158
-0.000815334
0.0320123
-0.000646265
0.031999
-0.000510713
0.0319805
-0.000400677
0.0319604
-0.0003098
0.0319409
-0.000233116
0.0319235
-0.000166711
0.031909
-0.000107428
0.0318978
-5.26313e-05
0.0318903
0.0318865
5.96579e-05
0.0318268
0.000121383
0.0318285
0.000187353
0.0318318
0.000259971
0.0318364
0.000341995
0.0318415
0.000436672
0.0318462
0.000547903
0.0318491
0.00068041
0.031848
0.000839979
0.0318394
0.00103393
0.0318183
0.00127264
0.0317771
0.00157541
0.0317031
0.001993
0.0315716
0.00106153
0.0313216
0.000982274
-0.0154249
-0.0159475
-0.015822
0.015663
0.00122055
-0.015546
-0.00133528
0.0154629
0.00141841
-0.00763145
-0.000743021
0.00760881
0.000765664
-0.00742208
-0.000771923
0.00743631
0.000757695
-0.00718404
-0.000658844
0.00723717
0.000605709
-0.00699063
-0.000387473
0.00708021
0.00029789
-0.00692819
-1.41228e-08
0.00703039
-0.000102186
-0.00702976
0.000387447
0.0071116
-0.000469285
-0.00724295
0.000658827
0.00728573
-0.000701602
-0.00747899
0.000771917
0.00748488
-0.000777799
0.000743023
-0.0153645
0.0153301
-0.00141842
0.000709774
-0.0156906
0.0013353
0.0155758
-0.00122056
-0.00199303
0.0313215
0.000982284
0.00106154
-0.0159475
-0.0154249
-0.00157543
0.0315716
-0.00127266
0.0317031
-0.00103394
0.0317771
-0.000839993
0.0318183
-0.000680421
0.0318394
-0.000547911
0.031848
-0.000436679
0.0318491
-0.000341999
0.0318462
-0.000259975
0.0318415
-0.000187355
0.0318364
-0.000121385
0.0318318
-5.96588e-05
0.0318285
0.0318268
6.28621e-05
0.031764
0.000127488
0.0317639
0.000195701
0.0317636
0.000269435
0.0317626
0.000350789
0.0317601
0.000442059
0.031755
0.000545746
0.0317455
0.000664515
0.0317292
0.000801053
0.0317028
0.000957721
0.0316617
0.00113568
0.0315992
0.00133215
0.0315066
0.00153058
0.0313731
0.00085732
0.0311903
0.000804524
-0.015586
0.0155272
0.000916167
-0.0154166
-0.000956117
0.0153946
0.000978144
-0.00761772
-0.000500786
0.00761131
0.000507192
-0.00748976
-0.000479046
0.00750813
0.000460668
-0.00736907
-0.000379167
0.00740504
0.000343198
-0.00728079
-0.000211713
0.00733106
0.000161445
-0.00725381
-8.2114e-09
0.00730867
-5.4844e-05
-0.00729804
0.000211698
0.00734542
-0.000259085
-0.0073975
0.000379156
0.00742911
-0.000410767
-0.00752127
0.00047904
0.00753539
-0.000493164
0.000500785
-0.0153113
0.0153101
-0.000978145
0.00047855
-0.0155087
0.00095612
0.0154687
-0.000916171
-0.00153059
0.0311903
0.000804527
0.000857324
-0.00133217
0.0313731
-0.00113569
0.0315066
-0.000957734
0.0315992
-0.000801063
0.0316617
-0.000664524
0.0317028
-0.000545753
0.0317292
-0.000442064
0.0317455
-0.000350793
0.031755
-0.000269438
0.0317601
-0.000195704
0.0317626
-0.000127489
0.0317636
-6.28633e-05
0.0317639
0.031764
6.28034e-05
0.0317011
0.000126961
0.0316998
0.000193836
0.0316968
0.000264805
0.0316917
0.000341243
0.0316837
0.000424477
0.0316717
0.000515694
0.0316542
0.000615757
0.0316291
0.00072489
0.0315937
0.00084214
0.0315444
0.000964472
0.0314768
0.00108529
0.0313858
0.00119236
0.0312661
0.000654896
0.0311156
0.000612121
-0.0155237
0.0154925
0.000686118
-0.0153915
-0.000696254
0.015395
0.000692729
-0.00763675
-0.000344787
0.00763738
0.000344159
-0.00755997
-0.000312612
0.00757564
0.000296949
-0.00749403
-0.000236438
0.00751846
0.000212006
-0.00744881
-0.000127971
0.00747967
9.71193e-05
-0.00743543
-5.14077e-09
0.00746824
-3.28086e-05
-0.00745747
0.000127962
0.00748707
-0.00015756
-0.00750909
0.000236431
0.00753146
-0.000258798
-0.00757814
0.000312607
0.00759147
-0.000325932
0.000344784
-0.0153215
0.0153386
-0.000692727
0.000330906
-0.0154578
0.000696253
0.0154476
-0.000686119
-0.00119236
0.0311156
0.000612122
0.000654897
-0.0010853
0.0312661
-0.00096448
0.0313858
-0.000842148
0.0314768
-0.000724897
0.0315444
-0.000615763
0.0315937
-0.0005157
0.0316291
-0.000424482
0.0316542
-0.000341246
0.0316717
-0.000264808
0.0316837
-0.000193837
0.0316917
-0.000126963
0.0316968
-6.28041e-05
0.0316998
0.0317011
6.02406e-05
0.0316409
0.000121406
0.0316386
0.000184398
0.0316338
0.00025006
0.031626
0.000319125
0.0316146
0.000392132
0.0315987
0.000469282
0.0315771
0.000550222
0.0315482
0.000633712
0.0315102
0.000717157
0.031461
0.000796065
0.0313979
0.000863869
0.031318
0.000914075
0.0312159
0.0004921
0.0310778
0.00045984
-0.0155014
0.0154815
0.000511989
-0.0154054
-0.00051256
0.0154162
0.000501732
-0.00766409
-0.000245637
0.00766677
0.000242957
-0.00761775
-0.000215307
0.00763028
0.000202775
-0.00757986
-0.000157628
0.00759711
0.00014038
-0.00755458
-8.34309e-05
0.0075749
6.31038e-05
-0.00754721
-3.34489e-09
0.00756844
-2.12348e-05
-0.00755937
8.34245e-05
0.00757911
-0.000103163
-0.00758841
0.000157623
0.00760462
-0.000173834
-0.00762842
0.000215303
0.0076395
-0.000226385
0.000245635
-0.0153585
0.0153776
-0.000501729
0.000237056
-0.015452
0.000512558
0.0154515
-0.000511988
-0.000914076
0.0310778
0.000459839
0.000492099
-0.000863873
0.0312159
-0.000796069
0.031318
-0.000717162
0.0313979
-0.000633717
0.031461
-0.000550226
0.0315102
-0.000469286
0.0315482
-0.000392135
0.0315771
-0.000319128
0.0315987
-0.000250062
0.0316146
-0.0001844
0.031626
-0.000121407
0.0316338
-6.02415e-05
0.0316386
0.0316409
5.59667e-05
0.0315849
0.000112474
0.0315821
0.000170022
0.0315762
0.000229019
0.031567
0.000289718
0.0315539
0.000352123
0.0315363
0.000415858
0.0315134
0.000479969
0.0314841
0.000542617
0.0314476
0.00060057
0.031403
0.00064819
0.0313503
0.000675
0.0312912
0.000658617
0.0312323
0.000341618
0.0311944
0.000200354
-0.0154848
0.0154148
0.000411655
-0.0154334
-0.000397015
0.015473
0.000357384
-0.00768199
-0.000169907
0.00765565
0.000196247
-0.00766611
-0.000159531
0.00767858
0.000147056
-0.00764164
-0.000109896
0.00765422
9.73102e-05
-0.00762555
-5.69931e-05
0.0076395
4.30507e-05
-0.00762098
-2.22617e-09
0.00763543
-1.44453e-05
-0.00762858
5.69888e-05
0.0076424
-7.08049e-05
-0.00764724
0.000109893
0.00765981
-0.000122469
-0.00767228
0.000159527
0.00768617
-0.000173416
0.000169904
-0.015394
0.015476
-0.000357381
0.000105491
-0.0154606
0.000397013
0.0154752
-0.000411654
-0.000658617
0.0311944
0.000200353
0.000341617
-0.000675
0.0312323
-0.000648193
0.0312912
-0.000600572
0.0313503
-0.00054262
0.031403
-0.000479972
0.0314476
-0.000415861
0.0314841
-0.000352125
0.0315134
-0.00028972
0.0315363
-0.000229021
0.0315539
-0.000170023
0.031567
-0.000112476
0.0315762
-5.59672e-05
0.0315821
0.0315849
5.06923e-05
0.0315342
0.000101618
0.0315312
0.000152966
0.0315249
0.00020483
0.0315151
0.000257153
0.0315016
0.000309654
0.0314838
0.000361741
0.0314613
0.000412422
0.0314334
0.000460206
0.0313998
0.000503091
0.0313601
0.000538812
0.0313146
0.000566014
0.031264
0.000588607
0.0312097
0.000631195
0.0311518
0.000197619
0.0310795
-0.0150917
-0.0156058
5.15818e-05
-0.015503
0.0154131
0.000287499
-0.0154108
-0.000281456
0.0154563
0.000236018
-0.0153996
-0.000205251
0.0154285
0.00017635
-0.0153673
-0.000144418
0.0154008
0.000110852
-0.0153472
-7.48686e-05
0.0153842
3.78646e-05
-0.0153431
-3.10435e-09
0.0153809
-3.78583e-05
-0.0153554
7.48625e-05
0.0153914
-0.000110845
-0.0153826
0.000144413
0.0154145
-0.000176344
-0.0154146
0.000205245
0.0154454
-0.000236013
-0.0154623
0.000281452
0.0154683
-0.000287496
-0.00063119
0.0310795
-0.0156058
-0.0150917
5.15792e-05
0.000197616
-0.000588605
0.0311518
-0.000566014
0.0312097
-0.000538812
0.031264
-0.000503093
0.0313146
-0.000460208
0.0313601
-0.000412424
0.0313998
-0.000361743
0.0314334
-0.000309655
0.0314613
-0.000257155
0.0314838
-0.000204832
0.0315016
-0.000152968
0.0315151
-0.000101619
0.0315249
-5.06928e-05
0.0315312
0.0315342
4.49861e-05
0.0314893
8.99811e-05
0.0314862
0.000134954
0.0314799
0.000179794
0.0314703
0.000224261
0.0314571
0.000267947
0.0314401
0.000310227
0.031419
0.000350232
0.0313934
0.000386857
0.0313632
0.000418865
0.0313281
0.000445185
0.0312883
0.000465558
0.0312436
0.000481612
0.0311936
0.000497422
0.031136
0.00051275
0.0310642
0.000221139
0.0309654
-0.0150752
-0.0155986
0.000231096
0.030977
-0.0154996
-0.0154873
0.000174551
0.0309544
-0.0154521
-0.0154458
9.2437e-05
0.0309319
-0.0154267
-0.0154231
4.93083e-09
0.0309191
-0.0154139
-0.0154127
-9.24276e-05
0.0309191
-0.0154127
-0.0154139
-0.000174541
0.0309319
-0.0154231
-0.0154267
-0.000231088
0.0309544
-0.0154458
-0.0154521
-0.000221132
0.030977
-0.0154873
-0.0154996
-0.000512743
0.0309654
-0.0155986
-0.0150751
-0.000497417
0.0310642
-0.00048161
0.031136
-0.000465557
0.0311936
-0.000445186
0.0312436
-0.000418866
0.0312883
-0.000386858
0.0313281
-0.000350233
0.0313632
-0.000310229
0.0313934
-0.000267949
0.031419
-0.000224262
0.0314401
-0.000179796
0.0314571
-0.000134955
0.0314703
-8.99823e-05
0.0314799
-4.49862e-05
0.0314862
0.0314893
3.92631e-05
0.03145
7.83846e-05
0.031447
0.000117191
0.0314411
0.000155445
0.031432
0.000192814
0.0314198
0.000228841
0.0314041
0.000262921
0.0313849
0.000294293
0.031362
0.000322046
0.0313354
0.00034516
0.031305
0.000362561
0.0312709
0.00037309
0.0312331
0.000375072
0.0311916
0.000364538
0.0311465
0.000330092
0.0310986
0.000242495
0.031053
0.000189382
0.0310301
0.000132905
0.0310109
6.87821e-05
0.030996
3.9843e-09
0.0309879
-6.87741e-05
0.0309879
-0.000132897
0.030996
-0.000189375
0.0310109
-0.000242488
0.0310301
-0.000330086
0.031053
-0.000364534
0.0310986
-0.000375069
0.0311465
-0.000373088
0.0311916
-0.000362561
0.0312331
-0.000345161
0.0312709
-0.000322047
0.031305
-0.000294294
0.0313354
-0.000262922
0.031362
-0.000228842
0.0313849
-0.000192815
0.0314041
-0.000155446
0.0314198
-0.000117192
0.031432
-7.83851e-05
0.0314411
-3.92631e-05
0.031447
0.03145
3.3802e-05
0.0314162
6.73708e-05
0.0314135
0.000100449
0.031408
0.000132733
0.0313998
0.000163849
0.0313886
0.000193334
0.0313746
0.000220626
0.0313576
0.000245048
0.0313376
0.000265814
0.0313146
0.000282025
0.0312888
0.000292648
0.0312603
0.000296431
0.0312293
0.000291678
0.0311964
0.000275884
0.0311623
0.00024574
0.0311288
0.000200066
0.0310987
0.000153892
0.0310762
0.0001054
0.0310594
5.37373e-05
0.0310477
3.34977e-09
0.0310416
-5.37307e-05
0.0310416
-0.000105394
0.0310477
-0.000153886
0.0310594
-0.000200061
0.0310762
-0.000245735
0.0310987
-0.000275881
0.0311288
-0.000291676
0.0311623
-0.000296429
0.0311964
-0.000292647
0.0312293
-0.000282025
0.0312603
-0.000265814
0.0312888
-0.000245048
0.0313146
-0.000220626
0.0313376
-0.000193335
0.0313576
-0.00016385
0.0313746
-0.000132734
0.0313886
-0.00010045
0.0313998
-6.73714e-05
0.031408
-3.3802e-05
0.0314135
0.0314162
2.87722e-05
0.0313874
5.72639e-05
0.031385
8.51775e-05
0.0313801
0.000112182
0.0313728
0.000137898
0.0313629
0.000161886
0.0313506
0.000183637
0.0313359
0.000202565
0.0313187
0.000218008
0.0312992
0.000229225
0.0312776
0.000235386
0.0312541
0.00023556
0.0312291
0.000228708
0.0312032
0.000213773
0.0311773
0.000190109
0.0311524
0.000158563
0.0311302
0.00012269
0.0311121
8.3759e-05
0.0310983
4.25235e-05
0.0310889
2.81851e-09
0.0310841
-4.25179e-05
0.0310841
-8.37536e-05
0.0310889
-0.000122685
0.0310983
-0.000158558
0.0311121
-0.000190104
0.0311302
-0.00021377
0.0311524
-0.000228705
0.0311773
-0.000235558
0.0312032
-0.000235385
0.0312291
-0.000229225
0.0312541
-0.000218008
0.0312776
-0.000202565
0.0312992
-0.000183637
0.0313187
-0.000161887
0.0313359
-0.000137899
0.0313506
-0.000112183
0.0313629
-8.51782e-05
0.0313728
-5.72643e-05
0.0313801
-2.87723e-05
0.031385
0.0313874
2.42613e-05
0.0313632
4.82263e-05
0.031361
7.15871e-05
0.0313567
9.40136e-05
0.0313503
0.000115144
0.0313418
0.000134577
0.0313312
0.000151868
0.0313186
0.000166527
0.031304
0.00017802
0.0312877
0.000185777
0.0312698
0.000189199
0.0312507
0.000187686
0.0312306
0.000180685
0.0312102
0.00016781
0.0311901
0.000149054
0.0311712
0.000125063
0.0311542
9.71456e-05
0.03114
6.63797e-05
0.0311291
3.36865e-05
0.0311216
2.40865e-09
0.0311178
-3.36818e-05
0.0311178
-6.6375e-05
0.0311216
-9.71412e-05
0.0311291
-0.000125059
0.03114
-0.00014905
0.0311542
-0.000167807
0.0311712
-0.000180683
0.0311901
-0.000187683
0.0312102
-0.000189197
0.0312306
-0.000185776
0.0312507
-0.00017802
0.0312698
-0.000166527
0.0312877
-0.000151868
0.031304
-0.000134577
0.0313186
-0.000115144
0.0313312
-9.4014e-05
0.0313418
-7.15876e-05
0.0313503
-4.82266e-05
0.0313567
-2.42615e-05
0.031361
0.0313632
2.02986e-05
0.0313429
4.03063e-05
0.031341
5.97249e-05
0.0313373
7.82427e-05
0.0313318
9.55289e-05
0.0313245
0.00011123
0.0313155
0.000124968
0.0313048
0.000136345
0.0312927
0.000144944
0.0312791
0.000150345
0.0312644
0.000152139
0.0312489
0.00014996
0.0312328
0.000143528
0.0312167