/*--------------------------------*- C++ -*----------------------------------*\
| =========                 |                                                 |
| \\      /  F ield         | OpenFOAM: The Open Source CFD Toolbox           |
|  \\    /   O peration     | Version:  v2106                                 |
|   \\  /    A nd           | Website:  www.openfoam.com                      |
|    \\/     M anipulation  |                                                 |
\*---------------------------------------------------------------------------*/
FoamFile
{
    version     2.0;
    format      ascii;
    arch        "LSB;label=32;scalar=64";
    class       volScalarField;
    location    "0";
    object      p;
}
// * * * * * * * * * * * * * * * * * * * * * * * * * * * * * * * * * * * * * //

dimensions      [0 2 -2 0 0 0 0];

internalField   nonuniform List<scalar> 
11644
(
27.6541
27.7484
27.9368
28.2183
28.5915
29.054
29.6024
30.2314
30.9338
31.6997
32.5162
33.3666
34.2303
35.0829
35.8964
36.6406
37.2845
37.7984
38.1569
38.3412
38.3413
38.1572
37.7989
37.2852
36.6415
35.8974
35.084
34.2315
33.3679
32.5175
31.701
30.9351
30.2327
29.6037
29.0553
28.5928
28.2196
27.938
27.7497
27.6553
27.4792
27.5743
27.7643
28.0485
28.426
28.8951
29.4529
30.0953
30.816
31.6061
32.4534
33.3418
34.2509
35.1551
36.0248
36.8266
37.5252
38.0863
38.4797
38.6826
38.6827
38.4801
38.0869
37.526
36.8275
36.0259
35.1563
34.2521
33.3431
32.4547
31.6074
30.8173
30.0966
29.4542
28.8963
28.4272
28.0497
27.7655
27.5755
27.4804
27.1289
27.2251
27.4176
27.7064
28.0915
28.5722
29.1474
29.8148
30.5701
31.4067
32.3146
33.2791
34.2801
35.2911
36.2786
37.2029
38.0198
38.6841
39.1544
39.3983
39.3985
39.1548
38.6848
38.0207
37.2039
36.2798
35.2924
34.2815
33.2805
32.316
31.4081
30.5714
29.8161
29.1487
28.5735
28.0927
27.7076
27.4188
27.2263
27.1301
26.6006
26.6978
26.8928
27.1864
27.5799
28.0745
28.6715
29.3715
30.1738
31.0756
32.071
33.1488
34.291
35.4705
36.6492
37.7777
38.7966
39.641
40.2475
40.5652
40.5654
40.2481
39.6418
38.7977
37.779
36.6506
35.472
34.2925
33.1503
32.0724
31.0771
30.1752
29.3728
28.6728
28.0758
27.5811
27.1876
26.894
26.699
26.6017
25.8923
25.9898
26.1856
26.4818
26.8812
27.3876
28.0053
28.739
29.5933
30.5716
31.6749
32.8992
34.2328
35.6513
37.1126
38.5551
39.8961
41.0378
41.8751
42.3196
42.3199
41.8758
41.0388
39.8974
38.5566
37.1142
35.653
34.2345
32.9008
31.6765
30.5731
29.5948
28.7404
28.0066
27.3888
26.8824
26.4829
26.1867
25.9909
25.8935
25.004
25.0997
25.2928
25.5862
25.9847
26.4947
27.1244
27.8835
28.7835
29.8366
31.0548
32.4475
34.0174
35.7528
37.6103
39.5199
41.3644
42.9977
44.2297
44.8963
44.8966
44.2307
42.9992
41.3663
39.522
37.6124
35.7548
34.0194
32.4493
31.0565
29.8382
28.785
27.8849
27.1257
26.4959
25.9859
25.5873
25.2938
25.1008
25.005
23.9385
24.0297
24.2143
24.4962
24.882
25.3806
26.004
26.7676
27.6906
28.7963
30.1121
31.6681
33.496
35.6282
38.0117
40.6041
42.1572
44.4852
46.3909
47.5847
47.8401
47.1042
45.5241
43.3753
40.6069
38.0144
35.6307
33.4983
31.6702
30.1139
28.798
27.6921
26.7689
26.0052
25.3818
24.8831
24.4973
24.2153
24.0307
23.9394
22.7041
22.7872
22.9557
23.2143
23.5707
24.0357
24.6244
25.3569
26.2598
27.3678
28.725
30.386
32.4138
34.5263
37.2629
40.4508
44.004
47.5695
50.7089
52.7765
53.2241
51.9192
49.234
45.8078
42.2189
38.8221
35.8509
32.4165
30.3883
28.7269
27.3694
26.2613
25.3582
24.6255
24.0367
23.5716
23.2152
22.9566
22.7881
22.705
21.3161
21.3868
21.5303
21.7516
22.0583
22.462
22.9787
23.631
24.4499
25.4785
26.7762
28.4256
30.5411
33.1193
36.3777
40.5139
44.779
50.1743
55.5437
59.591
60.8604
58.8032
54.2844
48.8085
43.5325
38.3289
34.6534
30.5439
28.4279
26.7781
25.48
24.4512
23.6321
22.9798
22.4629
22.0592
21.7524
21.5311
21.3875
21.3169
19.7975
19.8514
19.9611
20.1307
20.3668
20.6792
21.0824
21.5969
22.2523
23.0914
24.1773
25.6038
27.5138
30.408
33.8605
38.4357
44.4627
52.6557
62.4377
71.3384
74.8074
70.4289
61.1931
51.5299
43.0431
36.0845
31.9932
27.5165
25.6059
24.1789
23.0928
22.2534
21.5979
21.0833
20.68
20.3675
20.1314
19.9618
19.852
19.7981
18.1792
18.2129
18.2812
18.3869
18.5339
18.7286
18.9802
19.3022
19.7148
20.2481
20.9483
21.8881
23.1852
25.9761
28.8303
33.5892
40.5486
51.8517
69.446
93.1083
106.172
91.6782
68.1176
50.1188
38.5207
30.8097
27.2522
23.1872
21.8895
20.9494
20.249
19.7156
19.3029
18.9808
18.7291
18.5344
18.3874
18.2817
18.2133
18.1797
16.4988
16.5099
16.5324
16.5665
16.6129
16.6727
16.7475
16.8399
16.9538
17.0958
17.2759
17.5109
17.8293
19.8885
21.0426
24.1952
28.9206
37.9073
59.2483
57.2204
36.064
26.955
21.8911
20.3903
17.8299
17.5113
17.2763
17.0961
16.9542
16.8402
16.7478
16.673
16.6132
16.5668
16.5326
16.5102
16.4991
14.7977
14.786
14.7619
14.7233
14.6672
14.589
14.4822
14.3374
14.1409
13.8724
13.5011
12.9784
12.225
13.0699
11.9569
11.9157
10.8156
7.74017
-1.59644
-1.10775
8.07262
10.2386
11.1634
12.5698
12.224
12.9778
13.5007
13.8722
14.1408
14.3374
14.4822
14.589
14.6672
14.7233
14.762
14.7861
14.7978
13.1181
13.0853
13.018
12.9124
12.7621
12.5582
12.2872
11.9305
11.4609
10.8389
10.0058
8.87211
7.29778
6.93818
4.12937
1.38742
-4.09886
-15.5523
-36.502
-34.6908
-13.7067
-3.25271
2.19033
5.67394
7.29568
8.87066
10.0047
10.8381
11.4604
11.9301
12.287
12.558
12.762
12.9123
13.018
13.0853
13.118
11.499
11.4486
11.3452
11.1838
10.9564
10.6511
10.2509
9.73241
9.06268
8.19568
7.06625
5.58104
3.60455
2.45627
-0.939519
-4.62991
-10.6557
-20.1652
-32.7887
-45.6739
-52.0072
-44.2875
-31.0996
-18.805
-9.41774
-3.13351
0.897357
3.60205
5.57919
7.06486
8.19463
9.06187
9.73179
10.2504
10.6507
10.9561
11.1836
11.3449
11.4484
11.4989
9.97339
9.90963
9.77947
9.57747
9.29495
8.91942
8.43357
7.81401
7.02941
6.0381
4.78515
3.19922
1.19092
-0.278373
-3.47214
-7.55419
-12.0237
-18.0744
-24.3487
-29.2473
-30.8098
-28.2689
-22.837
-16.5045
-10.6508
-5.39548
-1.77725
1.18851
3.19731
4.78363
6.03689
7.02844
7.81323
8.43293
8.91888
9.2945
9.57708
9.77912
9.90931
9.97308
8.56567
8.49351
8.34667
8.12003
7.80553
7.3918
6.86358
6.20097
5.3786
4.36469
3.12029
1.59891
-0.253302
-2.49643
-4.38765
-7.47334
-10.7152
-14.4685
-17.9116
-20.3269
-21.0526
-19.8619
-17.1203
-13.5376
-9.17525
-5.87404
-2.49892
-0.255421
1.59713
3.11881
4.36346
5.37757
6.2001
6.86284
7.39117
7.80498
8.11954
8.34623
8.49309
8.56526
7.29143
7.2155
7.06151
6.82511
6.49966
6.07599
5.54219
4.88351
4.08218
3.11777
1.96797
0.610657
-0.971785
-2.78357
-4.37602
-6.65152
-8.94809
-11.3442
-13.3822
-14.7291
-15.1213
-14.4749
-12.9266
-10.7676
-7.83805
-5.49342
-2.78554
-0.973557
0.609093
1.96661
3.11659
4.08116
4.88262
5.54142
6.0753
6.49905
6.82456
7.06099
7.21501
7.29096
6.15765
6.0819
5.92876
5.69494
5.37551
4.96388
4.45187
3.82993
3.08749
2.21387
1.19961
0.0389704
-1.26625
-2.70101
-3.97985
-5.64669
-7.28499
-8.87047
-10.1564
-10.9764
-11.2109
-10.8235
-9.87377
-8.49648
-6.48219
-4.80919
-2.70255
-1.2677
0.0376347
1.1984
2.21278
3.08652
3.82906
4.45109
4.96317
5.37487
5.69434
5.9282
6.08136
6.15713
5.164
5.09145
4.94523
4.72313
4.42191
4.03745
3.56493
2.99923
2.3355
1.57012
0.702014
-0.265353
-1.32142
-2.44547
-3.45573
-4.6833
-5.86966
-6.95634
-7.81038
-8.34269
-8.49322
-8.24412
-7.62472
-6.70345
-5.28147
-4.07233
-2.44668
-1.3226
-0.266479
0.700961
1.56915
2.33461
2.99841
3.56418
4.03675
4.42126
4.72252
4.94465
5.09089
5.16345
4.30456
4.23728
4.10206
3.89766
3.6223
3.27392
2.85036
2.34985
1.77156
1.11636
0.387981
-0.405701
-1.25101
-2.12673
-2.92345
-3.83748
-4.7119
-5.47977
-6.07048
-6.4332
-6.53503
-6.36641
-5.94311
-5.30292
-4.27259
-3.38653
-2.12769
-1.25198
-0.406645
0.387073
1.1155
1.77074
2.34909
2.84964
3.27324
3.62167
3.89705
4.10148
4.23671
4.304
3.56956
3.50876
3.38688
3.20343
2.95779
2.64942
2.27812
1.84437
1.34983
0.797946
0.194691
-0.450615
-1.12446
-1.80848
-2.47952
-3.12561
-3.74445
-4.26508
-4.65097
-4.87506
-4.92085
-4.7849
-4.47736
-4.02038
-3.44569
-2.48024
-1.80925
-1.12525
-0.451408
0.193911
0.797188
1.3491
1.84367
2.27745
2.64878
2.95718
3.20284
3.38631
3.5082
3.56901
2.94703
2.89322
2.7856
2.62422
2.4093
2.14133
1.82138
1.45131
1.03415
0.574529
0.0791447
-0.44279
-0.979124
-1.51452
-2.0304
-2.50516
-2.92244
-3.25712
-3.4916
-3.61248
-3.61255
-3.4918
-3.25744
-2.92286
-2.50567
-2.03098
-1.51515
-0.979779
-0.443458
0.078474
0.573866
1.0335
1.45068
1.82077
2.14074
2.40872
2.62366
2.78505
2.89268
2.94649
2.42404
2.37721
2.28375
2.14407
1.9589
1.7294
1.45736
1.14534
0.796982
0.417247
0.0126781
-0.408363
-0.835554
-1.25663
-1.65766
-2.02372
-2.34035
-2.59271
-2.76852
-2.85882
-2.85887
-2.76867
-2.59296
-2.34068
-2.02413
-1.65813
-1.25714
-0.836101
-0.408931
0.0120996
0.416666
0.796404
1.14477
1.4568
1.72885
1.95836
2.14354
2.28323
2.3767
2.42352
1.98766
1.94747
1.86739
1.74805
1.59048
1.39618
1.16726
0.906566
0.617845
0.305884
-0.0233416
-0.362585
-0.703319
-1.03585
-1.3496
-1.63359
-1.87703
-2.06982
-2.2035
-2.27196
-2.272
-2.20362
-2.07002
-1.8773
-1.63392
-1.34999
-1.03628
-0.70378
-0.36307
-0.0238425
0.305374
0.617331
0.906052
1.16675
1.39567
1.58998
1.74755
1.8669
1.94698
1.98717
1.62561
1.5915
1.52364
1.42275
1.28999
1.12698
0.935919
0.719631
0.481681
0.226442
-0.0408459
-0.314064
-0.586266
-0.849813
-1.09661
-1.31845
-1.5074
-1.65627
-1.7591
-1.81164
-1.81168
-1.7592
-1.65643
-1.50762
-1.31872
-1.09693
-0.850175
-0.586659
-0.314481
-0.0412816
0.225994
0.481225
0.71917
0.935456
1.12652
1.28952
1.42229
1.52318
1.59105
1.62516
1.32666
1.29797
1.24097
1.1564
1.04543
0.909673
0.751233
0.572759
0.377489
0.169278
-0.0473909
-0.267431
-0.485227
-0.694758
-0.889792
-1.06413
-1.21189
-1.32784
-1.4077
-1.44843
-1.44845
-1.40778
-1.32798
-1.21208
-1.06436
-0.890065
-0.695066
-0.485564
-0.267793
-0.0477715
0.168883
0.377083
0.572346
0.750814
0.909252
1.04501
1.15598
1.24055
1.29755
1.32624
1.08077
1.05682
1.00928
0.938882
0.846723
0.734316
0.603596
0.45695
0.297228
0.127752
-0.0477053
-0.224957
-0.399478
-0.56652
-0.721254
-0.858957
-0.975221
-1.06616
-1.12865
-1.16048
-1.1605
-1.12872
-1.06628
-0.975378
-0.859154
-0.721486
-0.566784
-0.39977
-0.225271
-0.0480392
0.127402
0.296867
0.456579
0.603218
0.733933
0.846337
0.938493
1.00889
1.05643
1.08037
0.879162
0.859293
0.819885
0.761605
0.685465
0.592826
0.485414
0.365321
0.235006
0.097283
-0.0447047
-0.187534
-0.327566
-0.461047
-0.584214
-0.693439
-0.785376
-0.857112
-0.906311
-0.931341
-0.931361
-0.906371
-0.85721
-0.785511
-0.693608
-0.584414
-0.461275
-0.32782
-0.187809
-0.0449987
0.0969735
0.234683
0.364988
0.485073
0.592479
0.685113
0.76125
0.819528
0.858934
0.878803
0.714309
0.697904
0.665389
0.617363
0.55472
0.47866
0.390685
0.292595
0.186481
0.0747005
-0.0401508
-0.155284
-0.267776
-0.374649
-0.472959
-0.559895
-0.632893
-0.689738
-0.728668
-0.748456
-0.748473
-0.728719
-0.689822
-0.633009
-0.560041
-0.473132
-0.374848
-0.267998
-0.155526
-0.0404106
0.0744258
0.186194
0.292297
0.390378
0.478346
0.554401
0.61704
0.665064
0.697576
0.71398
0.579798
0.566307
0.539585
0.500153
0.448789
0.386529
0.314661
0.234711
0.148436
0.0577956
-0.0350781
-0.127919
-0.218378
-0.304091
-0.382738
-0.45213
-0.510283
-0.555497
-0.586425
-0.602135
-0.60215
-0.586469
-0.555569
-0.510384
-0.452257
-0.382889
-0.304265
-0.218574
-0.128132
-0.0353082
0.0575511
0.14818
0.234444
0.314385
0.386246
0.4485
0.49986
0.539289
0.566009
0.579499
0.47024
0.459182
0.437289
0.405009
0.363009
0.31217
0.253581
0.188526
0.118466
0.0450192
-0.0300676
-0.104957
-0.177763
-0.246599
-0.309634
-0.365151
-0.411603
-0.447674
-0.472326
-0.484841
-0.484854
-0.472364
-0.447738
-0.411691
-0.365262
-0.309767
-0.246752
-0.177935
-0.105146
-0.030272
0.0448013
0.118236
0.188286
0.253333
0.311915
0.362748
0.404744
0.437021
0.458911
0.469968
0.381135
0.372095
0.354205
0.327844
0.293576
0.252145
0.204461
0.151595
0.0947568
0.035276
-0.0254225
-0.0858501
-0.14449
-0.199836
-0.250436
-0.294936
-0.332123
-0.360971
-0.380672
-0.39067
-0.390681
-0.380706
-0.361027
-0.332201
-0.295033
-0.250553
-0.199971
-0.144642
-0.086018
-0.0256044
0.0350815
0.0945513
0.15138
0.204238
0.251915
0.293341
0.327604
0.353961
0.371849
0.380888
0.30875
0.301375
0.286786
0.265301
0.237393
0.203682
0.164926
0.122012
0.0759344
0.0277843
-0.0212787
-0.07005
-0.117309
-0.16185
-0.202519
-0.238244
-0.268068
-0.291185
-0.306963
-0.314967
-0.314977
-0.306992
-0.291234
-0.268136
-0.23833
-0.202623
-0.16197
-0.117444
-0.0701993
-0.0214409
0.0276106
0.0757504
0.121819
0.164726
0.203475
0.237181
0.265084
0.286566
0.301153
0.308526
0.250004
0.243999
0.232122
0.214639
0.191943
0.164549
0.133083
0.0982764
0.0609456
0.0219809
-0.0176749
-0.0570472
-0.0951533
-0.131028
-0.163748
-0.192464
-0.216417
-0.234972
-0.247629
-0.25405
-0.254058
-0.247656
-0.235015
-0.216477
-0.19254
-0.16384
-0.131134
-0.0952736
-0.0571803
-0.0178197
0.0218255
0.0607807
0.0981031
0.132903
0.164362
0.191751
0.214443
0.231923
0.243798
0.249802
0.202364
0.197481
0.187826
0.173618
0.155182
0.132944
0.10742
0.0792087
0.0489788
0.0174554
-0.0145957
-0.0463865
-0.0771253
-0.106037
-0.132385
-0.15549
-0.174751
-0.189663
-0.199833
-0.20499
-0.204998
-0.199856
-0.189702
-0.174805
-0.155558
-0.132467
-0.106132
-0.0772326
-0.0465053
-0.0147252
0.0173163
0.0488309
0.0790531
0.107258
0.132776
0.155009
0.173441
0.187646
0.1973
0.202182
0.163756
0.15979
0.151949
0.140415
0.125454
0.107417
0.0867273
0.0638742
0.0394038
0.013906
-0.0119982
-0.0376715
-0.062476
-0.085789
-0.10702
-0.125626
-0.141129
-0.153126
-0.161306
-0.165453
-0.16546
-0.161326
-0.153161
-0.141177
-0.125687
-0.107093
-0.0858736
-0.0625717
-0.0377777
-0.012114
0.0137813
0.0392711
0.0637345
0.0865814
0.107266
0.125299
0.140255
0.151787
0.159626
0.163592
0.132483
0.129265
0.122904
0.113547
0.101417
0.086797
0.0700351
0.0515308
0.0317287
0.0111081
-0.00982768
-0.0305635
-0.050585
-0.0693913
-0.0865086
-0.101502
-0.11399
-0.123651
-0.130235
-0.133574
-0.13358
-0.130254
-0.123681
-0.114032
-0.101556
-0.0865736
-0.0694669
-0.0506706
-0.0306585
-0.00993141
0.0109964
0.0316097
0.0514053
0.0699039
0.0866609
0.101276
0.113404
0.122758
0.129118
0.132335
0.107163
0.104554
0.099396
0.0918122
0.0819818
0.0701386
0.0565654
0.0415877
0.0255673
0.0088932
-0.00802701
-0.0247769
-0.0409414
-0.0561175
-0.0699245
-0.0820138
-0.092079
-0.0998636
-0.105169
-0.107859
-0.107864
-0.105185
-0.0998908
-0.0921168
-0.0820619
-0.0699825
-0.0561851
-0.041018
-0.0248619
-0.00811997
0.00879298
0.0254605
0.041475
0.0564474
0.0700162
0.0818557
0.091683
0.0992646
0.104421
0.107029
0.0866693
0.0845547
0.0803757
0.0742319
0.0662698
0.05668
0.0456928
0.0335732
0.0206149
0.00713335
-0.0065414
-0.0200728
-0.0331259
-0.045376
-0.056517
-0.0662688
-0.0743857
-0.0806621
-0.0849389
-0.0871074
-0.0871123
-0.0849536
-0.0806864
-0.0744195
-0.0663118
-0.0565689
-0.0454365
-0.0331945
-0.020149
-0.00662475
0.00704343
0.020519
0.033472
0.0455868
0.0565699
0.0661562
0.0741156
0.0802574
0.084435
0.0865489
0.0700864
0.0683737
0.0649893
0.0600143
0.053568
0.0458057
0.0369146
0.02711
0.0166301
0.00573077
-0.00532101
-0.0162532
-0.0267954
-0.036686
-0.0456784
-0.0535476
-0.0600961
-0.0651589
-0.0686085
-0.0703575
-0.0703619
-0.0686216
-0.0651807
-0.0601263
-0.0535861
-0.0457249
-0.0367402
-0.0268569
-0.0163215
-0.00539577
0.00565007
0.016544
0.027019
0.0368193
0.0457067
0.0534659
0.0599096
0.0648828
0.068266
0.069978
0.0566711
0.0552845
0.0525447
0.0485176
0.0433003
0.0370191
0.0298259
0.0218956
0.0134212
0.00461005
-0.00432187
-0.0131547
-0.0216701
-0.0296572
-0.0369173
-0.0432692
-0.0485541
-0.0526395
-0.0554229
-0.0568343
-0.0568383
-0.0554347
-0.052659
-0.0485812
-0.0433036
-0.0369589
-0.0297058
-0.0217252
-0.013216
-0.00438896
0.0045376
0.0133439
0.0218138
0.0297403
0.0369301
0.0432085
0.0484234
0.0524488
0.0551875
0.0565735
0.0458203
0.0446981
0.0424808
0.0392219
0.0350005
0.0299189
0.0241006
0.0176872
0.0108353
0.00371262
-0.00350606
-0.010643
-0.0175221
-0.023973
-0.0298356
-0.034964
-0.0392304
-0.0425282
-0.0447749
-0.0459142
-0.0459177
-0.0447854
-0.0425456
-0.0392547
-0.0349949
-0.029873
-0.0240166
-0.0175716
-0.010698
-0.00356629
0.00364756
0.0107659
0.0176138
0.0240236
0.0298389
0.0349179
0.0391373
0.0423945
0.0446108
0.0457325
0.037045
0.036137
0.034343
0.0317065
0.0282916
0.0241814
0.0194758
0.0142899
0.00875025
0.00299269
-0.00284139
-0.00860839
-0.014166
-0.0193769
-0.0241118
-0.0282532
-0.0316982
-0.0343608
-0.0361747
-0.0370948
-0.0370979
-0.0361842
-0.0343764
-0.0317199
-0.0282809
-0.0241453
-0.0194159
-0.0142104
-0.00865776
-0.00289546
0.00293427
0.00868783
0.0142239
0.0194067
0.0241094
0.0282174
0.0316304
0.0342655
0.0360585
0.0369661
0.0299491
0.0292146
0.0277634
0.0256308
0.0228688
0.0195447
0.0157396
0.0115466
0.0070682
0.0024143
-0.00230077
-0.00696095
-0.0114513
-0.0156609
-0.0194856
-0.0228305
-0.0256127
-0.027763
-0.0292279
-0.029971
-0.0299738
-0.0292363
-0.027777
-0.0256322
-0.0228554
-0.0195157
-0.015696
-0.0114911
-0.00700528
-0.00234933
0.00236182
0.00701213
0.0114873
0.0156775
0.01948
0.022802
0.0255623
0.0276936
0.029144
0.0298781
0.0242116
0.0236176
0.0224439
0.0207192
0.0184856
0.0157976
0.012721
0.00933102
0.00571075
0.00194904
-0.00186167
-0.00562757
-0.00925584
-0.0126569
-0.0157467
-0.0184487
-0.0206959
-0.0224327
-0.023616
-0.0242163
-0.0242189
-0.0236236
-0.0224453
-0.0207134
-0.018471
-0.0157736
-0.0126884
-0.00929159
-0.00566738
-0.00190528
0.00190189
0.00566037
0.00927771
0.0126651
0.0157395
0.0184255
0.0206576
0.0223812
0.0235541
0.0241478
0.019573
0.0190925
0.0181434
0.0167487
0.0149427
0.0127693
0.0102819
0.00754135
0.0046149
0.00157439
-0.00150543
-0.00454875
-0.00748059
-0.0102286
-0.0127249
-0.0149078
-0.0167232
-0.0181263
-0.0190822
-0.0195673
-0.0195696
-0.019089
-0.0181376
-0.0167389
-0.0149278
-0.0127491
-0.0102568
-0.00751269
-0.00458451
-0.00154461
0.00153203
0.00456963
0.00749345
0.0102316
0.012717
0.0148887
0.0166934
0.018087
0.0190355
0.0195155
0.0158228
0.0154344
0.0146669
0.0135392
0.012079
0.0103218
0.00831092
0.00609551
0.00372998
0.00127244
-0.00121668
-0.00367613
-0.00604531
-0.0082658
-0.0102828
-0.0120465
-0.0135132
-0.0146468
-0.0154192
-0.0158112
-0.0158132
-0.0154253
-0.0146569
-0.0135273
-0.0120644
-0.0103045
-0.00829117
-0.00607415
-0.00370825
-0.00125188
0.00123439
0.0036893
0.00605246
0.00826577
0.0102749
0.0120304
0.0134895
0.0146162
0.015383
0.0157712
0.0127912
0.0124771
0.0118566
0.0109449
0.00976429
0.00834377
0.00671815
0.00492732
0.00301524
0.00102891
-0.000982827
-0.00297046
-0.00488504
-0.00667937
-0.00830918
-0.00973426
-0.0109194
-0.0118354
-0.0124595
-0.0127764
-0.0127782
-0.012465
-0.0118445
-0.0109321
-0.00975042
-0.00832872
-0.00670216
-0.00491095
-0.00299932
-0.00101445
0.000994716
0.00297869
0.00488863
0.00667757
0.00830154
0.00972068
0.0109001
0.011811
0.0124309
0.0127447
0.0103404
0.0100865
0.00958483
0.00884777
0.00789337
0.00674503
0.00543094
0.00398335
0.00243784
0.000832375
-0.000793547
-0.00239991
-0.00394717
-0.00539719
-0.00671423
-0.0078658
-0.00882349
-0.00956366
-0.0100681
-0.0103242
-0.0103259
-0.010073
-0.00957184
-0.00883487
-0.00788031
-0.00673178
-0.00541766
-0.00397044
-0.00242584
-0.000821962
0.000801646
0.00240498
0.00394858
0.00539446
0.00670707
0.00785416
0.00880756
0.00954386
0.010045
0.0102987
0.0083593
0.00815402
0.00774848
0.00715264
0.00638111
0.00545284
0.00439061
0.00322051
0.0019713
0.000673676
-0.000640431
-0.00193869
-0.00318913
-0.00436096
-0.0054253
-0.00635591
-0.00712984
-0.00772802
-0.00813569
-0.00834281
-0.00834429
-0.00814012
-0.00773537
-0.00714007
-0.00636894
-0.00544106
-0.00437935
-0.00321004
-0.00196198
-0.000665964
0.000646062
0.00194177
0.00318926
0.00435782
0.00541872
0.00634587
0.00711649
0.00771165
0.00811673
0.00832178
0.00675786
0.00659192
0.00626409
0.00578243
0.00515876
0.0044084
0.00354978
0.00260399
0.00159428
0.000545472
-0.000516629
-0.00156589
-0.00257649
-0.00352353
-0.00438369
-0.00513578
-0.00576126
-0.00624471
-0.00657424
-0.00674172
-0.00674305
-0.00657822
-0.00625131
-0.00577044
-0.00514749
-0.00439785
-0.00354006
-0.00259528
-0.00158682
-0.000539575
0.000520656
0.00156774
0.0025759
0.00352031
0.00437773
0.00512708
0.00574994
0.00623098
0.0065584
0.00672414
0.00546334
0.0053292
0.0050642
0.00467485
0.00417072
0.00356419
0.00287016
0.00210568
0.00128956
0.000441859
-0.000416572
-0.00126461
-0.00208138
-0.00284678
-0.00354196
-0.0041498
-0.00465533
-0.00504609
-0.00531248
-0.00544792
-0.00544912
-0.00531605
-0.00505203
-0.00466358
-0.00416033
-0.00355469
-0.00286163
-0.00209827
-0.00128342
-0.000437192
0.000419556
0.00126571
0.00208044
0.00284367
0.00353662
0.00414225
0.00464564
0.00503444
0.00529907
0.00543303
0.00441692
0.00430849
0.00409428
0.00377956
0.00337206
0.0028818
0.00232081
0.0017029
0.00104325
0.00035809
-0.000335735
-0.00102115
-0.00168129
-0.00229991
-0.00286177
-0.00335305
-0.00376165
-0.00407751
-0.00429287
-0.00440243
-0.0044035
-0.00429608
-0.00408284
-0.00376907
-0.00336251
-0.00287321
-0.00231325
-0.00169646
-0.00103805
-0.000354267
0.000338045
0.00102182
0.00168021
0.00229701
0.00285702
0.00334647
0.00375331
0.00406753
0.00428141
0.00438967
0.00357106
0.00348341
0.00331026
0.00305586
0.00272648
0.0023302
0.00187676
0.00137731
0.000844132
0.000290339
-0.00027045
-0.000824438
-0.00135799
-0.00185799
-0.00231212
-0.00270921
-0.00303948
-0.00329482
-0.00346894
-0.00355756
-0.00355853
-0.00347182
-0.00329961
-0.00304615
-0.00271771
-0.0023224
-0.00186998
-0.00137163
-0.00083963
-0.000287105
0.000272324
0.000824868
0.00135691
0.00185536
0.00230793
0.00270347
0.00303227
0.00328621
0.00345906
0.00354656
0.00288729
0.00281645
0.00267649
0.00247086
0.00220462
0.0018843
0.00151779
0.0011141
0.000683142
0.000235526
-0.000217742
-0.000665512
-0.00109677
-0.0015009
-0.00186797
-0.00218894
-0.00245591
-0.00266233
-0.00280312
-0.00287482
-0.00287569
-0.00280571
-0.00266664
-0.0024619
-0.00219657
-0.0018772
-0.00151168
-0.00110902
-0.000679166
-0.000232711
0.000219334
0.000665827
0.00109577
0.00149856
0.00186429
0.00218394
0.00244965
0.00265487
0.00279456
0.00286527
0.00233457
0.0022773
0.00216417
0.00199796
0.00178276
0.00152385
0.0012276
0.000901299
0.000552965
0.000191165
-0.000175203
-0.000537127
-0.000885705
-0.00121236
-0.00150907
-0.00176852
-0.00198434
-0.00215122
-0.00226507
-0.00232309
-0.00232387
-0.0022674
-0.00215509
-0.00198972
-0.00177538
-0.00151737
-0.00122205
-0.000896719
-0.000549399
-0.000188657
0.000176611
0.000537402
0.000884823
0.00121031
0.00150586
0.00176417
0.0019789
0.00214474
0.00225763
0.00231477
0.00188776
0.00184147
0.00175003
0.00161568
0.00144173
0.00123245
0.000992997
0.000729248
0.000447692
0.000155252
-0.000140881
-0.000433424
-0.000715182
-0.000979226
-0.00121906
-0.0014288
-0.00160327
-0.0017382
-0.00183028
-0.00187723
-0.00187793
-0.00183237
-0.00174168
-0.00160811
-0.00143497
-0.00122652
-0.000987933
-0.000725081
-0.000444454
-0.000152974
0.00014217
0.000433703
0.000714438
0.000977457
0.00121628
0.00142502
0.00159854
0.00173256
0.00182378
0.00186996
0.00152656
0.00148914
0.00141523
0.00130664
0.00116603
0.000996873
0.00080332
0.000590132
0.000362549
0.000126168
-0.000113199
-0.000349666
-0.000577419
-0.000790858
-0.000984736
-0.00115429
-0.00129534
-0.00140445
-0.00147891
-0.00151692
-0.00151755
-0.0014808
-0.00140757
-0.00129969
-0.00115983
-0.000991441
-0.000798684
-0.000586317
-0.000359581
-0.000124069
0.000114409
0.000349974
0.000576819
0.000789352
0.000982334
0.00115101
0.00129123
0.00139953
0.00147325
0.00151056
0.00123456
0.00120432
0.00114457
0.00105679
0.000943143
0.00080641
0.00064996
0.000477636
0.000293678
0.000102606
-9.08806e-05
-0.000282026
-0.00046613
-0.000638667
-0.000795398
-0.000932471
-0.00104652
-0.00113474
-0.00119498
-0.00122575
-0.00122632
-0.00119667
-0.00113755
-0.00105043
-0.000937454
-0.000801426
-0.000645702
-0.000474128
-0.000290938
-0.000100652
9.20364e-05
0.000282375
0.00046567
0.000637403
0.000793342
0.000929642
0.00104295
0.00113046
0.00119003
0.00122018
0.000998499
0.000974053
0.00092576
0.000854807
0.00076294
0.000652417
0.000525954
0.000386661
0.000237961
8.35112e-05
-7.28929e-05
-0.000227406
-0.000376232
-0.000515711
-0.000642417
-0.000753239
-0.000845454
-0.0009168
-0.000965529
-0.00099045
-0.000990958
-0.00096705
-0.000919325
-0.000848967
-0.000757718
-0.000647836
-0.000522034
-0.000383421
-0.000235418
-8.16762e-05
7.401e-05
0.000227801
0.000375904
0.000514667
0.000640669
0.000750804
0.000842358
0.000913073
0.000961208
0.000985575
0.000807651
0.000787891
0.000748854
0.000691501
0.000617242
0.000527903
0.000425678
0.000313082
0.000192881
6.80301e-05
-5.84017e-05
-0.000183308
-0.000303618
-0.000416378
-0.000518816
-0.000608418
-0.000682984
-0.000740687
-0.000780112
-0.000800297
-0.000800754
-0.000781479
-0.000742956
-0.000686142
-0.000612444
-0.000523686
-0.000422062
-0.000310081
-0.000190509
-6.62974e-05
5.94891e-05
0.000183747
0.000303411
0.000415531
0.000517342
0.000606332
0.000680309
0.00073745
0.000776344
0.000796033
0.000653351
0.000637378
0.000605823
0.000559462
0.000499436
0.000427218
0.000344584
0.000253566
0.0001564
5.54735e-05
-4.67327e-05
-0.000147708
-0.00024497
-0.000336132
-0.000418954
-0.000491404
-0.000551704
-0.000598376
-0.000630278
-0.000646632
-0.000647043
-0.000631508
-0.000600417
-0.000554543
-0.000495024
-0.000423333
-0.000341242
-0.00025078
-0.000154181
-5.38306e-05
4.77954e-05
0.000148189
0.000244873
0.000335463
0.000417724
0.000489628
0.000549401
0.000595571
0.000626998
0.000642907
0.000528595
0.000515682
0.000490175
0.000452699
0.000404175
0.000345797
0.000278998
0.000205421
0.000126873
4.52842e-05
-3.7341e-05
-0.000118973
-0.000197606
-0.000271311
-0.000338277
-0.000396861
-0.000445628
-0.000483382
-0.0005092
-0.000522454
-0.000522823
-0.000510305
-0.000485216
-0.00044818
-0.000400115
-0.000342213
-0.000275904
-0.000202829
-0.000124793
-4.3722e-05
3.83815e-05
0.000119491
0.000197606
0.000270798
0.000337262
0.000395358
0.000443654
0.000480958
0.00050635
0.000519205
0.000427719
0.000417281
0.000396661
0.000366366
0.000327141
0.000279949
0.000225949
0.000166469
0.00010297
3.70115e-05
-2.97864e-05
-9.57831e-05
-0.000159358
-0.000218951
-0.0002731
-0.000320476
-0.000359918
-0.000390462
-0.00041136
-0.000422104
-0.000422436
-0.000412354
-0.000392111
-0.000362213
-0.000323401
-0.000276638
-0.000223081
-0.000164054
-0.000101015
-3.55231e-05
3.08058e-05
9.63338e-05
0.000159443
0.000218577
0.000272275
0.000319214
0.000358235
0.000388375
0.000408891
0.000419277
0.000346148
0.00033771
0.000321041
0.000296551
0.000264841
0.00022669
0.000183036
0.000134951
8.36158e-05
3.02912e-05
-2.37134e-05
-7.70721e-05
-0.000128475
-0.000176661
-0.000220448
-0.000258763
-0.000290667
-0.00031538
-0.000332299
-0.000341012
-0.00034131
-0.000333192
-0.000316863
-0.00029273
-0.000261393
-0.00022363
-0.000180374
-0.000132697
-8.17763e-05
-2.88711e-05
2.47118e-05
7.76493e-05
0.000128634
0.000176408
0.000219792
0.000257714
0.00028924
0.000313592
0.000330168
0.000338559
0.000280183
0.000273362
0.000259887
0.000240088
0.000214453
0.000183611
0.000148319
0.000109444
6.79407e-05
2.48283e-05
-1.88351e-05
-6.19779e-05
-0.000103541
-0.000142506
-0.000177917
-0.000208907
-0.000234716
-0.000254714
-0.000268414
-0.000275482
-0.00027575
-0.000269217
-0.000256047
-0.000236571
-0.000211272
-0.000180778
-0.000145845
-0.000107337
-6.62075e-05
-2.34724e-05
1.98119e-05
6.25763e-05
0.000103764
0.000142359
0.000177408
0.000208045
0.000233515
0.000253189
0.000266581
0.00027336
0.000226835
0.00022132
0.000210426
0.00019442
0.000173695
0.00014876
0.000120227
8.87975e-05
5.52421e-05
2.03845e-05
-1.49197e-05
-4.98043e-05
-8.34139e-05
-0.000114924
-0.000143564
-0.00016863
-0.000189511
-0.000205697
-0.000216792
-0.000222529
-0.00022277
-0.000217514
-0.000206895
-0.000191179
-0.000170757
-0.000146136
-0.000117926
-8.68268e-05
-5.36073e-05
-1.90892e-05
1.58741e-05
5.04187e-05
8.3691e-05
0.000114869
0.000143183
0.000167934
0.00018851
0.000204404
0.000215223
0.0002207
0.000183686
0.000179227
0.00017042
0.000157479
0.000140723
0.000120563
9.74943e-05
7.20826e-05
4.49515e-05
1.67669e-05
-1.178e-05
-3.9989e-05
-6.71685e-05
-9.26526e-05
-0.000115817
-0.000136095
-0.000152991
-0.000166093
-0.000175081
-0.000179739
-0.000179956
-0.000175731
-0.000167171
-0.000154491
-0.000138007
-0.00011813
-9.53517e-05
-7.02374e-05
-4.34086e-05
-1.55292e-05
1.27113e-05
4.06145e-05
6.7491e-05
9.26766e-05
0.000115549
0.000135543
0.000152165
0.000165005
0.000173745
0.00017817
0.000148783
0.000145178
0.000138057
0.000127594
0.000114047
9.77468e-05
7.90944e-05
5.85474e-05
3.66096e-05
1.38191e-05
-9.26522e-06
-3.20775e-05
-5.40588e-05
-7.46707e-05
-9.34088e-05
-0.000109815
-0.000123488
-0.000134095
-0.000141379
-0.000145163
-0.000145358
-0.000141963
-0.000135065
-0.000124837
-0.000111534
-9.54885e-05
-7.70979e-05
-5.68184e-05
-3.51524e-05
-1.26365e-05
1.01723e-05
3.27098e-05
5.44187e-05
7.47623e-05
9.3238e-05
0.000109389
0.000122816
0.000133189
0.000140249
0.000143823
0.000120547
0.000117632
0.000111874
0.000103415
9.24606e-05
7.92809e-05
6.41988e-05
4.75843e-05
2.98446e-05
1.14148e-05
-7.25351e-06
-2.57029e-05
-4.34816e-05
-6.01544e-05
-7.53135e-05
-8.85885e-05
-9.96556e-05
-0.000108245
-0.000114149
-0.000117225
-0.0001174
-0.000114674
-0.000109117
-0.000100868
-9.01347e-05
-7.71837e-05
-6.2337e-05
-4.59631e-05
-2.8468e-05
-1.02851e-05
8.13552e-06
2.63379e-05
4.38717e-05
6.03035e-05
7.52266e-05
8.82726e-05
9.91187e-05
0.000107497
0.0001132
0.000116087
9.77013e-05
9.53447e-05
9.06889e-05
8.38484e-05
7.49909e-05
6.43335e-05
5.21375e-05
3.8702e-05
2.43562e-05
9.45162e-06
-5.64661e-06
-2.05687e-05
-3.49496e-05
-4.84374e-05
-6.07026e-05
-7.14456e-05
-8.04047e-05
-8.7362e-05
-9.21491e-05
-9.46508e-05
-9.48085e-05
-9.26213e-05
-8.81459e-05
-8.14953e-05
-7.28362e-05
-6.23844e-05
-5.04002e-05
-3.71812e-05
-2.30553e-05
-8.37276e-06
6.50271e-06
2.12028e-05
3.53635e-05
4.86346e-05
6.06879e-05
7.1225e-05
7.99854e-05
8.67528e-05
9.13595e-05
9.36916e-05
7.92146e-05
7.73089e-05
7.35441e-05
6.80126e-05
6.08498e-05
5.22315e-05
4.23687e-05
3.15032e-05
1.99011e-05
7.84658e-06
-4.36531e-06
-1.64356e-05
-2.80692e-05
-3.89817e-05
-4.89067e-05
-5.7602e-05
-6.4856e-05
-7.04926e-05
-7.43754e-05
-7.64115e-05
-7.65534e-05
-7.48001e-05
-7.11975e-05
-6.58367e-05
-5.88525e-05
-5.04192e-05
-4.07469e-05
-3.00761e-05
-1.86718e-05
-6.81685e-06