/*--------------------------------*- C++ -*----------------------------------*\
| =========                 |                                                 |
| \\      /  F ield         | OpenFOAM: The Open Source CFD Toolbox           |
|  \\    /   O peration     | Version:  v2106                                 |
|   \\  /    A nd           | Website:  www.openfoam.com                      |
|    \\/     M anipulation  |                                                 |
\*---------------------------------------------------------------------------*/
FoamFile
{
    version     2.0;
    format      ascii;
    arch        "LSB;label=32;scalar=64";
    class       volVectorField;
    location    "0";
    object      U;
}
// * * * * * * * * * * * * * * * * * * * * * * * * * * * * * * * * * * * * * //

dimensions      [0 1 -1 0 0 0 0];

internalField   nonuniform List<vector> 
11644
(
(1.00125 -0.000929387 0)
(1.00124 -0.00278445 0)
(1.00123 -0.00462742 0)
(1.00121 -0.00644752 0)
(1.00118 -0.00823005 0)
(1.00113 -0.00995463 0)
(1.00107 -0.0115936 0)
(1.00097 -0.0131104 0)
(1.00084 -0.0144586 0)
(1.00067 -0.0155812 0)
(1.00045 -0.0164115 0)
(1.00018 -0.0168754 0)
(0.999853 -0.0168961 0)
(0.999484 -0.0164013 0)
(0.999083 -0.0153337 0)
(0.998673 -0.0136625 0)
(0.998282 -0.011395 0)
(0.997946 -0.00858629 0)
(0.997697 -0.0053422 0)
(0.997565 -0.00181498 5.64367e-28)
(0.997565 0.00181059 -5.64367e-28)
(0.997697 0.00533799 0)
(0.997945 0.00858241 0)
(0.998282 0.0113916 0)
(0.998673 0.0136596 0)
(0.999083 0.0153314 0)
(0.999484 0.0163995 0)
(0.999852 0.0168948 0)
(1.00018 0.0168746 0)
(1.00045 0.0164111 0)
(1.00067 0.015581 0)
(1.00084 0.0144586 0)
(1.00097 0.0131106 0)
(1.00107 0.0115939 0)
(1.00113 0.00995494 0)
(1.00118 0.00823036 0)
(1.00121 0.00644779 0)
(1.00123 0.00462763 0)
(1.00124 0.00278458 0)
(1.00125 0.000929431 0)
(1.00382 -0.000950552 0)
(1.00381 -0.00284935 0)
(1.00378 -0.00474028 0)
(1.00373 -0.00661539 0)
(1.00364 -0.00846286 0)
(1.00351 -0.010265 0)
(1.00331 -0.0119966 0)
(1.00303 -0.0136226 0)
(1.00265 -0.0150969 0)
(1.00213 -0.0163603 0)
(1.00147 -0.0173408 0)
(1.00063 -0.0179543 0)
(0.999635 -0.0181091 0)
(0.998482 -0.0177133 0)
(0.997217 -0.0166868 0)
(0.995908 -0.0149765 0)
(0.99465 -0.0125728 0)
(0.993556 -0.00952484 0)
(0.992745 -0.00594896 0)
(0.992311 -0.00202516 -2.29479e-27)
(0.992311 0.00202034 2.29479e-27)
(0.992744 0.00594436 0)
(0.993555 0.00952066 0)
(0.994648 0.0125691 0)
(0.995906 0.0149735 0)
(0.997216 0.0166845 0)
(0.998481 0.0177116 0)
(0.999634 0.0181079 0)
(1.00063 0.0179536 0)
(1.00146 0.0173405 0)
(1.00213 0.0163603 0)
(1.00265 0.0150971 0)
(1.00303 0.0136229 0)
(1.00331 0.011997 0)
(1.00351 0.0102654 0)
(1.00364 0.00846323 0)
(1.00373 0.00661571 0)
(1.00378 0.00474052 0)
(1.00381 0.0028495 0)
(1.00382 0.000950603 0)
(1.00642 -0.000962042 0)
(1.00641 -0.0028867 0)
(1.00637 -0.00481222 0)
(1.0063 -0.00673674 0)
(1.00618 -0.00865474 0)
(1.00599 -0.0105551 0)
(1.00571 -0.0124189 0)
(1.00529 -0.0142166 0)
(1.00469 -0.0159055 0)
(1.00387 -0.017426 0)
(1.00279 -0.018699 0)
(1.0014 -0.0196245 0)
(0.9997 -0.0200828 0)
(0.997689 -0.0199416 0)
(0.995434 -0.0190709 0)
(0.99305 -0.0173644 0)
(0.990714 -0.0147682 0)
(0.988649 -0.011309 0)
(0.987095 -0.00711783 0)
(0.986259 -0.00243275 -4.6745e-27)
(0.986258 0.00242719 4.6745e-27)
(0.987094 0.00711258 0)
(0.988647 0.0113043 0)
(0.990712 0.0147642 0)
(0.993047 0.0173613 0)
(0.995431 0.0190686 0)
(0.997687 0.0199401 0)
(0.999698 0.0200819 0)
(1.0014 0.0196241 0)
(1.00279 0.018699 0)
(1.00387 0.0174263 0)
(1.00469 0.015906 0)
(1.00529 0.0142172 0)
(1.00571 0.0124194 0)
(1.00599 0.0105556 0)
(1.00618 0.00865522 0)
(1.0063 0.00673713 0)
(1.00637 0.00481252 0)
(1.00641 0.00288688 0)
(1.00642 0.000962102 0)
(1.00905 -0.000972484 0)
(1.00904 -0.00292219 0)
(1.00902 -0.00488543 0)
(1.00896 -0.00686936 0)
(1.00886 -0.00887827 0)
(1.00867 -0.0109117 0)
(1.00836 -0.0129618 0)
(1.00787 -0.0150103 0)
(1.00714 -0.0170237 0)
(1.0061 -0.0189472 0)
(1.00467 -0.0206978 0)
(1.00277 -0.0221565 0)
(1.00033 -0.0231628 0)
(0.99735 -0.0235171 0)
(0.993886 -0.0229987 0)
(0.990101 -0.021397 0)
(0.986275 -0.0185591 0)
(0.982792 -0.0144472 0)
(0.980115 -0.00920061 0)
(0.978653 -0.00316391 0)
(0.978653 0.00315704 0)
(0.980113 0.00919422 0)
(0.982789 0.0144417 0)
(0.986271 0.0185547 0)
(0.990097 0.0213938 0)
(0.993883 0.0229967 0)
(0.997347 0.0235161 0)
(1.00033 0.0231625 0)
(1.00276 0.0221567 0)
(1.00467 0.0206984 0)
(1.0061 0.018948 0)
(1.00714 0.0170246 0)
(1.00787 0.0150112 0)
(1.00836 0.0129626 0)
(1.00867 0.0109124 0)
(1.00886 0.00887891 0)
(1.00896 0.00686987 0)
(1.00902 0.0048858 0)
(1.00904 0.00292242 0)
(1.00905 0.000972559 0)
(1.0117 -0.000974297 0)
(1.01171 -0.00293273 0)
(1.01172 -0.00492035 0)
(1.01172 -0.00695582 0)
(1.01169 -0.00905656 0)
(1.01157 -0.0112373 0)
(1.01133 -0.0135077 0)
(1.01089 -0.0158691 0)
(1.01017 -0.018308 0)
(1.00906 -0.020788 0)
(1.00742 -0.0232359 0)
(1.00511 -0.0255244 0)
(1.00197 -0.0274481 0)
(0.997904 -0.0287064 0)
(0.992937 -0.0289302 0)
(0.987228 -0.0277165 0)
(0.981199 -0.0247076 0)
(0.975443 -0.0196861 0)
(0.970882 -0.0127467 0)
(0.96834 -0.00442168 -1.00422e-26)
(0.968338 0.00441258 1.00422e-26)
(0.970879 0.0127385 0)
(0.975438 0.0196793 0)
(0.981193 0.0247026 0)
(0.987222 0.0277134 0)
(0.992932 0.0289286 0)
(0.9979 0.0287061 0)
(1.00197 0.0274487 0)
(1.00511 0.0255255 0)
(1.00742 0.0232373 0)
(1.00906 0.0207895 0)
(1.01017 0.0183095 0)
(1.01089 0.0158704 0)
(1.01133 0.0135089 0)
(1.01157 0.0112383 0)
(1.01169 0.00905739 0)
(1.01173 0.00695646 0)
(1.01173 0.0049208 0)
(1.01171 0.00293301 0)
(1.0117 0.000974387 0)
(1.01433 -0.000958042 0)
(1.01437 -0.0028894 0)
(1.01445 -0.00486672 0)
(1.01456 -0.00692161 0)
(1.01466 -0.00908702 0)
(1.01471 -0.011397 0)
(1.01466 -0.0138856 0)
(1.01444 -0.0165844 0)
(1.01393 -0.0195166 0)
(1.01299 -0.0226878 0)
(1.01142 -0.0260685 0)
(1.00898 -0.029565 0)
(1.00534 -0.0329631 0)
(1.00012 -0.035808 0)
(0.993361 -0.0375184 0)
(0.984951 -0.0373556 0)
(0.975562 -0.0345941 0)
(0.966079 -0.028469 0)
(0.958232 -0.018854 0)
(0.953712 -0.00662091 -2.13581e-26)
(0.95371 0.00660802 2.13581e-26)
(0.958226 0.0188427 0)
(0.966071 0.0284604 0)
(0.975553 0.0345886 0)
(0.984942 0.0373529 0)
(0.993353 0.0375181 0)
(1.00011 0.0358092 0)
(1.00534 0.0329653 0)
(1.00897 0.0295675 0)
(1.01142 0.026071 0)
(1.01299 0.0226902 0)
(1.01393 0.0195187 0)
(1.01444 0.0165862 0)
(1.01466 0.0138872 0)
(1.01471 0.0113983 0)
(1.01466 0.00908803 0)
(1.01456 0.00692238 0)
(1.01446 0.00486726 0)
(1.01437 0.00288972 0)
(1.01433 0.000958147 0)
(1.01687 -0.000913682 0)
(1.01697 -0.00276113 0)
(1.01715 -0.00466963 0)
(1.0174 -0.00668306 0)
(1.01771 -0.0088502 0)
(1.01803 -0.0112264 0)
(1.01833 -0.0138751 0)
(1.01851 -0.016868 0)
(1.01848 -0.0202834 0)
(1.01807 -0.0242004 0)
(1.01703 -0.0286877 0)
(1.01505 -0.0337858 0)
(1.01167 -0.0395133 0)
(1.00514 -0.0449918 0)
(0.996681 -0.0495515 0)
(0.984854 -0.0526959 0)
(0.978266 -0.0446879 0)
(0.964226 -0.042686 0)
(0.950264 -0.0313543 0)
(0.940016 -0.0145865 -2.94927e-21)
(0.93645 0.00508332 0)
(0.940479 0.0237054 2.69619e-20)
(0.95046 0.0378579 0)
(0.963194 0.0462831 0)
(0.98484 0.0526957 0)
(0.996671 0.0495539 0)
(1.00513 0.0449959 0)
(1.01166 0.0395179 0)
(1.01505 0.0337903 0)
(1.01703 0.0286917 0)
(1.01807 0.0242039 0)
(1.01848 0.0202863 0)
(1.01852 0.0168704 0)
(1.01833 0.0138771 0)
(1.01803 0.011228 0)
(1.01771 0.00885138 0)
(1.0174 0.00668393 0)
(1.01715 0.00467023 0)
(1.01697 0.00276148 0)
(1.01688 0.000913797 0)
(1.01925 -0.000832307 0)
(1.0194 -0.00252002 0)
(1.0197 -0.00427849 0)
(1.02014 -0.00616031 0)
(1.02072 -0.00822681 0)
(1.02141 -0.0105522 0)
(1.02219 -0.0132284 0)
(1.023 -0.0163708 0)
(1.02375 -0.0201228 0)
(1.0243 -0.0246589 0)
(1.02441 -0.0301767 0)
(1.02369 -0.0368601 0)
(1.02155 -0.044645 0)
(1.01886 -0.0545619 0)
(1.01138 -0.0592113 0)
(0.998672 -0.0676098 0)
(0.973923 -0.0713953 0)
(0.949271 -0.0680189 0)
(0.923719 -0.0532484 0)
(0.904734 -0.0258718 3.24419e-21)
(0.9004 0.00883287 0)
(0.912837 0.0409457 -3.24436e-21)
(0.936231 0.0622573 0)
(0.962006 0.0708083 0)
(0.977018 0.0706781 0)
(0.993387 0.0634838 0)
(1.00439 0.0545687 0)
(1.02154 0.0446533 0)
(1.02369 0.0368672 0)
(1.02441 0.0301824 0)
(1.0243 0.0246635 0)
(1.02375 0.0201264 0)
(1.023 0.0163736 0)
(1.02219 0.0132306 0)
(1.02141 0.0105539 0)
(1.02072 0.00822807 0)
(1.02014 0.00616122 0)
(1.0197 0.0042791 0)
(1.0194 0.00252038 0)
(1.01925 0.000832424 0)
(1.02134 -0.00070833 0)
(1.02156 -0.00214812 0)
(1.02199 -0.00365919 0)
(1.02264 -0.00529606 0)
(1.02352 -0.00712475 0)
(1.02464 -0.00922922 0)
(1.02599 -0.0117201 0)
(1.02758 -0.0147466 0)
(1.02939 -0.0185133 0)
(1.03134 -0.0233032 0)
(1.0333 -0.0295093 0)
(1.03498 -0.0376741 0)
(1.03579 -0.0477772 0)
(1.02928 -0.0649226 0)
(1.02315 -0.0733167 0)
(1.00838 -0.0912137 0)
(0.994608 -0.102059 0)
(0.957849 -0.109917 0)
(0.908612 -0.0979164 6.93326e-21)
(0.861675 -0.0560461 0)
(0.841262 0.00874821 -3.75072e-21)
(0.859335 0.0696535 0)
(0.902097 0.10356 -5.43904e-20)
(0.946889 0.109231 0)
(0.980851 0.09832 0)
(1.0178 0.0824849 0)
(1.02685 0.0650756 0)
(1.03579 0.0477899 0)
(1.03498 0.0376838 0)
(1.0333 0.0295165 0)
(1.03134 0.0233086 0)
(1.02939 0.0185173 0)
(1.02758 0.0147495 0)
(1.02599 0.0117223 0)
(1.02464 0.00923086 0)
(1.02352 0.00712595 0)
(1.02264 0.00529691 0)
(1.02199 0.00365976 0)
(1.02156 0.00214844 0)
(1.02135 0.000708437 0)
(1.02304 -0.000541673 0)
(1.02332 -0.0016444 0)
(1.02387 -0.00280719 0)
(1.02471 -0.00407704 0)
(1.02588 -0.00551268 0)
(1.02742 -0.00719175 0)
(1.02936 -0.00922131 0)
(1.03177 -0.0117539 0)
(1.03475 -0.0150126 0)
(1.03836 -0.0193313 0)
(1.04272 -0.025221 0)
(1.04789 -0.0334779 0)
(1.05382 -0.0443948 0)
(1.052 -0.0702735 0)
(1.05344 -0.0817804 0)
(1.04243 -0.119019 0)
(1.01882 -0.148249 0)
(0.968106 -0.182361 0)
(0.874601 -0.197413 5.92162e-20)
(0.758558 -0.137234 0)
(0.705391 0.0103068 1.04712e-19)
(0.77177 0.150206 1.28274e-19)
(0.88845 0.1985 -5.69495e-20)
(0.9765 0.177919 0)
(1.02818 0.136856 0)
(1.05206 0.0961012 0)
(1.05316 0.0691302 0)
(1.05383 0.0444107 0)
(1.04789 0.0334889 0)
(1.04273 0.0252285 0)
(1.03837 0.0193365 0)
(1.03475 0.0150162 0)
(1.03178 0.0117565 0)
(1.02936 0.0092232 0)
(1.02742 0.00719311 0)
(1.02589 0.00551366 0)
(1.02472 0.00407772 0)
(1.02387 0.00280764 0)
(1.02332 0.00164466 0)
(1.02305 0.000541757 0)
(1.02424 -0.000339231 0)
(1.02456 -0.00102961 0)
(1.0252 -0.00175708 0)
(1.02619 -0.0025513 0)
(1.02758 -0.00345029 0)
(1.02944 -0.00450589 0)
(1.03185 -0.00579207 0)
(1.03494 -0.00741824 0)
(1.03891 -0.00955144 0)
(1.04402 -0.0124547 0)
(1.05066 -0.016556 0)
(1.05938 -0.0225761 0)
(1.07101 -0.030936 0)
(1.07827 -0.0629199 0)
(1.09457 -0.0714872 0)
(1.10327 -0.131861 0)
(1.10527 -0.196373 9.27959e-21)
(1.0777 -0.287695 -4.90602e-20)
(0.928905 -0.430729 -4.1602e-19)
(0.556693 -0.443263 -8.9683e-18)
(0.263775 0.0188838 0)
(0.585038 0.454102 -2.16007e-18)
(0.907855 0.422853 4.28995e-19)
(1.085 0.270376 2.29486e-20)
(1.11203 0.157007 -2.39113e-21)
(1.10424 0.088401 0)
(1.0859 0.0574791 0)
(1.07103 0.03095 0)
(1.05939 0.022585 0)
(1.05067 0.0165616 0)
(1.04403 0.0124584 0)
(1.03892 0.00955392 0)
(1.03495 0.00741995 0)
(1.03185 0.00579326 0)
(1.02944 0.00450673 0)
(1.02759 0.00345087 0)
(1.02619 0.0025517 0)
(1.0252 0.00175734 0)
(1.02456 0.00102976 0)
(1.02424 0.000339279 0)
(1.02486 -0.000114776 0)
(1.02519 -0.000346166 0)
(1.02587 -0.000583399 0)
(1.02693 -0.000831591 0)
(1.02843 -0.00109795 0)
(1.03043 -0.00139313 0)
(1.03307 -0.00173335 0)
(1.0365 -0.00214378 0)
(1.04097 -0.00266438 0)
(1.04687 -0.00336015 0)
(1.05474 -0.00434015 0)
(1.06548 -0.00579665 0)
(1.08054 -0.0078466 0)
(1.09739 -0.037871 0)
(1.12815 -0.0307877 0)
(1.16778 -0.0927044 0)
(1.23345 -0.162391 6.95425e-21)
(1.34407 -0.309821 -1.19077e-19)
(1.50235 -0.687425 6.82465e-18)
(1.49734 0.641806 -1.34792e-18)
(1.3366 0.227049 -7.97111e-21)
(1.22145 0.0948113 0)
(1.15005 0.0394092 0)
(1.11105 0.023759 0)
(1.08057 0.00785031 0)
(1.0655 0.00579887 0)
(1.05475 0.00434146 0)
(1.04687 0.00336094 0)
(1.04098 0.00266487 0)
(1.0365 0.00214409 0)
(1.03307 0.00173354 0)
(1.03044 0.00139325 0)
(1.02843 0.00109802 0)
(1.02694 0.000831634 0)
(1.02588 0.000583424 0)
(1.0252 0.000346179 0)
(1.02486 0.00011478 0)
(1.02486 0.000113085 0)
(1.02519 0.000348148 0)
(1.02585 0.000610694 0)
(1.02688 0.00092194 0)
(1.02832 0.00130806 0)
(1.03027 0.0018035 0)
(1.03281 0.0024562 0)
(1.03612 0.00333604 0)
(1.04042 0.00454943 0)
(1.04605 0.0062651 0)
(1.05351 0.00876168 0)
(1.0636 0.0125165 0)
(1.07757 0.0178515 0)
(1.09769 -0.00165763 0)
(1.12904 0.0273005 0)
(1.17881 -0.0012518 0)
(1.26925 0.00126059 0)
(1.45817 0.10656 -2.28734e-20)
(0.943002 0.149154 1.06443e-18)
(1.58536 -0.294277 -1.83557e-19)
(1.44276 -0.0966171 0)
(1.24261 -0.0539391 0)
(1.15132 -0.0350693 0)
(1.11165 -0.0216054 0)
(1.07759 -0.017861 0)
(1.06362 -0.0125224 0)
(1.05352 -0.00876544 0)
(1.04605 -0.00626759 0)
(1.04042 -0.00455116 0)
(1.03612 -0.00333727 0)
(1.03282 -0.00245709 0)
(1.03027 -0.00180416 0)
(1.02833 -0.00130853 0)
(1.02688 -0.000922278 0)
(1.02585 -0.00061092 0)
(1.02519 -0.000348278 0)
(1.02487 -0.000113128 0)
(1.02427 0.000324532 0)
(1.02455 0.000991696 0)
(1.02514 0.00171482 0)
(1.02604 0.00253717 0)
(1.02731 0.00351215 0)
(1.02898 0.00470975 0)
(1.03115 0.00622636 0)
(1.0339 0.00820015 0)
(1.0374 0.0108363 0)
(1.04182 0.0144496 0)
(1.04743 0.0195385 0)
(1.05456 0.0269151 0)
(1.06363 0.0369904 0)
(1.07893 0.0298641 0)
(1.09638 0.0692377 0)
(1.12374 0.0756092 0)
(1.15864 0.134492 0)
(1.17837 0.311475 1.08942e-22)
(1.09394 0.602505 0)
(1.10832 -0.578105 4.1592e-19)
(1.17863 -0.286914 0)
(1.1454 -0.149255 0)
(1.10669 -0.0859392 0)
(1.08718 -0.0558296 0)
(1.06364 -0.0370065 0)
(1.05456 -0.0269259 0)
(1.04744 -0.0195456 0)
(1.04183 -0.0144545 0)
(1.0374 -0.0108398 0)
(1.03391 -0.00820261 0)
(1.03115 -0.00622815 0)
(1.02898 -0.00471106 0)
(1.02731 -0.0035131 0)
(1.02605 -0.00253784 0)
(1.02514 -0.00171527 0)
(1.02456 -0.000991953 0)
(1.02427 -0.000324615 0)
(1.02314 0.00050255 0)
(1.02337 0.00153179 0)
(1.02384 0.00263543 0)
(1.02455 0.00387017 0)
(1.02553 0.00530459 0)
(1.02679 0.00702612 0)
(1.02838 0.00915109 0)
(1.03033 0.0118393 0)
(1.03266 0.015316 0)
(1.0354 0.0199051 0)
(1.03852 0.0260809 0)
(1.0419 0.0345497 0)
(1.04517 0.0454674 0)
(1.05261 0.0464791 0)
(1.05491 0.0805999 0)
(1.05737 0.0985787 0)
(1.04686 0.149313 0)
(0.996287 0.22538 -4.49786e-21)
(0.873346 0.276512 -6.29803e-21)
(0.682752 0.216872 -2.13169e-20)
(0.568987 -0.00888867 -2.00014e-20)
(0.706317 -0.23432 -3.10743e-19)
(0.893478 -0.273558 -1.17984e-19)
(1.00571 -0.216821 4.50039e-21)
(1.0473 -0.145833 0)
(1.05389 -0.0951418 0)
(1.05428 -0.0678824 0)
(1.04517 -0.0454827 0)
(1.0419 -0.0345609 0)
(1.03853 -0.0260889 0)
(1.03541 -0.0199109 0)
(1.03266 -0.0153202 0)
(1.03033 -0.0118425 0)
(1.02839 -0.00915343 0)
(1.0268 -0.00702786 0)
(1.02553 -0.00530586 0)
(1.02455 -0.00387108 0)
(1.02384 -0.00263604 0)
(1.02337 -0.00153214 0)
(1.02315 -0.000502665 0)
(1.02159 0.000635981 0)
(1.02176 0.00193431 0)
(1.02208 0.0033135 0)
(1.02256 0.00483382 0)
(1.02321 0.00656589 0)
(1.02401 0.00859612 0)
(1.02496 0.0110337 0)
(1.02603 0.0140194 0)
(1.02717 0.0177367 0)
(1.02827 0.022423 0)
(1.02915 0.0283774 0)
(1.02945 0.0359486 0)
(1.02859 0.0451765 0)
(1.02944 0.049673 0)
(1.02397 0.0725329 0)
(1.00894 0.09122 0)
(0.990521 0.113423 0)
(0.947597 0.127907 0)
(0.887618 0.119348 2.88159e-21)
(0.829538 0.0708603 -1.44759e-20)
(0.808899 -0.0108362 0)
(0.841944 -0.0869673 0)
(0.903542 -0.124713 -5.02568e-20)
(0.960116 -0.125671 0)
(0.998642 -0.108066 0)
(1.01858 -0.0819248 0)
(1.02753 -0.0639984 0)
(1.02858 -0.0451877 0)
(1.02945 -0.0359576 0)
(1.02915 -0.0283845 0)
(1.02827 -0.0224284 0)
(1.02717 -0.0177409 0)
(1.02603 -0.0140227 0)
(1.02496 -0.0110362 0)
(1.02401 -0.00859802 0)
(1.02321 -0.00656732 0)
(1.02256 -0.00483485 0)
(1.02208 -0.0033142 0)
(1.02176 -0.00193472 0)
(1.0216 -0.000636113 0)
(1.01975 0.000720712 0)
(1.01984 0.00218727 0)
(1.02002 0.00373044 0)
(1.02027 0.0054057 0)
(1.02059 0.00727554 0)
(1.02095 0.00941238 0)
(1.02131 0.0119018 0)
(1.02161 0.0148456 0)
(1.02175 0.0183636 0)
(1.02157 0.0225929 0)
(1.02083 0.0276827 0)
(1.01917 0.0337851 0)
(1.01606 0.0410368 0)
(1.00905 0.0481153 0)
(1.00548 0.0550996 0)
(0.992024 0.0663622 0)
(0.975328 0.0788597 0)
(0.949335 0.0746097 0)
(0.920465 0.0615445 0)
(0.897288 0.0333693 0)
(0.889849 -0.00495629 6.40967e-22)
(0.90194 -0.0416753 -2.02622e-20)
(0.927533 -0.0662118 0)
(0.956303 -0.075687 0)
(0.982855 -0.0695508 0)
(0.999511 -0.0619971 0)
(1.00904 -0.0481227 0)
(1.01605 -0.041044 0)
(1.01917 -0.0337915 0)
(1.02083 -0.0276882 0)
(1.02157 -0.0225974 0)
(1.02175 -0.0183673 0)
(1.02161 -0.0148486 0)
(1.02132 -0.0119042 0)
(1.02095 -0.00941423 0)
(1.02059 -0.00727695 0)
(1.02027 -0.00540674 0)
(1.02002 -0.00373115 0)
(1.01984 -0.00218769 0)
(1.01975 -0.000720848 0)
(1.01774 0.000759034 0)
(1.01776 0.00229854 0)
(1.01781 0.00390292 0)
(1.01787 0.00561757 0)
(1.01791 0.00749112 0)
(1.0179 0.00957614 0)
(1.01778 0.0119292 0)
(1.01749 0.0146093 0)
(1.01691 0.0176739 0)
(1.01589 0.02117 0)
(1.01421 0.0251156 0)
(1.01157 0.0294659 0)
(1.00755 0.0340442 0)
(1.00159 0.0382053 0)
(0.996465 0.0437431 0)
(0.98598 0.047138 0)
(0.974213 0.0543892 0)
(0.958769 0.0457374 0)
(0.943861 0.035137 0)
(0.933072 0.0181502 0)
(0.92979 -0.00265688 0)
(0.935166 -0.0228813 0)
(0.947342 -0.0384161 0)
(0.962681 -0.0473209 0)
(0.979671 -0.047682 0)
(0.991574 -0.0457298 0)
(1.00158 -0.0382089 0)
(1.00754 -0.0340483 0)
(1.01156 -0.02947 0)
(1.01421 -0.0251195 0)
(1.01589 -0.0211734 0)
(1.01691 -0.0176769 0)
(1.01749 -0.0146118 0)
(1.01778 -0.0119312 0)
(1.0179 -0.00957779 0)
(1.01791 -0.00749241 0)
(1.01787 -0.00561853 0)
(1.01781 -0.00390359 0)
(1.01776 -0.00229894 0)
(1.01774 -0.000759163 0)
(1.01567 0.000757785 0)
(1.01565 0.00228984 0)
(1.01559 0.00387132 0)
(1.01549 0.0055354 0)
(1.01532 0.00731542 0)
(1.01503 0.00924398 0)
(1.01458 0.0113512 0)
(1.0139 0.0136612 0)
(1.0129 0.0161859 0)
(1.01144 0.0189151 0)
(1.00937 0.0217996 0)
(1.0065 0.0247277 0)
(1.00263 0.0274913 0)
(0.997557 0.0296923 0)
(0.993016 0.0337551 0)
(0.985289 0.0336323 0)
(0.97724 0.0380839 0)
(0.967888 0.0294757 0)
(0.959598 0.0216834 0)
(0.95396 0.0108888 0)
(0.952298 -0.00158068 0)
(0.955033 -0.0137997 0)
(0.961478 -0.0239363 0)
(0.970175 -0.0308769 0)
(0.981017 -0.0331674 0)
(0.989292 -0.0334987 0)
(0.997552 -0.0296936 0)
(1.00262 -0.0274934 0)
(1.0065 -0.0247301 0)
(1.00937 -0.0218021 0)
(1.01144 -0.0189175 0)
(1.0129 -0.0161881 0)
(1.0139 -0.0136631 0)
(1.01458 -0.0113529 0)
(1.01503 -0.00924535 0)
(1.01532 -0.00731652 0)
(1.01549 -0.00553624 0)
(1.01559 -0.00387191 0)
(1.01565 -0.00229019 0)
(1.01567 -0.0007579 0)
(1.01366 0.000726141 0)
(1.01359 0.00218973 0)
(1.01346 0.00368684 0)
(1.01325 0.00523874 0)
(1.01293 0.00686488 0)
(1.01246 0.00858128 0)
(1.01181 0.0103981 0)
(1.01092 0.0123158 0)
(1.00972 0.01432 0)
(1.00811 0.0163729 0)
(1.00601 0.018404 0)
(1.00331 0.0202966 0)
(0.999918 0.021878 0)
(0.995794 0.022915 0)
(0.992152 0.0258818 0)
(0.986609 0.0243029 0)
(0.981095 0.0272365 0)
(0.97523 0.0198434 0)
(0.970312 0.0141944 0)
(0.967098 0.00700314 0)
(0.966168 -0.00101136 0)
(0.967701 -0.00890428 0)
(0.971406 -0.0157654 0)
(0.976631 -0.0209581 0)
(0.98371 -0.0235437 0)
(0.98943 -0.0246677 0)
(0.99579 -0.0229152 0)
(0.999915 -0.0218789 0)
(1.00331 -0.020298 0)
(1.00601 -0.0184055 0)
(1.00811 -0.0163745 0)
(1.00972 -0.0143215 0)
(1.01092 -0.0123172 0)
(1.01181 -0.0103993 0)
(1.01246 -0.00858235 0)
(1.01293 -0.00686576 0)
(1.01325 -0.00523942 0)
(1.01346 -0.00368733 0)
(1.01359 -0.00219002 0)
(1.01366 -0.000726237 0)
(1.01175 0.000673672 0)
(1.01167 0.00202766 0)
(1.01149 0.00340096 0)
(1.0112 0.00480472 0)
(1.0108 0.00624738 0)
(1.01024 0.00773284 0)
(1.00949 0.00925822 0)
(1.00852 0.0108108 0)
(1.00728 0.0123638 0)
(1.00571 0.0138718 0)
(1.00376 0.0152649 0)
(1.00138 0.0164431 0)
(0.998566 0.0172723 0)
(0.995319 0.0177202 0)
(0.992484 0.0199357 0)
(0.988522 0.017808 0)
(0.98473 0.0199413 0)
(0.980826 0.0138463 0)
(0.977759 0.00972269 0)
(0.975818 0.00474145 0)
(0.975277 -0.000683189 -1.85865e-31)
(0.976218 -0.00604284 0)
(0.978503 -0.0108434 0)
(0.981818 -0.0147055 0)
(0.986487 -0.017129 0)
(0.99058 -0.0183642 0)
(0.995316 -0.0177198 0)
(0.998563 -0.0172725 0)
(1.00138 -0.0164436 0)
(1.00376 -0.0152657 0)
(1.00571 -0.0138728 0)
(1.00728 -0.0123648 0)
(1.00852 -0.0108118 0)
(1.00949 -0.00925913 0)
(1.01024 -0.00773364 0)
(1.0108 -0.00624805 0)
(1.0112 -0.00480525 0)
(1.01149 -0.00340134 0)
(1.01167 -0.00202789 0)
(1.01175 -0.000673748 0)
(1.01001 0.000609011 0)
(1.00991 0.00182989 0)
(1.00971 0.00305868 0)
(1.00939 0.00429877 0)
(1.00894 0.00555072 0)
(1.00835 0.00681059 0)
(1.00759 0.0080682 0)
(1.00663 0.00930492 0)
(1.00545 0.0104911 0)
(1.00401 0.0115837 0)
(1.00229 0.0125237 0)
(1.00029 0.0132354 0)
(0.998006 0.0136277 0)
(0.995494 0.0136045 0)
(0.992859 0.0132534 0)
(0.990292 0.0150701 0)
(0.98767 0.0115483 0)
(0.985281 0.00918687 0)
(0.983449 0.00618497 0)
(0.982362 0.00273672 0)
(0.982145 -0.000916654 3.55037e-32)
(0.982825 -0.00450072 0)
(0.984322 -0.00775263 0)
(0.98647 -0.0104594 0)
(0.989019 -0.0124325 0)
(0.992856 -0.0132522 0)
(0.995491 -0.0136038 0)
(0.998004 -0.0136274 0)
(1.00028 -0.0132355 0)
(1.00229 -0.0125241 0)
(1.004 -0.0115842 0)
(1.00544 -0.0104917 0)
(1.00663 -0.00930555 0)
(1.00759 -0.00806882 0)
(1.00835 -0.00681115 0)
(1.00894 -0.0055512 0)
(1.00939 -0.00429916 0)
(1.0097 -0.00305896 0)
(1.00991 -0.00183006 0)
(1.01001 -0.000609068 0)
(1.00845 0.000539154 0)
(1.00834 0.00161752 0)
(1.00813 0.00269545 0)
(1.00781 0.00377093 0)
(1.00737 0.00483942 0)
(1.00679 0.00589257 0)
(1.00606 0.00691693 0)
(1.00516 0.00789258 0)
(1.00408 0.00879182 0)
(1.00281 0.00957801 0)
(1.00135 0.0102051 0)
(0.999696 0.0106182 0)
(0.997876 0.0107558 0)
(0.995935 0.010553 0)
(0.993941 0.00994822 0)
(0.992081 0.00895212 0)
(0.990327 0.00755333 0)
(0.988878 0.00571797 0)
(0.987835 0.00357038 0)
(0.987289 0.00121523 -5.21895e-32)
(0.987288 -0.00121257 5.21895e-32)
(0.987834 -0.00356786 0)
(0.988876 -0.00571569 0)
(0.990326 -0.0075514 0)
(0.992079 -0.00895055 0)
(0.993939 -0.00994705 0)
(0.995933 -0.0105522 0)
(0.997874 -0.0107554 0)
(0.999694 -0.0106181 0)
(1.00135 -0.0102052 0)
(1.00281 -0.00957823 0)
(1.00408 -0.00879214 0)
(1.00516 -0.00789295 0)
(1.00606 -0.00691731 0)
(1.00679 -0.00589293 0)
(1.00737 -0.00483975 0)
(1.00781 -0.0037712 0)
(1.00813 -0.00269564 0)
(1.00834 -0.00161764 0)
(1.00844 -0.000539196 0)
(1.00707 0.000469274 0)
(1.00697 0.00140599 0)
(1.00677 0.00233671 0)
(1.00646 0.00325604 0)
(1.00604 0.00415654 0)
(1.0055 0.00502784 0)
(1.00483 0.00585579 0)
(1.00402 0.0066217 0)
(1.00307 0.00730174 0)
(1.00199 0.00786673 0)
(1.00076 0.00828243 0)
(0.999413 0.00851088 0)
(0.99797 0.00851276 0)
(0.996472 0.00825161 0)
(0.99498 0.00770055 0)
(0.993571 0.00685439 0)
(0.992287 0.00571382 0)
(0.991238 0.00430007 0)
(0.990493 0.00267261 0)
(0.990106 0.000907445 -5.17567e-33)
(0.990106 -0.000905368 5.17567e-33)
(0.990493 -0.00267062 0)
(0.991237 -0.00429824 0)
(0.992286 -0.00571222 0)
(0.99357 -0.00685305 0)
(0.994978 -0.00769948 0)
(0.996471 -0.00825082 0)
(0.997968 -0.00851222 0)
(0.999412 -0.00851056 0)
(1.00076 -0.0082823 0)
(1.00198 -0.00786673 0)
(1.00307 -0.00730185 0)
(1.00402 -0.00662187 0)
(1.00483 -0.00585599 0)
(1.0055 -0.00502805 0)
(1.00604 -0.00415674 0)
(1.00646 -0.00325621 0)
(1.00677 -0.00233684 0)
(1.00697 -0.00140607 0)
(1.00707 -0.000469301 0)
(1.00589 0.000402849 0)
(1.00579 0.00120558 0)
(1.00561 0.00199905 0)
(1.00532 0.002776 0)
(1.00493 0.0035277 0)
(1.00444 0.00424333 0)
(1.00385 0.00490945 0)
(1.00314 0.00550969 0)
(1.00233 0.00602455 0)
(1.00141 0.00643162 0)
(1.0004 0.00670621 0)
(0.999307 0.00682263 0)
(0.998164 0.00675625 0)
(0.997001 0.0064864 0)
(0.995862 0.00599991 0)
(0.994797 0.0052948 0)
(0.993854 0.00437981 0)
(0.99309 0.00327802 0)
(0.99255 0.00202975 0)
(0.992272 0.000687875 0)
(0.992271 -0.000686214 0)
(0.99255 -0.00202814 0)
(0.993089 -0.00327653 0)
(0.993853 -0.00437847 0)
(0.994796 -0.00529365 0)
(0.995861 -0.00599896 0)
(0.997 -0.00648565 0)
(0.998163 -0.00675569 0)
(0.999306 -0.00682224 0)
(1.0004 -0.00670596 0)
(1.00141 -0.0064315 0)
(1.00233 -0.00602452 0)
(1.00314 -0.00550972 0)
(1.00385 -0.00490953 0)
(1.00444 -0.00424343 0)
(1.00493 -0.00352781 0)
(1.00532 -0.00277609 0)
(1.0056 -0.00199912 0)
(1.00579 -0.00120563 0)
(1.00589 -0.000402865 0)
(1.00487 0.000341959 0)
(1.00479 0.00102236 0)
(1.00462 0.00169192 0)
(1.00436 0.00234267 0)
(1.00402 0.00296563 0)
(1.00359 0.00355042 0)
(1.00307 0.00408502 0)
(1.00246 0.00455563 0)
(1.00177 0.00494678 0)
(1.00101 0.0052416 0)
(1.00018 0.00542256 0)
(0.9993 0.00547248 0)
(0.998393 0.00537606 0)
(0.997485 0.00512171 0)
(0.996609 0.00470359 0)
(0.995799 0.00412336 0)
(0.995093 0.00339122 0)
(0.994525 0.00252689 0)
(0.994127 0.00155993 0)
(0.993923 0.00052787 0)
(0.993923 -0.000526516 0)
(0.994127 -0.00155862 0)
(0.994525 -0.00252565 0)
(0.995092 -0.00339009 0)
(0.995798 -0.00412237 0)
(0.996608 -0.00470273 0)
(0.997484 -0.00512101 0)
(0.998392 -0.0053755 0)
(0.999299 -0.00547205 0)
(1.00018 -0.00542225 0)
(1.00101 -0.00524139 0)
(1.00177 -0.00494665 0)
(1.00246 -0.00455557 0)
(1.00307 -0.004085 0)
(1.00359 -0.00355043 0)
(1.00402 -0.00296566 0)
(1.00436 -0.0023427 0)
(1.00462 -0.00169195 0)
(1.00479 -0.00102238 0)
(1.00487 -0.000341966 0)
(1.00402 0.000287626 0)
(1.00394 0.000859204 0)
(1.00379 0.00141957 0)
(1.00357 0.00196075 0)
(1.00327 0.00247416 0)
(1.0029 0.00295036 0)
(1.00245 0.00337895 0)
(1.00194 0.0037486 0)
(1.00136 0.00404719 0)
(1.00073 0.00426221 0)
(1.00005 0.00438127 0)
(0.999344 0.00439298 0)
(0.998623 0.00428793 0)
(0.997911 0.00405989 0)
(0.997231 0.00370701 0)
(0.99661 0.00323284 0)
(0.996074 0.00264699 0)
(0.995646 0.00196548 0)
(0.995348 0.00121047 0)
(0.995195 0.00040914 -5.24454e-33)
(0.995195 -0.000408019 5.24454e-33)
(0.995348 -0.00120938 0)
(0.995646 -0.00196444 0)
(0.996073 -0.00264603 0)
(0.99661 -0.00323197 0)
(0.997231 -0.00370625 0)
(0.99791 -0.00405924 0)
(0.998622 -0.00428739 0)
(0.999343 -0.00439255 0)
(1.00005 -0.00438093 0)
(1.00073 -0.00426195 0)
(1.00136 -0.00404701 0)
(1.00194 -0.00374847 0)
(1.00245 -0.00337887 0)
(1.0029 -0.00295032 0)
(1.00327 -0.00247414 0)
(1.00357 -0.00196074 0)
(1.00379 -0.00141957 0)
(1.00394 -0.000859206 0)
(1.00402 -0.000287627 0)
(1.0033 0.000240128 0)
(1.00324 0.000716818 0)
(1.00311 0.00118268 0)
(1.00291 0.00163021 0)
(1.00266 0.00205155 0)
(1.00234 0.00243838 0)
(1.00196 0.00278192 0)
(1.00153 0.00307299 0)
(1.00105 0.0033022 0)
(1.00053 0.00346029 0)
(0.999981 0.00353855 0)
(0.999411 0.00352943 0)
(0.998838 0.00342725 0)
(0.998276 0.00322892 0)
(0.997746 0.00293472 0)
(0.997265 0.0025488 0)
(0.996853 0.00207962 0)
(0.996527 0.00153997 0)
(0.996301 0.000946637 0)
(0.996185 0.00031968 0)
(0.996185 -0.000318738 0)
(0.9963 -0.000945716 0)
(0.996527 -0.00153909 0)
(0.996853 -0.0020788 0)
(0.997265 -0.00254805 0)
(0.997746 -0.00293404 0)
(0.998276 -0.00322833 0)
(0.998837 -0.00342674 0)
(0.999411 -0.003529 0)
(0.99998 -0.0035382 0)
(1.00053 -0.00346002 0)
(1.00105 -0.00330199 0)
(1.00153 -0.00307283 0)
(1.00196 -0.0027818 0)
(1.00234 -0.0024383 0)
(1.00265 -0.00205149 0)
(1.00291 -0.00163017 0)
(1.00311 -0.00118266 0)
(1.00323 -0.000716806 0)
(1.0033 -0.000240124 0)
(1.0027 0.00019926 0)
(1.00265 0.000594476 0)
(1.00254 0.000979698 0)
(1.00237 0.00134812 0)
(1.00215 0.00169276 0)
(1.00189 0.00200648 0)
(1.00157 0.00228195 0)
(1.00121 0.0025118 0)
(1.00082 0.00268878 0)
(1.00039 0.00280603 0)
(0.999945 0.00285743 0)
(0.999487 0.00283799 0)
(0.999029 0.00274436 0)
(0.998585 0.00257527 0)
(0.998169 0.00233202 0)
(0.997794 0.00201873 0)
(0.997474 0.00164257 0)
(0.997223 0.0012137 0)
(0.997049 0.000744979 0)
(0.99696 0.000251409 0)
(0.99696 -0.000250609 0)
(0.997049 -0.000744195 0)
(0.997223 -0.00121295 0)
(0.997474 -0.00164186 0)
(0.997793 -0.00201807 0)
(0.998168 -0.00233142 0)
(0.998584 -0.00257474 0)
(0.999028 -0.00274389 0)
(0.999486 -0.00283759 0)
(0.999944 -0.00285709 0)
(1.00039 -0.00280575 0)
(1.00082 -0.00268855 0)
(1.00121 -0.00251161 0)
(1.00157 -0.0022818 0)
(1.00189 -0.00200637 0)
(1.00215 -0.00169268 0)
(1.00237 -0.00134806 0)
(1.00254 -0.000979661 0)
(1.00265 -0.000594455 0)
(1.0027 -0.000199253 0)
(1.00221 0.000164532 0)
(1.00216 0.000490631 0)
(1.00207 0.00080779 0)
(1.00193 0.00110999 0)
(1.00175 0.00139119 0)
(1.00152 0.00164533 0)
(1.00126 0.00186635 0)
(1.00096 0.00204839 0)
(1.00064 0.00218583 0)
(1.00029 0.00227358 0)
(0.999929 0.00230732 0)
(0.999561 0.00228377 0)
(0.999195 0.002201 0)
(0.998842 0.0020588 0)
(0.998514 0.00185883 0)
(0.99822 0.0016049 0)
(0.997971 0.00130298 0)
(0.997775 0.000961132 0)
(0.99764 0.000589264 0)
(0.997571 0.000198758 0)
(0.997571 -0.000198072 0)
(0.99764 -0.00058859 0)
(0.997775 -0.00096048 0)
(0.99797 -0.00130236 0)
(0.99822 -0.00160432 0)
(0.998513 -0.0018583 0)
(0.998842 -0.00205831 0)
(0.999194 -0.00220057 0)
(0.99956 -0.00228339 0)
(0.999929 -0.002307 0)
(1.00029 -0.00227331 0)
(1.00064 -0.0021856 0)
(1.00096 -0.0020482 0)
(1.00126 -0.0018662 0)
(1.00152 -0.0016452 0)
(1.00175 -0.0013911 0)
(1.00193 -0.00110992 0)
(1.00207 -0.000807744 0)
(1.00216 -0.000490604 0)
(1.00221 -0.000164523 0)
(1.0018 0.000135311 0)
(1.00176 0.000403335 0)
(1.00168 0.000663539 0)
(1.00157 0.000910713 0)
(1.00141 0.0011397 0)
(1.00123 0.0013454 0)
(1.00101 0.00152289 0)
(1.00077 0.00166746 0)
(1.0005 0.00177477 0)
(1.00022 0.00184104 0)
(0.999926 0.00186318 0)
(0.999629 0.00183904 0)
(0.999336 0.00176759 0)
(0.999056 0.00164913 0)
(0.998795 0.00148543 0)
(0.998563 0.00127983 0)
(0.998367 0.00103724 0)
(0.998214 0.000764067 0)
(0.998109 0.000468015 0)
(0.998055 0.000157802 0)
(0.998055 -0.000157208 0)
(0.998109 -0.00046743 0)
(0.998214 -0.0007635 0)
(0.998367 -0.0010367 0)
(0.998563 -0.00127932 0)
(0.998795 -0.00148495 0)
(0.999055 -0.00164869 0)
(0.999336 -0.00176719 0)
(0.999629 -0.00183869 0)
(0.999925 -0.00186287 0)
(1.00022 -0.00184077 0)
(1.0005 -0.00177455 0)
(1.00077 -0.00166727 0)
(1.00101 -0.00152273 0)
(1.00123 -0.00134528 0)