/*--------------------------------*- C++ -*----------------------------------*\
| =========                 |                                                 |
| \\      /  F ield         | OpenFOAM: The Open Source CFD Toolbox           |
|  \\    /   O peration     | Version:  v1812                                 |
|   \\  /    A nd           | Web:      www.OpenFOAM.com                      |
|    \\/     M anipulation  |                                                 |
\*---------------------------------------------------------------------------*/
FoamFile
{
    version     2.0;
    format      ascii;
    class       volScalarField;
    location    "0";
    object      sigmaIn;
}
// * * * * * * * * * * * * * * * * * * * * * * * * * * * * * * * * * * * * * //

dimensions      [0 0 0 1 0 0 0];


internalField   nonuniform List<scalar> 
300000
(
0
0
0
0
0
0
0
0
0
0
0
0
0
0
0
0
0
0
0
0
0
0
0
0
0
0
0
0
0
0
0
0
0
0
0
0
0
0
0
0
0
0
0
0
0
0
0
0
0
0
0
0
0
0
0
0
0
0
0
0
0
0
0
0
0
0
0
0
0
0
0
0
0
0
0
0
0
0
0
0
0
0
0
0
0
0
0
0
0
0
0
0
0
0
0
0
0
0
0
0
415.617
415.824
416.236
416.843
417.636
418.594
419.69
420.888
422.145
423.418
424.671
425.883
427.049
428.17
429.249
430.291
431.3
432.279
433.228
434.15
435.044
435.912
436.751
437.563
438.346
439.101
439.827
440.524
441.191
441.828
442.435
443.013
443.56
444.076
444.563
445.019
445.445
445.84
446.206
446.541
446.845
447.12
447.364
447.578
447.761
447.914
448.037
448.129
448.191
448.222
448.222
448.191
448.129
448.037
447.915
447.762
447.579
447.365
447.121
446.847
446.542
446.208
445.842
445.447
445.021
444.565
444.078
443.561
443.014
442.437
441.829
441.192
440.525
439.828
439.102
438.347
437.563
436.75
435.909
435.039
434.14
433.21
432.248
431.251
430.215
429.132
427.997
426.801
425.54
424.216
422.849
421.474
420.139
418.891
417.767
416.799
416.006
415.403
414.997
414.794
415.479
415.681
416.083
416.678
417.452
418.388
419.459
420.629
421.858
423.102
424.328
425.517
426.66
427.76
428.82
429.843
430.834
431.795
432.728
433.633
434.511
435.363
436.187
436.985
437.754
438.495
439.208
439.892
440.547
441.173
441.77
442.337
442.874
443.381
443.859
444.307
444.725
445.114
445.473
445.801
446.101
446.37
446.61
446.82
447
447.151
447.271
447.362
447.422
447.452
447.452
447.422
447.362
447.272
447.151
447.001
446.821
446.611
446.371
446.102
445.803
445.474
445.116
444.727
444.309
443.861
443.383
442.875
442.338
441.771
441.174
440.548
439.893
439.209
438.496
437.754
436.984
436.186
435.36
434.505
433.622
432.709
431.764
430.784
429.766
428.703
427.588
426.415
425.178
423.882
422.545
421.202
419.898
418.677
417.579
416.632
415.857
415.266
414.869
414.669
415.336
415.534
415.927
416.508
417.264
418.178
419.223
420.366
421.565
422.781
423.98
425.144
426.265
427.343
428.383
429.387
430.359
431.302
432.217
433.106
433.968
434.803
435.612
436.395
437.15
437.877
438.576
439.248
439.89
440.505
441.09
441.646
442.173
442.672
443.14
443.58
443.991
444.372
444.724
445.046
445.34
445.604
445.84
446.046
446.223
446.37
446.489
446.577
446.637
446.666
446.666
446.637
446.578
446.489
446.371
446.223
446.047
445.841
445.606
445.341
445.048
444.725
444.374
443.992
443.582
443.142
442.673
442.175
441.648
441.091
440.506
439.891
439.249
438.577
437.877
437.15
436.394
435.611
434.8
433.961
433.094
432.198
431.27
430.309
429.309
428.266
427.172
426.022
424.811
423.543
422.236
420.924
419.651
418.459
417.386
416.461
415.703
415.126
414.737
414.542
415.19
415.383
415.767
416.334
417.073
417.964
418.984
420.098
421.268
422.455
423.627
424.765
425.863
426.919
427.938
428.923
429.876
430.801
431.698
432.569
433.414
434.234
435.027
435.794
436.534
437.247
437.933
438.591
439.221
439.823
440.397
440.943
441.46
441.948
442.408
442.839
443.241
443.615
443.96
444.276
444.564
444.823
445.054
445.256
445.43
445.575
445.691
445.778
445.836
445.865
445.865
445.836
445.778
445.691
445.575
445.43
445.257
445.055
444.825
444.566
444.278
443.962
443.617
443.243
442.841
442.409
441.95
441.461
440.944
440.398
439.824
439.222
438.592
437.933
437.247
436.534
435.793
435.025
434.23
433.407
432.557
431.678
430.768
429.825
428.845
427.822
426.75
425.623
424.437
423.198
421.922
420.642
419.4
418.237
417.19
416.286
415.546
414.982
414.602
414.411
415.04
415.229
415.604
416.157
416.877
417.746
418.74
419.825
420.966
422.124
423.268
424.381
425.455
426.489
427.487
428.451
429.385
430.291
431.171
432.024
432.852
433.654
434.431
435.183
435.908
436.606
437.278
437.923
438.54
439.13
439.692
440.226
440.733
441.211
441.662
442.084
442.478
442.844
443.182
443.492
443.774
444.028
444.254
444.452
444.622
444.764
444.878
444.963
445.02
445.048
445.048
445.02
444.963
444.878
444.765
444.623
444.453
444.255
444.03
443.776
443.494
443.184
442.846
442.48
442.086
441.663
441.213
440.734
440.228
439.693
439.131
438.541
437.923
437.279
436.607
435.908
435.182
434.429
433.65
432.844
432.011
431.15
430.258
429.334
428.373
427.371
426.321
425.218
424.059
422.848
421.603
420.355
419.144
418.011
416.99
416.108
415.385
414.834
414.463
414.277
414.888
415.072
415.437
415.976
416.678
417.524
418.492
419.549
420.66
421.788
422.905
423.992
425.042
426.053
427.03
427.974
428.888
429.775
430.635
431.471
432.281
433.066
433.827
434.562
435.272
435.955
436.613
437.244
437.848
438.425
438.976
439.499
439.994
440.463
440.903
441.317
441.703
442.061
442.392
442.695
442.971
443.22
443.441
443.635
443.801
443.94
444.051
444.135
444.19
444.218
444.218
444.19
444.135
444.051
443.94
443.802
443.636
443.442
443.221
442.973
442.697
442.394
442.063
441.704
441.318
440.905
440.464
439.996
439.5
438.977
438.426
437.849
437.245
436.613
435.956
435.271
434.561
433.825
433.062
432.273
431.457
430.614
429.741
428.836
427.895
426.914
425.887
424.808
423.676
422.494
421.28
420.065
418.885
417.781
416.786
415.927
415.222
414.684
414.322
414.14
414.732
414.912
415.267
415.792
416.475
417.299
418.241
419.269
420.35
421.449
422.538
423.598
424.624
425.613
426.567
427.49
428.384
429.251
430.093
430.91
431.702
432.47
433.214
433.933
434.627
435.295
435.938
436.555
437.146
437.711
438.249
438.76
439.245
439.703
440.134
440.538
440.915
441.266
441.589
441.886
442.156
442.399
442.616
442.805
442.968
443.103
443.212
443.294
443.348
443.375
443.375
443.348
443.294
443.212
443.104
442.968
442.806
442.617
442.4
442.157
441.888
441.591
441.267
440.917
440.54
440.135
439.704
439.246
438.761
438.25
437.712
437.147
436.556
435.939
435.295
434.626
433.932
433.211
432.466
431.694
430.896
430.071
429.217
428.332
427.412
426.452
425.448
424.394
423.288
422.136
420.954
419.77
418.623
417.548
416.579
415.742
415.055
414.531
414.178
414
414.574
414.748
415.094
415.605
416.27
417.071
417.986
418.986
420.037
421.107
422.167
423.201
424.201
425.167
426.099
427.001
427.875
428.722
429.544
430.342
431.116
431.867
432.593
433.296
433.974
434.627
435.255
435.857
436.435
436.986
437.512
438.012
438.485
438.932
439.354
439.749
440.117
440.46
440.776
441.066
441.329
441.567
441.778
441.963
442.122
442.255
442.361
442.441
442.494
442.521
442.521
442.494
442.441
442.361
442.255
442.123
441.964
441.779
441.568
441.331
441.067
440.777
440.461
440.119
439.75
439.355
438.934
438.486
438.013
437.513
436.987
436.435
435.858
435.255
434.627
433.973
433.294
432.591
431.862
431.108
430.328
429.522
428.688
427.822
426.923
425.985
425.004
423.975
422.897
421.775
420.624
419.473
418.357
417.312
416.37
415.555
414.886
414.376
414.032
413.858
414.413
414.583
414.919
415.416
416.062
416.84
417.729
418.7
419.722
420.761
421.793
422.8
423.776
424.717
425.627
426.507
427.36
428.187
428.99
429.769
430.524
431.257
431.966
432.651
433.313
433.95
434.563
435.151
435.715
436.253
436.766
437.254
437.716
438.153
438.564
438.949
439.309
439.643
439.952
440.235
440.492
440.724
440.931
441.111
441.266
441.396
441.499
441.577
441.629
441.655
441.655
441.629
441.577
441.5
441.396
441.267
441.112
440.931
440.725
440.494
440.236
439.954
439.645
439.311
438.951
438.565
438.154
437.717
437.255
436.767
436.254
435.716
435.152
434.563
433.95
433.312
432.65
431.963
431.251
430.515
429.754
428.967
428.152
427.308
426.43
425.514
424.557
423.553
422.503
421.41
420.291
419.173
418.089
417.073
416.157
415.365
414.714
414.218
413.883
413.714
414.25
414.415
414.742
415.224
415.851
416.607
417.469
418.412
419.403
420.413
421.416
422.396
423.346
424.264
425.151
426.009
426.841
427.647
428.43
429.189
429.926
430.64
431.332
432
432.645
433.267
433.864
434.438
434.987
435.512
436.012
436.488
436.939
437.364
437.765
438.141
438.492
438.818
439.119
439.395
439.646
439.872
440.073
440.249
440.4
440.527
440.628
440.703
440.754
440.779
440.779
440.754
440.704
440.628
440.527
440.401
440.25
440.074
439.873
439.647
439.396
439.12
438.819
438.494
438.143
437.767
437.366
436.94
436.489
436.013
435.513
434.988
434.438
433.865
433.266
432.644
431.998
431.328
430.635
429.917
429.175
428.407
427.612
426.788
425.932
425.039
424.106
423.128
422.106
421.043
419.956
418.87
417.818
416.832
415.943
415.173
414.541
414.058
413.732
413.568
414.084
414.245
414.562
415.03
415.638
416.371
417.208
418.121
419.083
420.063
421.037
421.99
422.914
423.808
424.671
425.507
426.317
427.103
427.865
428.605
429.323
430.019
430.692
431.343
431.971
432.577
433.159
433.718
434.253
434.764
435.251
435.714
436.153
436.568
436.959
437.325
437.666
437.984
438.277
438.546
438.79
439.011
439.207
439.378
439.525
439.648
439.747
439.821
439.87
439.895
439.895
439.87
439.821
439.747
439.649
439.526
439.379
439.207
439.012
438.792
438.547
438.278
437.985
437.668
437.326
436.96
436.569
436.155
435.715
435.252
434.765
434.253
433.718
433.159
432.576
431.97
431.341
430.689
430.013
429.314
428.591
427.843
427.068
426.265
425.431
424.561
423.652
422.701
421.706
420.674
419.619
418.565
417.545
416.589
415.726
414.979
414.365
413.896
413.58
413.421
413.917
414.073
414.381
414.834
415.424
416.134
416.944
417.829
418.761
419.711
420.656
421.582
422.48
423.349
424.189
425.002
425.79
426.555
427.297
428.017
428.715
429.392
430.047
430.681
431.292
431.881
432.447
432.991
433.512
434.009
434.483
434.934
435.361
435.765
436.145
436.501
436.833
437.142
437.427
437.689
437.927
438.141
438.332
438.499
438.642
438.762
438.858
438.93
438.977
439.001
439.002
438.978
438.93
438.858
438.762
438.643
438.5
438.333
438.142
437.928
437.69
437.429
437.144
436.835
436.502
436.146
435.766
435.362
434.935
434.484
434.01
433.512
432.991
432.448
431.881
431.291
430.679
430.044
429.386
428.706
428.002
427.274
426.52
425.739
424.927
424.08
423.196
422.271
421.305
420.303
419.28
418.259
417.27
416.344
415.508
414.783
414.188
413.733
413.426
413.271
413.749
413.9
414.198
414.637
415.208
415.895
416.679
417.536
418.437
419.357
420.274
421.172
422.044
422.888
423.704
424.495
425.261
426.004
426.725
427.425
428.103
428.761
429.398
430.014
430.608
431.18
431.731
432.259
432.765
433.249
433.709
434.147
434.563
434.955
435.324
435.67
435.994
436.294
436.571
436.825
437.057
437.265
437.45
437.612
437.752
437.868
437.961
438.031
438.078
438.101
438.101
438.078
438.031
437.961
437.868
437.752
437.613
437.451
437.266
437.058
436.827
436.572
436.295
435.995
435.672
435.325
434.956
434.564
434.148
433.71
433.249
432.766
432.259
431.731
431.18
430.607
430.012
429.395
428.755
428.094
427.41
426.702
425.969
425.209
424.42
423.597
422.738
421.839
420.902
419.93
418.939
417.951
416.994
416.098
415.288
414.586
414.01
413.568
413.271
413.121
413.58
413.725
414.014
414.439
414.991
415.655
416.413
417.241
418.113
419.003
419.89
420.76
421.606
422.425
423.218
423.985
424.728
425.45
426.15
426.829
427.488
428.127
428.745
429.343
429.919
430.475
431.01
431.522
432.014
432.483
432.93
433.355
433.759
434.139
434.498
434.834
435.148
435.439
435.708
435.955
436.18
436.382
436.562
436.719
436.855
436.967
437.058
437.126
437.171
437.194
437.194
437.171
437.126
437.058
436.968
436.855
436.72
436.563
436.383
436.181
435.956
435.71
435.441
435.149
434.835
434.499
434.141
433.76
433.357
432.931
432.484
432.014
431.523
431.01
430.475
429.918
429.341
428.741
428.121
427.479
426.814
426.127
425.416
424.678
423.911
423.112
422.278
421.407
420.498
419.557
418.598
417.642
416.717
415.85
415.067
414.388
413.83
413.403
413.115
412.969
413.409
413.55
413.829
414.24
414.773
415.415
416.146
416.946
417.788
418.648
419.506
420.348
421.168
421.961
422.729
423.473
424.194
424.894
425.573
426.231
426.87
427.49
428.089
428.668
429.227
429.766
430.284
430.782
431.258
431.713
432.147
432.559
432.95
433.319
433.667
433.992
434.297
434.579
434.84
435.08
435.297
435.493
435.668
435.821
435.952
436.061
436.149
436.214
436.258
436.28
436.28
436.258
436.215
436.149
436.061
435.952
435.821
435.669
435.494
435.298
435.081
434.842
434.581
434.298
433.994
433.668
433.32
432.951
432.56
432.147
431.714
431.258
430.782
430.284
429.766
429.226
428.666
428.085
427.483
426.861
426.217
425.55
424.86
424.144
423.401
422.626
421.818
420.973
420.093
419.183
418.256
417.333
416.44
415.602
414.846
414.19
413.65
413.237
412.958
412.817
413.238
413.374
413.644
414.04
414.555
415.174
415.879
416.65
417.463
418.293
419.122
419.936
420.729
421.497
422.24
422.961
423.659
424.336
424.994
425.631
426.25
426.85
427.43
427.991
428.533
429.054
429.556
430.037
430.499
430.939
431.359
431.758
432.137
432.494
432.831
433.146
433.441
433.715
433.967
434.199
434.41
434.6
434.769
434.917
435.044
435.15
435.234
435.298
435.341
435.362
435.362
435.341
435.298
435.235
435.15
435.044
434.917
434.77
434.601
434.411
434.2
433.969
433.716
433.442
433.148
432.832
432.495
432.138
431.759
431.36
430.94
430.499
430.038
429.556
429.054
428.531
427.989
427.426
426.844
426.241
425.617
424.971
424.303
423.61
422.889
422.139
421.357
420.54
419.689
418.809
417.914
417.024
416.162
415.354
414.624
413.991
413.469
413.07
412.801
412.665
413.067
413.198
413.458
413.84
414.336
414.932
415.612
416.355
417.138
417.938
418.738
419.524
420.29
421.032
421.751
422.447
423.123
423.778
424.413
425.03
425.628
426.208
426.769
427.312
427.835
428.34
428.825
429.29
429.736
430.162
430.568
430.954
431.32
431.666
431.992
432.297
432.582
432.846
433.091
433.315
433.519
433.702
433.865
434.009
434.131
434.234
434.316
434.377
434.418
434.439
434.439
434.418
434.377
434.316
434.234
434.132
434.009
433.866
433.703
433.52
433.316
433.092
432.848
432.583
432.298
431.993
431.667
431.321
430.955
430.569
430.163
429.737
429.291
428.825
428.339
427.834
427.31
426.766
426.202
425.619
425.015
424.391
423.745
423.074
422.378
421.652
420.896
420.106
419.284
418.436
417.573
416.714
415.884
415.105
414.402
413.791
413.289
412.904
412.644
412.513
412.896
413.023
413.273
413.641
414.118
414.692
415.346
416.06
416.814
417.584
418.355
419.112
419.851
420.568
421.262
421.934
422.586
423.219
423.832
424.428
425.005
425.565
426.107
426.631
427.136
427.623
428.092
428.541
428.972
429.383
429.775
430.148
430.501
430.835
431.149
431.444
431.719
431.975
432.21
432.427
432.624
432.801
432.959
433.097
433.215
433.314
433.393
433.453
433.492
433.512
433.512
433.493
433.453
433.394
433.314
433.216
433.097
432.959
432.802
432.625
432.428
432.212
431.976
431.72
431.445
431.15
430.836
430.502
430.149
429.776
429.384
428.972
428.541
428.092
427.623
427.135
426.629
426.103
425.559
424.996
424.413
423.81
423.186
422.538
421.866
421.165
420.435
419.673
418.88
418.063
417.232
416.406
415.607
414.858
414.18
413.593
413.108
412.738
412.487
412.361
412.726
412.848
413.088
413.442
413.9
414.452
415.08
415.767
416.49
417.231
417.972
418.702
419.413
420.104
420.773
421.421
422.05
422.659
423.251
423.825
424.382
424.922
425.444
425.949
426.436
426.906
427.357
427.791
428.206
428.602
428.98
429.339
429.68
430.002
430.305
430.589
430.854
431.1
431.328
431.536
431.726
431.897
432.049
432.182
432.296
432.392
432.468
432.525
432.564
432.583
432.583
432.564
432.526
432.468
432.392
432.297
432.183
432.05
431.898
431.727
431.537
431.329
431.102
430.855
430.59
430.306
430.003
429.681
429.34
428.981
428.603
428.206
427.791
427.357
426.905
426.435
425.947
425.44
424.916
424.373
423.811
423.23
422.627
422.003
421.354
420.679
419.975
419.241
418.478
417.691
416.892
416.098
415.33
414.611
413.96
413.395
412.929
412.572
412.331
412.21
412.557
412.673
412.904
413.244
413.684
414.213
414.816
415.474
416.169
416.88
417.592
418.293
418.977
419.641
420.285
420.909
421.514
422.101
422.67
423.223
423.759
424.278
424.781
425.267
425.736
426.187
426.622
427.039
427.438
427.82
428.184
428.53
428.857
429.167
429.459
429.732
429.987
430.224
430.443
430.644
430.827
430.991
431.137
431.266
431.376
431.467
431.541
431.596
431.633
431.651
431.651
431.633
431.596
431.541
431.468
431.376
431.266
431.138
430.992
430.828
430.645
430.444
430.225
429.988
429.733
429.46
429.168
428.858
428.53
428.184
427.821
427.439
427.039
426.622
426.187
425.734
425.264
424.777
424.272
423.75
423.209
422.649
422.07
421.469
420.844
420.194
419.517
418.811
418.077
417.321
416.554
415.792
415.055
414.365
413.74
413.198
412.751
412.408
412.176
412.06
412.389
412.501
412.722
413.047
413.469
413.976
414.553
415.184
415.849
416.531
417.213
417.886
418.543
419.181
419.799
420.398
420.98
421.543
422.09
422.621
423.136
423.635
424.118
424.585
425.035
425.469
425.887
426.287
426.671
427.038
427.387
427.719
428.034
428.332
428.612
428.874
429.12
429.347
429.558
429.75
429.926
430.084
430.224
430.348
430.453
430.541
430.612
430.665
430.7
430.718
430.718
430.7
430.665
430.612
430.542
430.454
430.348
430.225
430.085
429.927
429.751
429.559
429.348
429.121
428.875
428.613
428.332
428.035
427.72
427.388
427.038
426.671
426.287
425.886
425.469
425.034
424.582
424.114
423.629
423.127
422.608
422.07
421.513
420.935
420.336
419.711
419.06
418.382
417.678
416.954
416.219
415.488
414.782
414.121
413.522
413.002
412.574
412.245
412.023
411.911
412.223
412.33
412.541
412.853
413.256
413.741
414.293
414.896
415.532
416.184
416.838
417.482
418.111
418.723
419.315
419.89
420.447
420.988
421.512
422.021
422.515
422.993
423.456
423.904
424.336
424.752
425.152
425.536
425.904
426.255
426.59
426.909
427.211
427.496
427.765
428.016
428.251
428.47
428.671
428.856
429.025
429.176
429.311
429.429
429.53
429.615
429.682
429.733
429.767
429.784
429.784
429.767
429.733
429.682
429.615
429.531
429.429
429.311
429.177
429.025
428.857
428.672
428.471
428.253
428.017
427.766
427.497
427.212
426.91
426.591
426.256
425.904
425.536
425.152
424.751
424.334
423.901
423.452
422.987
422.506
422.008
421.492
420.958
420.404
419.829
419.23
418.607
417.957
417.283
416.589
415.885
415.187
414.512
413.879
413.307
412.809
412.399
412.085
411.872
411.765
412.06
412.162
412.364
412.661
413.046
413.508
414.035
414.611
415.218
415.841
416.465
417.081
417.683
418.267
418.834
419.384
419.917
420.434
420.936
421.423
421.895
422.353
422.796
423.224
423.637
424.036
424.418
424.786
425.138
425.474
425.795
426.099
426.388
426.661
426.918
427.159
427.384
427.593
427.786
427.963
428.124
428.269
428.397
428.51
428.607
428.688
428.753
428.801
428.834
428.85
428.85
428.834
428.802
428.753
428.688
428.608
428.511
428.398
428.269
428.124
427.964
427.787
427.594
427.385
427.16
426.919
426.662
426.389
426.1
425.795
425.475
425.138
424.786
424.418
424.035
423.636
423.222
422.792
422.348
421.887
421.41
420.917
420.406
419.876
419.325
418.753
418.156
417.534
416.89
416.227
415.555
414.889
414.244
413.64
413.094
412.619
412.227
411.927
411.724
411.621
411.899
411.997
412.189
412.472
412.839
413.28
413.781
414.33
414.908
415.501
416.096
416.684
417.258
417.816
418.357
418.882
419.39
419.884
420.363
420.828
421.279
421.716
422.138
422.547
422.942
423.322
423.687
424.038
424.374
424.695
425.001
425.292
425.567
425.828
426.073
426.303
426.518
426.717
426.901
427.07
427.224
427.362
427.485
427.593
427.685
427.763
427.824
427.871
427.902
427.917
427.917
427.902
427.871
427.825
427.763
427.686
427.593
427.486
427.363
427.225
427.071
426.902
426.718
426.519
426.304
426.074
425.829
425.568
425.292
425.001
424.695
424.374
424.038
423.687
423.321
422.94
422.545
422.135
421.71
421.27
420.815
420.344
419.857
419.351
418.825
418.278
417.709
417.116
416.501
415.869
415.229
414.594
413.98
413.405
412.884
412.432
412.058
411.772
411.579
411.481
411.743
411.835
412.018
412.287
412.636
413.055
413.532
414.053
414.602
415.166
415.732
416.291
416.837
417.368
417.884
418.383
418.868
419.338
419.794
420.236
420.666
421.082
421.484
421.873
422.249
422.611
422.958
423.292
423.612
423.918
424.209
424.486
424.749
424.997
425.23
425.449
425.654
425.844
426.019
426.18
426.326
426.458
426.575
426.677
426.765
426.839
426.898
426.942
426.971
426.986
426.986
426.971
426.942
426.898
426.839
426.766
426.678
426.575
426.458
426.327
426.18
426.02
425.844
425.655
425.45
425.231
424.997
424.749
424.487
424.21
423.918
423.613
423.293
422.958
422.61
422.248
421.871
421.481
421.076
420.658
420.224
419.776
419.311
418.83
418.329
417.809
417.266
416.702
416.117
415.516
414.907
414.304
413.72
413.174
412.679
412.249
411.894
411.621
411.437
411.345
411.591
411.679
411.852
412.107
412.438
412.835
413.287
413.781
414.302
414.837
415.374
415.904
416.422
416.926
417.415
417.89
418.35
418.796
419.229
419.649
420.057
420.452
420.834
421.203
421.56
421.903
422.234
422.551
422.855
423.145
423.421
423.684
423.933
424.169
424.391
424.599
424.793
424.973
425.139
425.292
425.431
425.556
425.667
425.765
425.848
425.918
425.974
426.016
426.044
426.058
426.058
426.044
426.016
425.974
425.918
425.849
425.765
425.668
425.557
425.432
425.293
425.14
424.974
424.794
424.599
424.391
424.17
423.934
423.685
423.422
423.145
422.855
422.551
422.234
421.903
421.559
421.201
420.831
420.447
420.049
419.638
419.212
418.771
418.313
417.838
417.344
416.829
416.293
415.738
415.168
414.591
414.019
413.466
412.947
412.478
412.07
411.734
411.476
411.301
411.213
411.445
411.528
411.692
411.933
412.246
412.621
413.048
413.515
414.008
414.514
415.021
415.523
416.013
416.49
416.953
417.402
417.838
418.26
418.67
419.068
419.453
419.827
420.189
420.539
420.876
421.201
421.514
421.814
422.102
422.376
422.638
422.887
423.123
423.346
423.556
423.752
423.936
424.107
424.264
424.409
424.54
424.659
424.764
424.856
424.935
425.001
425.054
425.094
425.12
425.134
425.134
425.12
425.094
425.054
425.001
424.936
424.857
424.764
424.659
424.541
424.409
424.265
424.107
423.937
423.753
423.556
423.346
423.123
422.887
422.638
422.377
422.102
421.814
421.514
421.201
420.875
420.537
420.186
419.822
419.446
419.057
418.654
418.236
417.803
417.353
416.885
416.398
415.891
415.366
414.827
414.281
413.74
413.217
412.727
412.283
411.898
411.579
411.335
411.17
411.087
411.306
411.384
411.538
411.766
412.06
412.414
412.817
413.257
413.721
414.198
414.676
415.149
415.612
416.062
416.498
416.922
417.333
417.731
418.118
418.493
418.857
419.209
419.55
419.88
420.199
420.505
420.8
421.083
421.354
421.614
421.86
422.095
422.318
422.528
422.726
422.912
423.085
423.246
423.394
423.531
423.655
423.766
423.866
423.953
424.027
424.09
424.14
424.177
424.202
424.214
424.214
424.202
424.177
424.14
424.09
424.028
423.953
423.866
423.767
423.655
423.531
423.395
423.247
423.086
422.912
422.727
422.529
422.318
422.096
421.861
421.614
421.355
421.083
420.8
420.505
420.198
419.879
419.548
419.205
418.85
418.482
418.102
417.708
417.3
416.875
416.434
415.975
415.497
415.001
414.493
413.978
413.468
412.976
412.514
412.096
411.732
411.432
411.202
411.046
410.968
411.174
411.248
411.393
411.607
411.883
412.215
412.594
413.007
413.443
413.891
414.34
414.784
415.219
415.642
416.052
416.45
416.836
417.21
417.574
417.926
418.268
418.599
418.92
419.23
419.529
419.817
420.094
420.36
420.615
420.858
421.09
421.311
421.52
421.718
421.904
422.078
422.241
422.392
422.532
422.66
422.776
422.881
422.975
423.056
423.126
423.185
423.232
423.267
423.29
423.302
423.302
423.29
423.267
423.232
423.185
423.127
423.057
422.975
422.882
422.777
422.66
422.532
422.393
422.242
422.079
421.904
421.718
421.521
421.311
421.091
420.859
420.615
420.36
420.094
419.817
419.528
419.228
418.917
418.595
418.261
417.916
417.559
417.189
416.805
416.406
415.992
415.56
415.111
414.646
414.168
413.685
413.206
412.743
412.309
411.916
411.575
411.293
411.077
410.931
410.857
0
0
0
0
0
0
0
0
0
0
0
0
0
0
0
0
0
0
0
0
0
0
0
0
0
0
0
0
0
0
0
0
0
0
0
0
0
0
0
0
0
0
0
0
0
0
0
0
0
0
0
0
0
0
0
0
0
0
0
0
0
0
0
0
0
0
0
0
0
0
0
0
0
0
0
0
0
0
0
0
0
0
0
0
0
0
0
0
0
0
0
0
0
0
0
0
0
0
0
0
415.597
415.806
416.22
416.834
417.634
418.602
419.712
420.926
422.2
423.487
424.75
425.97
427.141
428.266
429.349
430.395
431.408
432.391
433.346
434.272
435.171
436.043
436.887
437.703
438.491
439.249
439.979
440.679
441.35
441.991
442.601
443.181
443.731
444.251
444.74
445.199
445.627
446.024
446.391
446.728
447.034
447.31
447.555
447.77
447.955
448.109
448.232
448.325
448.387
448.418
448.418
448.387
448.325
448.233
448.109
447.956
447.771
447.556
447.311
447.036
446.73
446.393
446.026
445.629
445.201
444.742
444.253
443.733
443.183
442.603
441.992
441.351
440.68
439.98
439.25
438.491
437.703
436.886
436.04
435.166
434.262
433.328
432.362
431.361
430.321
429.235
428.097
426.897
425.629
424.295
422.912
421.52
420.167
418.903
417.768
416.79
415.991
415.384
414.975
414.77
415.458
415.662
416.067
416.667
417.449
418.395
419.479
420.664
421.908
423.166
424.402
425.597
426.746
427.85
428.913
429.94
430.935
431.901
432.838
433.748
434.631
435.486
436.315
437.116
437.89
438.635
439.351
440.039
440.697
441.326
441.926
442.496
443.036
443.546
444.026
444.476
444.897
445.287
445.647
445.978
446.279
446.55
446.791
447.002
447.183
447.334
447.455
447.546
447.607
447.637
447.637
447.607
447.546
447.456
447.335
447.184
447.003
446.792
446.551
446.28
445.98
445.649
445.289
444.899
444.478
444.028
443.548
443.037
442.497
441.927
441.328
440.698
440.04
439.352
438.635
437.89
437.116
436.314
435.483
434.625
433.737
432.82
431.871
430.887
429.865
428.799
427.681
426.504
425.261
423.955
422.604
421.244
419.923
418.688
417.578
416.622
415.841
415.246
414.846
414.645
415.314
415.514
415.91
416.496
417.26
418.183
419.241
420.397
421.611
422.84
424.049
425.219
426.344
427.426
428.469
429.477
430.454
431.401
432.32
433.213
434.079
434.919
435.732
436.518
437.277
438.008
438.711
439.385
440.031
440.648
441.237
441.796
442.326
442.826
443.297
443.739
444.151
444.534
444.888
445.212
445.507
445.773
446.01
446.217
446.395
446.543
446.662
446.751
446.811
446.841
446.841
446.811
446.751
446.662
446.544
446.395
446.218
446.011
445.775
445.509
445.214
444.89
444.536
444.153
443.741
443.299
442.828
442.327
441.797
441.238
440.65
440.032
439.386
438.711
438.008
437.277
436.518
435.73
434.916
434.073
433.202
432.301
431.37
430.405
429.402
428.355
427.259
426.104
424.887
423.61
422.29
420.962
419.673
418.468
417.384
416.45
415.686
415.104
414.713
414.517
415.168
415.362
415.749
416.321
417.066
417.967
418.998
420.126
421.31
422.509
423.69
424.834
425.936
426.996
428.019
429.007
429.964
430.893
431.794
432.669
433.518
434.341
435.138
435.909
436.653
437.369
438.058
438.72
439.353
439.958
440.534
441.083
441.602
442.093
442.555
442.988
443.392
443.767
444.114
444.432
444.721
444.982
445.214
445.417
445.591
445.737
445.853
445.941
445.999
446.028
446.028
445.999
445.941
445.853
445.737
445.592
445.418
445.215
444.983
444.723
444.434
444.116
443.769
443.394
442.99
442.556
442.094
441.603
441.084
440.536
439.959
439.354
438.72
438.059
437.37
436.653
435.908
435.137
434.338
433.511
432.657
431.774
430.861
429.914
428.931
427.905
426.83
425.699
424.508
423.26
421.971
420.676
419.419
418.243
417.186
416.274
415.528
414.96
414.577
414.385
415.017
415.207
415.585
416.142
416.869
417.747
418.752
419.85
421.004
422.173
423.326
424.444
425.522
426.56
427.561
428.529
429.467
430.376
431.259
432.117
432.948
433.755
434.535
435.29
436.018
436.72
437.395
438.043
438.663
439.255
439.82
440.357
440.866
441.346
441.799
442.223
442.619
442.987
443.327
443.638
443.921
444.176
444.404
444.602
444.773
444.916
445.03
445.115
445.173
445.201
445.201
445.173
445.116
445.03
444.916
444.774
444.603
444.405
444.178
443.923
443.64
443.328
442.989
442.621
442.225
441.801
441.348
440.867
440.358
439.821
439.257
438.664
438.043
437.396
436.72
436.018
435.289
434.533
433.75
432.941
432.104
431.239
430.344
429.417
428.453
427.448
426.395
425.288
424.124
422.905
421.648
420.386
419.161
418.015
416.984
416.095
415.366
414.812
414.438
414.25
414.864
415.049
415.417
415.96
416.668
417.523
418.501
419.57
420.693
421.833
422.957
424.049
425.103
426.118
427.098
428.045
428.963
429.853
430.717
431.556
432.37
433.159
433.923
434.661
435.374
436.061
436.721
437.355
437.962
438.542
439.095
439.62
440.118
440.588
441.031
441.446
441.834
442.194
442.526
442.831
443.108
443.358
443.58
443.775
443.942
444.081
444.193
444.277
444.333
444.361
444.361
444.333
444.277
444.193
444.082
443.943
443.776
443.581
443.359
443.11
442.833
442.528
442.196
441.836
441.448
441.033
440.59
440.119
439.621
439.096
438.543
437.963
437.356
436.722
436.061
435.374
434.66
433.921
433.155
432.362
431.543
430.696
429.82
428.912
427.969
426.985
425.954
424.872
423.735
422.545
421.32
420.091
418.899
417.783
416.779
415.912
415.202
414.66
414.296
414.113
414.707
414.888
415.246
415.775
416.464
417.296
418.247
419.287
420.38
421.489
422.585
423.65
424.679
425.671
426.629
427.555
428.453
429.323
430.168
430.988
431.784
432.556
433.302
434.025
434.721
435.393
436.039
436.658
437.252
437.819
438.359
438.873
439.359
439.819
440.252
440.658
441.037
441.389
441.714
442.012
442.283
442.527
442.745
442.935
443.098
443.235
443.344
443.426
443.481
443.508
443.508
443.481
443.426
443.344
443.235
443.099
442.936
442.746
442.529
442.285
442.014
441.716
441.391
441.039
440.66
440.254
439.821
439.361
438.874
438.36
437.82
437.253
436.659
436.039
435.393
434.721
434.023
433.3
432.551
431.776
430.975
430.147
429.29
428.402
427.479
426.516
425.509
424.452
423.342
422.182
420.989
419.793
418.633
417.548
416.57
415.726
415.034
414.506
414.151
413.972
414.547
414.723
415.072
415.587
416.257
417.066
417.99
419
420.062
421.141
422.209
423.248
424.252
425.22
426.155
427.06
427.937
428.787
429.613
430.414
431.191
431.945
432.674
433.38
434.06
434.716
435.347
435.952
436.532
437.086
437.614
438.115
438.591
439.04
439.463
439.86
440.23
440.574
440.891
441.182
441.447
441.686
441.898
442.084