/*--------------------------------*- C++ -*----------------------------------*\
  =========                 |
  \\      /  F ield         | OpenFOAM: The Open Source CFD Toolbox
   \\    /   O peration     | Website:  https://openfoam.org
    \\  /    A nd           | Version:  6
     \\/     M anipulation  |
\*---------------------------------------------------------------------------*/
FoamFile
{
    version     2.0;
    format      ascii;
    class       volScalarField;
    location    "0";
    object      Tlift0;
}
// * * * * * * * * * * * * * * * * * * * * * * * * * * * * * * * * * * * * * //

dimensions      [0 0 0 1 0 0 0];

internalField   nonuniform List<scalar> 
2200
(
4.40104e-08
4.40104e-08
4.40104e-08
4.40104e-08
4.40104e-08
4.40104e-08
4.40104e-08
4.40104e-08
4.40104e-08
4.40104e-08
4.40104e-08
4.40104e-08
4.40104e-08
4.40104e-08
4.40104e-08
4.40104e-08
4.40104e-08
4.40104e-08
4.40104e-08
4.40104e-08
9.68458e-16
9.68458e-16
9.68458e-16
9.68458e-16
9.68458e-16
9.68458e-16
9.68458e-16
9.68458e-16
9.68458e-16
9.68458e-16
9.68458e-16
9.68458e-16
9.68458e-16
9.68458e-16
9.68458e-16
9.68458e-16
9.68458e-16
9.68458e-16
9.68458e-16
9.68458e-16
2.13111e-23
2.13111e-23
2.13111e-23
2.13111e-23
2.13111e-23
2.13111e-23
2.13111e-23
2.13111e-23
2.13111e-23
2.13111e-23
2.13111e-23
2.13111e-23
2.13111e-23
2.13111e-23
2.13111e-23
2.13111e-23
2.13111e-23
2.13111e-23
2.13111e-23
2.13111e-23
4.68956e-31
4.68956e-31
4.68956e-31
4.68956e-31
4.68956e-31
4.68956e-31
4.68956e-31
4.68956e-31
4.68956e-31
4.68956e-31
4.68956e-31
4.68956e-31
4.68956e-31
4.68956e-31
4.68956e-31
4.68956e-31
4.68956e-31
4.68956e-31
4.68956e-31
4.68956e-31
1.03195e-38
1.03195e-38
1.03195e-38
1.03195e-38
1.03195e-38
1.03195e-38
1.03195e-38
1.03195e-38
1.03195e-38
1.03195e-38
1.03195e-38
1.03195e-38
1.03195e-38
1.03195e-38
1.03195e-38
1.03195e-38
1.03195e-38
1.03195e-38
1.03195e-38
1.03195e-38
2.26139e-46
2.38543e-46
2.27625e-46
2.27082e-46
2.27082e-46
2.27082e-46
2.27082e-46
2.27082e-46
2.27082e-46
2.27082e-46
2.27082e-46
2.27082e-46
2.27082e-46
2.27082e-46
2.27082e-46
2.27082e-46
2.27082e-46
2.27082e-46
1.93231e-46
1.22981e-45
9.43204e-49
1.14612e-47
-5.42723e-49
4.75342e-54
4.99699e-54
4.99699e-54
4.99699e-54
4.99699e-54
4.99699e-54
4.99699e-54
4.99699e-54
4.99699e-54
4.99699e-54
4.99699e-54
4.99699e-54
4.99699e-54
4.51359e-54
-1.08542e-48
1.01555e-46
-1.33697e-45
9.43203e-49
-1.1461e-47
-7.85284e-54
-1.91385e-60
1.09959e-61
1.0996e-61
1.0996e-61
1.0996e-61
1.0996e-61
1.0996e-61
1.0996e-61
1.0996e-61
1.0996e-61
1.0996e-61
1.0996e-61
4.16026e-61
1.4614e-54
3.25635e-48
-1.35407e-46
1.00273e-45
-9.43195e-49
-6.79745e-53
1.29752e-56
-4.5405e-63
2.43245e-69
2.41969e-69
2.41969e-69
2.41969e-69
2.41969e-69
2.41969e-69
2.41969e-69
2.41969e-69
2.41969e-69
2.41968e-69
-4.77554e-68
-4.08644e-61
-1.94481e-54
-4.34184e-48
1.01555e-46
-1.67121e-46
-5.54489e-54
-1.2339e-59
-1.68228e-61
-1.26747e-68
-1.22341e-75
5.32454e-77
5.32457e-77
5.32457e-77
5.32457e-77
5.32457e-77
5.32457e-77
5.32457e-77
5.32459e-77
2.97098e-75
3.76331e-68
3.06595e-61
1.46079e-54
3.25641e-48
-1.6926e-47
-3.34242e-46
-8.02361e-61
-6.45452e-63
1.17945e-68
-2.67214e-70
-1.89745e-77
-1.6282e-87
1.17168e-84
1.17168e-84
1.17168e-84
1.17168e-84
1.17168e-84
1.17168e-84
-2.3592e-83
-4.88045e-76
-6.30193e-69
-5.13998e-62
-2.44817e-55
-5.42752e-49
-3.38516e-47
3.34242e-46
-7.04261e-68
1.41903e-70
1.83796e-76
-5.8801e-78
-9.41123e-85
-5.82309e-92
2.57831e-92
2.57831e-92
2.57831e-92
2.57831e-92
2.57831e-92
-1.64957e-90
-4.93428e-83
-9.71227e-76
-1.25215e-68
-1.01967e-61
-4.85889e-55
-1.08546e-48
3.38516e-47
-3.34242e-46
-4.60713e-75
-2.65643e-76
-9.46991e-71
-4.23723e-77
-8.88057e-84
-1.08905e-90
-8.38157e-98
5.67359e-100
5.67363e-100
5.67364e-100
3.90526e-98
1.67536e-90
4.93428e-83
9.71229e-76
1.25215e-68
1.01967e-61
4.85889e-55
1.08546e-48
-3.38517e-47
1.68539e-46
-8.46407e-72
-4.20509e-69
-2.16817e-63
-9.69841e-70
-2.03234e-76
-2.4921e-83
-1.93086e-90
-9.80176e-98
-3.3136e-105
-7.82559e-106
-3.83878e-98
-1.67469e-90
-4.92788e-83
-9.71504e-76
-1.25303e-68
-1.01849e-61
-4.87199e-55
-1.08546e-48
1.97543e-47
-1.25837e-47
1.07668e-63
-8.15052e-62
-4.18005e-56
-1.86862e-62
-3.91459e-69
-4.79933e-76
-3.71808e-83
-1.8873e-90
-6.40394e-98
3.06384e-104
2.08047e-96
1.20273e-88
4.63831e-81
1.16516e-73
1.80784e-66
1.46236e-59
3.77032e-55
9.41748e-49
1.41036e-48
-1.25837e-47
1.39795e-56
-1.24067e-54
-5.42736e-49
-2.42161e-55
-5.06836e-62
-6.21054e-69
-4.80975e-76
-2.44088e-83
-8.28105e-91
-1.89451e-98
3.17013e-93
1.34572e-85
3.81961e-78
7.10683e-71
8.36572e-64
5.70975e-57
1.82743e-50
3.53541e-49
1.41036e-48
-1.40018e-47
-3.75005e-54
-1.14611e-47
4.97256e-49
1.82744e-50
5.69523e-57
8.30112e-64
7.07524e-71
3.80904e-78
1.3433e-85
3.16631e-93
3.1727e-93
1.34663e-85
3.81978e-78
7.09323e-71
8.30107e-64
5.6952e-57
1.82743e-50
3.5354e-49
-1.41809e-48
1.41809e-48
-9.43198e-49
1.05008e-47
7.75193e-49
1.82744e-50
5.69522e-57
8.30109e-64
7.07521e-71
3.80903e-78
1.34329e-85
3.1663e-93
3.16629e-93
1.34329e-85
3.80902e-78
7.07519e-71
8.30105e-64
5.69518e-57
1.82741e-50
-4.54708e-50
2.82846e-48
-1.40018e-47
8.64175e-49
1.07396e-47
8.20661e-49
2.7212e-55
4.24589e-62
3.94457e-69
1.80504e-73
1.07608e-80
3.34221e-88
6.40826e-96
3.11516e-99
1.41207e-91
5.05645e-84
1.26136e-76
2.05242e-69
2.17235e-62
1.34205e-55
3.99012e-49
-1.4181e-48
-2.60094e-53
8.81228e-49
1.16998e-47
4.00665e-54
-7.48967e-58
-4.31029e-65
1.34509e-71
1.96221e-78
7.97935e-86
2.14684e-93
1.33826e-100
3.16629e-93
1.34329e-85
3.80902e-78
7.07519e-71
8.30105e-64
5.69518e-57
1.82741e-50
-4.54718e-50
-8.41884e-53
-1.67121e-46
9.60243e-49
5.83531e-55
-5.42736e-49
-2.43569e-55
-5.11222e-62
-6.27447e-69
-4.86424e-76
-2.4702e-83
-8.38455e-91
-1.92558e-98
2.32079e-100
9.66311e-93
2.66992e-85
4.78587e-78
5.36329e-71
3.55269e-64
1.40562e-57
-8.08609e-54
-1.69258e-47
1.68539e-46
-3.63895e-54
-1.14611e-47
1.61786e-48
7.27456e-55
1.52826e-61
1.87332e-68
1.45392e-75
7.38812e-83
2.50865e-90
5.76265e-98
-1.92368e-98
-8.41454e-91
-2.47946e-83
-4.8791e-76
-6.28766e-69
-5.13131e-62
-2.43946e-55
-5.42727e-49
1.97544e-47
1.53119e-46
-9.5372e-49
-4.47598e-47
-1.99287e-43
-7.17427e-50
-1.32718e-56
-1.50472e-63
-1.10731e-70
-5.4308e-78
-1.80103e-85
-4.07374e-93
4.74135e-96
1.22823e-88
2.85893e-81
6.60975e-74
1.35283e-66
2.11517e-59
5.0517e-55
1.03093e-48
1.56142e-47
2.36833e-46
-4.68937e-43
-2.39189e-39
-2.58844e-36
-1.17924e-42
-2.4977e-49
-3.08708e-56
-2.40837e-63
-1.23069e-70
-4.20433e-78
-9.7208e-86
1.34844e-88
2.87469e-81
3.98284e-74
3.52317e-67
1.86908e-60
5.15992e-54
5.32949e-48
4.05236e-42
4.83426e-42
1.22385e-38
-2.53693e-35
-5.42809e-32
-3.69062e-32
-4.16717e-37
-1.41141e-43
-2.26225e-50
-2.1433e-57
-1.29681e-64
-5.18938e-72
-1.39547e-79
4.24914e-81
9.31527e-74
1.33243e-66
1.23617e-59
7.04169e-53
2.12736e-46
2.1775e-40
1.84155e-34
2.19473e-34
2.78094e-31
-1.15206e-27
-1.25739e-27
1.84614e-28
-2.84446e-32
-2.13764e-37
-6.3072e-44
-9.05161e-51
-7.74466e-58
-4.19756e-65
-1.46857e-72
1.32219e-73
2.97928e-66
4.37988e-59
4.24347e-52
2.60221e-45
8.78641e-39
8.82232e-33
8.36869e-27
9.96849e-27
1.36771e-27
3.02268e-27
2.04464e-27
-1.61219e-27
1.4893e-31
-1.7237e-36
1.08504e-42
3.50264e-49
4.82686e-56
3.86777e-63
1.95019e-70
-7.97792e-72
-9.57838e-65
-8.13874e-58
-4.60871e-51
-1.47848e-44
-1.09853e-38
3.69136e-33
-5.68758e-27
-6.67061e-27
3.10993e-28
1.43966e-27
1.45024e-27
-1.15503e-27
1.69496e-30
-1.09654e-34
9.37191e-40
2.4873e-46
3.18885e-53
2.45108e-60
1.20361e-67
-3.54309e-69
-4.23326e-62
-3.54904e-55
-1.93807e-48
-5.48087e-42
8.16716e-37
-2.25925e-32
5.80281e-28
3.434e-28
-1.69626e-27
-3.51348e-27
-6.38836e-27
3.9209e-27
3.68437e-30
-7.01506e-34
1.707e-38
4.48632e-45
5.72805e-52
4.39259e-59
2.15368e-66
-6.35609e-68
-7.61191e-61
-6.40341e-54
-3.51794e-47
-1.01032e-40
5.68371e-36
-4.57282e-32
-1.20488e-28
3.12782e-28
-4.10252e-29
-1.25399e-28
-3.71146e-28
-5.07168e-28
7.08751e-30
-2.35686e-33
1.06871e-37
2.80112e-44
3.5726e-51
2.73794e-58
1.34176e-65
-3.96292e-67
-4.74912e-60
-3.99958e-53
-2.20092e-46
-6.34769e-40
1.96796e-35
-9.18526e-32
1.29622e-29
1.48461e-29
-2.78788e-30
-5.89193e-30
-5.85727e-28
-5.16751e-28
1.12894e-29
-5.68749e-33
3.99833e-37
1.04689e-43
1.33458e-50
1.02249e-57
5.0096e-65
-1.47963e-66
-1.77384e-59
-1.49457e-52
-8.23133e-46
-2.37786e-39
4.82432e-35
-1.49774e-31
1.30584e-29
1.2347e-29
-5.59746e-31
4.60947e-30
-5.98747e-28
-5.27736e-28
1.61117e-29
-1.12319e-32
1.10415e-36
2.88918e-43
3.68224e-50
2.82056e-57
1.38175e-64
-4.08081e-66
-4.89329e-59
-4.12407e-52
-2.27223e-45
-6.57225e-39
9.61969e-35
-2.16723e-31
1.31685e-29
1.2486e-29
-6.57534e-31
1.87412e-29
-6.12851e-28
-5.40508e-28
2.14159e-29
-1.94128e-32
2.49449e-36
6.52491e-43
8.31449e-50
6.3682e-57
3.11927e-64
-9.21252e-66
-1.10477e-58
-9.31332e-52
-5.13293e-45
-1.48539e-38
1.67303e-34
-2.90452e-31
1.33339e-29
1.26262e-29
-8.23502e-31
3.32879e-29
-6.28173e-28
-5.53742e-28
2.70546e-29
-3.0517e-32
4.8898e-36
1.27877e-42
1.6293e-49
1.24776e-56
6.11155e-64
-1.80443e-65
-2.16429e-58
-1.82464e-51
-1.0059e-44
-2.91208e-38
2.64091e-34
-3.6966e-31
1.34194e-29
1.28209e-29
-8.97799e-31
4.72111e-29
-6.44503e-28
-5.66599e-28
3.29298e-29
-4.46783e-32
8.6236e-36
2.25482e-42
2.87263e-49
2.19985e-56
1.07739e-63
-3.18011e-65
-3.81448e-58
-3.21641e-51
-1.77329e-44
-5.13561e-38
3.88045e-34
-4.51647e-31
1.35087e-29
1.30039e-29
-9.69976e-31
6.43181e-29
-6.60223e-28
-5.82086e-28
3.89827e-29
-6.19284e-32
1.40156e-35
3.66412e-42
4.6678e-49
3.57438e-56
1.7505e-63
-5.16669e-65
-6.1978e-58
-5.22648e-51
-2.88188e-44
-8.34796e-38
5.39012e-34
-5.35787e-31
1.38694e-29
1.31098e-29
-1.35039e-30
7.9123e-29
-6.7717e-28
-5.95728e-28
4.50825e-29
-8.21952e-32
2.13503e-35
5.58137e-42
7.10995e-49
5.44417e-56
2.6661e-63
-7.86518e-65
-9.43542e-58
-7.95739e-51
-4.3882e-44
-1.27139e-37
7.16712e-34
-6.23601e-31
1.38851e-29
1.33651e-29
-1.34155e-30
9.64387e-29
-6.9317e-28
-6.11425e-28
5.12446e-29
-1.05287e-31
3.08593e-35
8.06649e-42
1.02753e-48
7.86767e-56
3.85282e-63
-1.13644e-64
-1.36342e-57
-1.14989e-50
-6.34177e-44
-1.83767e-37
9.2005e-34
-7.07336e-31
1.37843e-29
1.36102e-29
-1.19328e-30
1.14661e-28
-7.08802e-28
-6.27804e-28
5.73469e-29
-1.31032e-31
4.27074e-35
1.11628e-41
1.4219e-48
1.08871e-55
5.33127e-63
-1.57239e-64
-1.8865e-57
-1.59113e-50
-8.77593e-44
-2.54324e-37
1.14523e-33
-7.90904e-31
1.44714e-29
1.36045e-29
-1.94196e-30
1.2466e-28
-7.2634e-28
-6.37643e-28
6.32928e-29
-1.5908e-31
5.69995e-35
1.48978e-41
1.89759e-48
1.4529e-55
7.11449e-63
-2.09715e-64
-2.51624e-57
-2.12243e-50
-1.17066e-43
-3.39301e-37
1.39209e-33
-8.78939e-31
1.48563e-29
1.376e-29
-2.35536e-30
1.40162e-28
-7.4161e-28
-6.51859e-28
6.92702e-29
-1.89164e-31
7.37483e-35
1.92753e-41
2.45518e-48
1.87976e-55
9.20455e-63
-2.71307e-64
-3.25537e-57
-2.74579e-50
-1.51467e-43
-4.3905e-37
1.65692e-33
-9.58864e-31
1.43067e-29
1.41805e-29
-1.6997e-30
1.9189e-28
-7.54401e-28
-6.69371e-28
7.50488e-29
-2.21017e-31
9.29393e-35
2.42905e-41
3.09383e-48
2.36877e-55
1.15988e-62
-3.41764e-64
-4.1008e-57
-3.45928e-50
-1.90824e-43
-5.53151e-37
1.93608e-33
-1.03838e-30
1.3746e-29
1.45531e-29
-6.39958e-30
-3.86503e-28
6.01067e-27
-6.68534e-28
8.05951e-29
-2.54284e-31
1.14462e-34
2.99163e-41
3.81043e-48
2.91733e-55
1.42847e-62
-4.2079e-64
-5.04928e-57
-4.25929e-50
-2.34971e-43
-6.81166e-37
2.22832e-33
-1.12408e-30
1.49487e-29
2.46708e-27
-4.05916e-28
-3.91692e-25
-4.60286e-26
3.01974e-25
8.63713e-29
-2.88615e-31
1.38207e-34
3.6117e-41
4.60032e-48
3.52202e-55
1.72457e-62
-5.07889e-64
-6.0942e-57
-5.14141e-50
-2.83617e-43
-8.22207e-37
2.53301e-33
-1.33523e-30
-2.29389e-25
1.41647e-25
2.64538e-25
-4.02687e-24
-1.099e-24
3.16445e-24
-2.04036e-28
-3.23931e-31
1.63949e-34
4.28491e-41
5.4574e-48
4.17833e-55
2.04583e-62
-6.02429e-64
-7.22919e-57
-6.09848e-50
-3.36456e-43
-9.75561e-37
2.90225e-33
1.22601e-28
-6.75398e-24
5.84579e-26
7.17755e-24
-6.05418e-24
-2.10514e-24
4.74445e-24
-3.10946e-27
-2.2972e-31
1.91579e-34
5.0063e-41
6.37632e-48
4.88155e-55
2.39021e-62
-7.05203e-64
-8.46612e-57
-7.14707e-50
-3.94791e-43
-1.14807e-36
-1.81999e-32
1.82026e-27
5.9493e-25
1.61324e-22
-5.44363e-24
4.03829e-25
-1.16227e-24
-1.12001e-25
-5.07876e-27
6.98799e-31
1.98093e-34
5.0365e-41
6.21505e-48
4.59251e-55
2.16407e-62
-1.85402e-65
-2.24927e-58
-1.97951e-51
-1.22227e-44
-4.93291e-38
-1.0458e-31
-1.64795e-28
1.27377e-23
3.27919e-22
4.21676e-21
5.13101e-24
-8.25502e-25
-3.46673e-24
-2.00454e-27
1.32372e-30
1.05402e-34
2.63038e-41
3.17929e-48
2.29663e-55
1.05632e-62
-1.32283e-68
-2.41809e-61
-3.08465e-54
-2.76132e-47
-1.67362e-40
-6.36964e-34
-1.21893e-27
-9.13695e-25
-1.64958e-22
-5.93317e-21
6.57575e-24
-7.38974e-25
-4.0731e-24
1.49059e-27
9.10313e-31
2.98554e-35
7.30139e-42
8.63852e-49
6.09709e-56
2.73711e-63
9.26312e-71
-5.47212e-65
-1.03444e-57
-1.3621e-50
-1.22095e-43
-7.1664e-37
-2.54401e-30
-4.35782e-24
-2.56058e-22
-7.156e-21
5.73373e-24
6.6897e-25
-2.89185e-24
2.35324e-27
2.77555e-31
2.71219e-36
6.45445e-43
7.45278e-50
5.13132e-57
2.24617e-64
7.59209e-72
-1.87963e-71
-3.33494e-64
-4.18643e-57
-3.62306e-50
-2.07724e-43
-7.30856e-37
-1.28646e-30
-2.1691e-25
-4.05226e-23
1.46291e-24
1.75797e-24
5.62498e-25
6.48139e-28
1.68356e-32
1.02804e-38
1.94416e-45
1.98956e-52
1.25781e-59
5.14546e-67
1.65706e-74
-3.95152e-78
-6.45215e-71
-7.60694e-64
-6.28361e-57
-3.4879e-50
-1.20758e-43
-2.16699e-37
-7.03072e-32
-1.80465e-26
1.4633e-24
1.75813e-24
5.62335e-25
6.4822e-28
1.68357e-32
1.02812e-38
1.94362e-45
1.98929e-52
1.25742e-59
5.14367e-67
1.65652e-74
2.82047e-77
3.96911e-70
3.84783e-63
2.48876e-56
1.02362e-49
2.46933e-43
3.00113e-37
1.46086e-31
4.49451e-26
5.73433e-24
6.68961e-25
-2.89208e-24
2.35334e-27
2.7757e-31
2.71187e-36
6.45457e-43
7.45241e-50
5.13137e-57
2.24613e-64
7.59187e-72
6.59876e-71
1.0644e-63
1.18594e-56
8.87207e-50
4.25981e-43
1.20607e-36
1.64111e-30
4.12049e-25
-8.30989e-23
6.57608e-24
-7.3922e-25
-4.07321e-24
1.49068e-27
9.10286e-31
2.98564e-35
7.30129e-42
8.63848e-49
6.09705e-56
2.73715e-63
9.7226e-71
6.79272e-65
1.28279e-57
1.68819e-50
1.5128e-43
8.87799e-37
3.15138e-30
5.39812e-24
-4.20723e-22
1.54763e-20
5.13116e-24
-8.25727e-25
-3.46677e-24
-2.0046e-27
1.32383e-30
1.05398e-34
2.63034e-41
3.17934e-48
2.29657e-55
1.05632e-62
1.70497e-68
2.94748e-61
3.73078e-54
3.30529e-47
1.97693e-40
7.40279e-34
1.39051e-27
5.28682e-25
-2.64036e-22
1.30296e-20
4.03842e-25
-1.16243e-24
-1.11993e-25
-5.0792e-27
6.98847e-31
1.98095e-34
5.03674e-41
6.21515e-48
4.59267e-55
2.16415e-62
2.1713e-65
2.5633e-58
2.17325e-51
1.27742e-44
4.84643e-38
9.55297e-32
-6.49049e-29
-1.58015e-23
5.39426e-22
-1.24184e-20
-6.05447e-24
-2.10525e-24
4.74464e-24
-3.10964e-27
-2.29779e-31
1.91588e-34
5.00622e-41
6.37633e-48
4.88164e-55
2.39016e-62
-7.05116e-64
-8.46555e-57
-7.14678e-50
-3.948e-43
-1.14836e-36
-2.02806e-32
-2.08486e-27
4.30946e-25
2.55754e-22
-9.55357e-24
-4.02711e-24
-1.09905e-24
3.16462e-24
-2.03927e-28
-3.23986e-31
1.6395e-34
4.28492e-41
5.4575e-48
4.17824e-55
2.04588e-62
-6.02438e-64
-7.22912e-57
-6.09859e-50
-3.36456e-43
-9.75527e-37
2.89928e-33
1.31418e-28
8.34601e-24
-1.39949e-26
-1.09846e-23
-3.91679e-25
-4.60189e-26
3.01962e-25
8.65074e-29
-2.88622e-31
1.38198e-34
3.61176e-41
4.60012e-48
3.52198e-55
1.72452e-62
-5.07955e-64
-6.09533e-57
-5.14207e-50
-2.83667e-43
-8.22421e-37
2.53324e-33
-1.31462e-30
-2.29394e-25
-1.88841e-26
2.59239e-25
-3.63706e-28
6.01985e-27
-6.86603e-28
8.06217e-29
-2.54256e-31
1.1447e-34
2.99159e-41
3.81043e-48
2.91736e-55
1.42846e-62
-4.20793e-64
-5.04907e-57
-4.25933e-50
-2.34959e-43
-6.81105e-37
2.23019e-33
-1.12338e-30
1.59683e-29
2.46683e-27
-5.75235e-29
1.79425e-28
-7.57342e-28
-6.59445e-28
7.4992e-29
-2.21029e-31
9.29392e-35
2.42902e-41
3.09387e-48
2.36876e-55
1.15988e-62
-3.41755e-64
-4.10087e-57
-3.45907e-50
-1.90832e-43
-5.53167e-37
1.93619e-33
-1.04534e-30
1.48254e-29
1.42011e-29
-7.62644e-30
1.41074e-28
-7.40278e-28
-6.52584e-28
6.92701e-29
-1.89175e-31
7.37479e-35
1.92752e-41
2.45518e-48
1.87974e-55
9.20459e-63
-2.71286e-64
-3.25502e-57
-2.74568e-50
-1.51451e-43
-4.38979e-37
1.65669e-33
-9.59652e-31
1.41949e-29
1.4189e-29
-1.56606e-30
1.23936e-28
-7.26122e-28
-6.3703e-28
6.33014e-29
-1.59077e-31
5.69975e-35
1.48977e-41
1.89756e-48
1.4529e-55
7.1144e-63
-2.09752e-64
-2.51665e-57
-2.12272e-50
-1.17085e-43
-3.39348e-37
1.39178e-33
-8.75368e-31
1.44037e-29
1.38875e-29
-1.8367e-30
1.14852e-28
-7.08414e-28
-6.27925e-28
5.73492e-29
-1.3103e-31
4.27076e-35
1.1163e-41
1.42191e-48
1.08871e-55
5.33129e-63
-1.57218e-64
-1.88626e-57
-1.59096e-50
-8.77488e-44
-2.54308e-37
1.1457e-33
-7.92576e-31
1.41408e-29
1.3744e-29
-1.56913e-30
9.68867e-29
-6.92752e-28
-6.11761e-28
5.12425e-29
-1.0529e-31
3.08593e-35
8.06643e-42
1.02753e-48
7.86773e-56
3.85282e-63
-1.13644e-64
-1.3634e-57
-1.14988e-50
-6.34184e-44
-1.83772e-37
9.19711e-34
-7.08454e-31
1.40343e-29
1.35469e-29
-1.48051e-30
7.8858e-29
-6.7712e-28
-5.955e-28
4.50847e-29
-8.21943e-32
2.13504e-35
5.58141e-42
7.10976e-49
5.44416e-56
2.66607e-63
-7.86614e-65
-9.4364e-58
-7.9584e-51
-4.38837e-44
-1.27148e-37
7.16829e-34
-6.2193e-31
1.39513e-29
1.33328e-29
-1.41574e-30
6.44216e-29
-6.60109e-28
-5.82144e-28
3.89837e-29
-6.19305e-32
1.40152e-35
3.66409e-42
4.66791e-49
3.57437e-56
1.75051e-63
-5.16612e-65
-6.19714e-58
-5.22591e-51
-2.88167e-44
-8.34727e-38
5.39089e-34
-5.36402e-31
1.37884e-29
1.31439e-29
-1.25926e-30
4.73712e-29
-6.44377e-28
-5.66714e-28
3.29299e-29
-4.46781e-32
8.62356e-36
2.25481e-42
2.8726e-49
2.19983e-56
1.07738e-63
-3.18012e-65
-3.81461e-58
-3.21644e-51
-1.77336e-44
-5.13584e-38
3.87988e-34
-4.51898e-31
1.35687e-29
1.29876e-29
-1.03903e-30
3.32654e-29
-6.28153e-28
-5.5371e-28
2.70554e-29
-3.05168e-32
4.88981e-36
1.27877e-42
1.62929e-49
1.24778e-56
6.11148e-64
-1.80445e-65
-2.16431e-58
-1.82466e-51
-1.0059e-44
-2.91195e-38
2.64116e-34
-3.69439e-31
1.34474e-29
1.28033e-29
-9.28134e-31
1.88558e-29
-6.12783e-28
-5.4059e-28
2.14161e-29
-1.94133e-32
2.49443e-36
6.52489e-43
8.31456e-50
6.36808e-57
3.11933e-64
-9.21243e-66
-1.10477e-58
-9.31322e-52
-5.1328e-45
-1.48536e-38
1.67301e-34
-2.90498e-31
1.33015e-29
1.26377e-29
-7.8655e-31
4.59816e-30
-5.98737e-28
-5.2772e-28
1.6112e-29
-1.12319e-32
1.10418e-36
2.88919e-43
3.6822e-50
2.82058e-57
1.38172e-64
-4.0808e-66
-4.89322e-59
-4.12411e-52
-2.27226e-45
-6.57183e-39
9.61966e-35
-2.16728e-31
1.31646e-29
1.24894e-29
-6.53603e-31
-5.88276e-30
-5.85718e-28
-5.16751e-28
1.12896e-29
-5.68753e-33
3.99845e-37
1.04685e-43
1.33459e-50
1.02247e-57
5.00968e-65
-1.47966e-66
-1.77382e-59
-1.49458e-52
-8.23119e-46
-2.37832e-39
4.82397e-35
-1.49778e-31
1.30618e-29
1.23468e-29
-5.63836e-31
-1.25385e-28
-3.71134e-28
-5.07173e-28
7.08766e-30
-2.35689e-33
1.0687e-37
2.80112e-44
3.5726e-51
2.73794e-58
1.34174e-65
-3.96296e-67
-4.74925e-60
-3.99965e-53
-2.20095e-46
-6.34681e-40
1.96823e-35
-9.18534e-32
1.29643e-29
1.4845e-29
-2.79013e-30
-3.51412e-27
-6.38861e-27
3.92135e-27
3.68449e-30
-7.01516e-34
1.707e-38
4.48633e-45
5.72805e-52
4.39268e-59
2.15365e-66
-6.35598e-68
-7.6117e-61
-6.40344e-54
-3.51783e-47
-1.01021e-40
5.68387e-36
-4.57292e-32
-1.20511e-28
3.128e-28
-4.09986e-29
1.43979e-27
1.45035e-27
-1.15514e-27
1.69504e-30
-1.09657e-34
9.37128e-40
2.48741e-46
3.18878e-53
2.45103e-60
1.20365e-67
-3.54226e-69
-4.23214e-62
-3.54793e-55
-1.9377e-48
-5.48042e-42
8.16652e-37
-2.25958e-32
5.80342e-28
3.43471e-28
-1.69638e-27
3.02359e-27
2.0448e-27
-1.61281e-27
1.48936e-31
-1.72398e-36
1.08496e-42
3.50258e-49
4.82682e-56
3.86776e-63
1.9502e-70
-7.98115e-72
-9.58451e-65
-8.14278e-58
-4.61097e-51
-1.47911e-44
-1.09799e-38
3.69614e-33
-5.6875e-27
-6.6707e-27
3.10914e-28
-1.15239e-27
-1.25755e-27
1.84888e-28
-2.84391e-32
-2.13765e-37
-6.30724e-44
-9.05168e-51
-7.74472e-58
-4.19759e-65
-1.46858e-72
1.32288e-73
2.9806e-66
4.38176e-59
4.24519e-52
2.60311e-45
8.78803e-39
8.81527e-33
8.36836e-27
9.96838e-27
1.3681e-27
-6.38118e-32
-2.84175e-35
4.06797e-36
-6.25286e-40
-4.75962e-45
-1.68224e-51
-2.71422e-58
-2.51364e-65
-1.44423e-72
-5.3086e-80
-6.08098e-81
-2.39326e-73
-5.80588e-66
-8.52471e-59
-6.7938e-52
-1.40597e-45
2.12086e-38
1.61099e-31
2.35705e-31
3.02585e-35
-2.80787e-39
-6.42266e-43
8.95163e-44
-1.37299e-47
-1.05955e-52
-4.35693e-59
-7.84359e-66
-7.87029e-73
-4.80788e-80
-1.85959e-87
1.2482e-85
5.43752e-78
1.60274e-70
3.15754e-63
4.07496e-56
3.32202e-49
1.584e-42
3.53458e-36
1.03748e-38
6.70656e-43
-9.26738e-47
-9.74758e-49
1.36536e-48
2.13196e-55
-2.26464e-60
-1.09435e-66
-2.19311e-73
-2.38463e-80
-1.55143e-87
-6.32234e-95
1.27936e-92
5.53628e-85
1.6165e-77
3.14112e-70
3.96993e-63
3.12836e-56
1.4023e-49
2.71915e-43
3.28613e-46
1.53131e-46
-7.90191e-50
2.31609e-47
-1.13093e-48
1.82736e-50
5.69507e-57
8.30093e-64
7.07509e-71
3.80897e-78
1.34327e-85
3.16625e-93
3.69008e-96
2.05491e-88
7.4476e-81
1.66572e-73
1.93952e-66
-2.84517e-62
-1.02951e-55
-1.29617e-49
1.55078e-47
4.47058e-53
1.90344e-48
-2.38824e-47
2.44885e-48
1.00146e-54
1.95751e-61
2.27311e-68
1.81959e-73
1.08346e-80
3.36729e-88
6.46606e-96
3.16631e-93
1.3433e-85
3.80904e-78
7.07524e-71
8.30112e-64
5.69523e-57
1.82744e-50
4.97264e-49
8.51403e-53
1.67121e-46
-1.96541e-48
4.6083e-47
-1.08544e-48
-4.87621e-55
-1.02351e-61
-1.24238e-68
-9.63361e-76
-4.90174e-83
-1.66514e-90
-3.82562e-98
2.45191e-100
1.04379e-92
2.97799e-85
5.59753e-78
6.73809e-71
4.94292e-64
2.0316e-57
8.08503e-54
1.69258e-47
-1.67121e-46
3.78983e-48
-2.2922e-47
-1.57429e-53
-4.06859e-60
-5.80911e-67
-6.75459e-71
-2.90451e-78
-8.67358e-86
-1.79481e-93
-2.58907e-101
1.92446e-98
8.37768e-91
2.46758e-83
4.85761e-76
6.26418e-69
5.10389e-62
2.43567e-55
5.42728e-49
-1.69259e-47
1.41807e-48
-1.88639e-48
-1.35444e-52
-1.94642e-56
9.89803e-63
-5.09025e-70
4.42036e-76
7.05818e-84
2.13229e-91
-1.253e-98
-5.67867e-106
-1.93292e-98
-8.3981e-91
-2.46782e-83
-4.86736e-76
-6.28111e-69
-5.12382e-62
-2.43174e-55
-5.42735e-49
2.82846e-48
-1.40018e-47
-1.10451e-53
-8.20082e-55
-4.18005e-56
-1.86862e-62
-3.91459e-69
-4.79933e-76
-3.71809e-83
-1.8873e-90
-6.40394e-98
4.47414e-103
1.7916e-95
1.23837e-88
5.97807e-81
2.00427e-73
4.66659e-66
2.11946e-62
1.33618e-55
3.99011e-49
-1.41809e-48
1.41809e-48
-5.31262e-56
-1.26013e-54
-5.42736e-49
-2.42161e-55
-5.06836e-62
-6.21054e-69
-4.80975e-76
-2.44088e-83
-8.28105e-91
-1.89452e-98
3.16629e-93
1.34329e-85
3.80902e-78
7.07519e-71
8.30105e-64
5.69518e-57
1.82741e-50
-4.54708e-50
2.82846e-48
-1.25837e-47
-3.77407e-54
-1.14611e-47
1.03999e-48
1.82746e-50
5.69528e-57
8.30118e-64
7.07529e-71
3.80907e-78
1.34331e-85
3.16633e-93
2.80223e-95
1.94849e-87
5.18969e-84
1.2339e-76
2.0347e-69
2.16606e-62
1.34816e-55
3.99013e-49
1.41036e-48
-1.25837e-47
-9.43194e-49
2.19619e-47
2.77937e-49
2.7407e-56
-8.66406e-63
-2.35085e-69
-2.54788e-76
-1.55446e-83
-5.93149e-91
-1.46075e-98
3.18243e-93
1.34329e-85
3.80902e-78
7.0752e-71
8.30107e-64
5.6952e-57
1.82743e-50
3.53541e-49
1.41036e-48
-1.40018e-47
1.80737e-48
2.38795e-49
-3.82811e-54
-2.17431e-58
-3.87e-65
-3.58996e-72
1.05035e-78
8.32689e-87
-2.32386e-93
-4.24271e-101
3.16807e-93
1.34453e-85
3.815e-78
7.09524e-71
8.34772e-64
5.6952e-57
1.82743e-50
3.5354e-49
-1.41801e-48
1.67121e-46
1.70529e-50
-6.64973e-53
-6.45267e-56
-2.9312e-62
-5.05604e-69
-6.08744e-76
-5.48716e-83
-1.86524e-90
-4.88264e-98
6.66551e-101
3.16629e-93
1.34329e-85
3.80902e-78
7.07519e-71
8.30105e-64
5.69518e-57
1.82741e-50
-4.54637e-50
1.69257e-47
-3.34242e-46
-5.4937e-54
-1.69395e-54
-5.42736e-49
-2.43569e-55
-5.11223e-62
-6.27448e-69
-4.86424e-76
-2.47021e-83
-8.38451e-91
-1.92557e-98
1.91608e-98
8.25244e-91
2.49866e-83
4.91577e-76
6.33152e-69
5.14496e-62
2.43728e-55
5.4272e-49
-3.38516e-47
3.34242e-46
-3.81712e-54
-1.14611e-47
-5.42744e-49
-2.43571e-55
-5.11225e-62
-6.2745e-69
-4.86425e-76
-2.47022e-83
-8.38452e-91
-1.92534e-98
-3.8302e-98
-1.67536e-90
-4.93427e-83
-9.71227e-76
-1.25215e-68
-1.01967e-61
-4.85889e-55
-1.08546e-48
3.38516e-47
-3.34242e-46
-9.43205e-49
-1.14612e-47
1.6282e-48
7.32112e-55
1.53805e-61
1.88873e-68
1.46369e-75
7.43383e-83
2.52362e-90
6.63492e-95
-3.00377e-95
1.67537e-90
4.93427e-83
9.71227e-76
1.25215e-68
1.01967e-61
4.85889e-55
1.08546e-48
-3.38518e-47
-1.67121e-46
-9.43195e-49
3.43833e-47
4.97288e-49
1.82744e-50
5.69523e-57
8.30112e-64
7.07524e-71
3.80904e-78
1.29564e-85
1.83798e-87
-8.33887e-88
5.15035e-88
-4.94473e-83
-9.74038e-76
-1.25715e-68
-1.02526e-61
-4.87139e-55
-1.08548e-48
-1.69256e-47
6.69902e-46
2.8296e-48
1.05011e-47
-8.07542e-49
-4.60103e-55
1.44406e-59
1.7847e-66
2.94963e-73
4.64109e-79
-1.27183e-79
4.90467e-80
-2.22524e-80
1.37889e-80
-2.60177e-80
-4.85505e-76
-6.18649e-69
-5.08747e-62
-2.41557e-55
-5.42703e-49
7.05316e-47
-6.82485e-46
8.64186e-49
-2.26835e-47
5.42716e-49
2.46719e-55
5.1556e-62
2.29721e-68
-2.7678e-71
1.12974e-71
-3.20142e-72
1.2346e-72
-5.60134e-73
3.47092e-73
-6.54299e-73
1.82106e-72
2.70692e-68
2.25608e-61
1.10659e-54
2.56992e-48
-6.91213e-47
6.69902e-46
-1.86935e-48
1.14609e-47
4.97272e-49
1.82744e-50
5.69522e-57
1.42145e-63
-6.33724e-64
2.58659e-64
-7.32976e-65
2.82665e-65
-1.28245e-65
7.94679e-66
-1.49804e-65
4.16464e-65
7.8404e-64
5.69497e-57
1.82731e-50
-2.21638e-48
7.05318e-47
-3.48244e-46
9.43188e-49
1.05009e-47
-3.10279e-49
1.82742e-50
-3.5155e-56
1.14005e-56
-1.22177e-56
4.98674e-57
-1.41312e-57
5.44955e-58
-2.47245e-58
1.53208e-58
-2.8881e-58
8.02908e-58
-8.87952e-58
-3.1669e-57
1.13053e-54
2.56994e-48
-3.52698e-47
-4.94818e-53
8.6418e-49
-1.21826e-47
-6.56386e-48
4.50558e-48
-5.30396e-49
1.48024e-49
-1.58634e-49
6.47475e-50
-1.83478e-50
7.07566e-51
-3.21022e-51
1.98924e-51
-3.74989e-51
1.04249e-50
-1.15291e-50
-4.13108e-50
3.06098e-49
-2.14385e-48
2.47462e-48
-1.3186e-48
-1.00522e-48
-1.44241e-46
2.02338e-46
-1.66768e-47
3.28662e-48
-2.53014e-48
7.66624e-49
-1.71051e-49
5.70197e-50
-1.91588e-50
7.28341e-51
-9.53465e-51
2.29198e-50
-2.59289e-50
-1.07482e-49
9.51085e-49
-4.50871e-48
1.53341e-47
-2.1186e-47
2.7602e-46
-1.18722e-47
2.8685e-45
-1.65306e-46
2.29399e-47
-1.26085e-47
2.79875e-48
-4.78006e-49
1.3031e-49
-3.90917e-50
1.12061e-50
-9.98867e-51
1.90195e-50
-1.95541e-50
-7.76038e-50
7.11864e-49
-3.86002e-48
1.64183e-47
-3.38499e-47
2.57904e-46
-1.37287e-45
5.09071e-20
-7.81035e-21
-4.31652e-20
3.61461e-24
2.58001e-25
-9.62456e-26
1.65008e-24
2.36504e-20
1.6836e-21
-2.62974e-20
-7.10601e-21
-8.32359e-21
6.6562e-21
1.62421e-22
-4.76532e-26
1.49677e-26
7.86187e-23
-4.20837e-21
5.25451e-21
4.05596e-21
-1.67552e-20
1.24983e-21
1.67057e-20
-3.89514e-24
-3.99557e-26
1.3317e-26
-1.03557e-24
-9.63771e-21
4.64611e-22
9.48835e-21
-9.23796e-24
-4.55606e-22
-1.96044e-23
-3.43198e-24
-3.30597e-26
1.17607e-26
-1.00215e-24
-8.99029e-25
-2.43189e-22
8.5117e-24
1.48283e-23
-5.46241e-24
-1.77979e-23
-2.99432e-24
-2.70125e-26
1.02561e-26
-9.6952e-25
-5.98889e-25
3.34242e-24
2.89475e-24
1.02763e-23
-5.42795e-24
-1.6119e-23
-2.59278e-24
-2.17474e-26
8.81145e-27
-9.30741e-25
-2.75949e-25
3.52806e-24
4.26578e-24
8.84552e-24
-5.37056e-24
-1.45608e-23
-2.22523e-24
-1.71983e-26
7.43616e-27
-8.85338e-25
7.38962e-26
3.71629e-24
4.04643e-24
7.53612e-24
-5.29413e-24
-1.31173e-23
-1.88878e-24
-1.33075e-26
6.14e-27
-8.328e-25
4.53971e-25
3.9068e-24
3.79816e-24
6.33807e-24
-5.20095e-24
-1.17797e-23
-1.58121e-24
-1.00212e-26
4.93347e-27
-7.72584e-25
8.65852e-25
4.09915e-24
3.51911e-24
5.24266e-24
-5.09313e-24
-1.05406e-23
-1.3006e-24
-7.28695e-27
3.82777e-27
-7.04116e-25
1.3108e-24
4.29311e-24
3.20773e-24
4.24254e-24
-4.9728e-24
-9.3936e-24
-1.04496e-24
-5.05822e-27
2.83491e-27
-6.26783e-25
1.79176e-24
4.4882e-24
2.86072e-24
3.32993e-24
-4.84174e-24
-8.33198e-24
-8.12531e-25
-3.29058e-27
1.96765e-27
-5.3993e-25
2.31098e-24
4.68389e-24
2.47567e-24
2.50326e-24
-4.69223e-24
-7.35038e-24
-6.01571e-25
-1.94302e-27
1.23968e-27
-4.42865e-25
2.8709e-24
4.89797e-24
2.03866e-24
2.00623e-24
-4.88677e-24
-6.63866e-24
-4.10514e-25
-9.77581e-28
6.65574e-28
-3.34845e-25
3.82367e-24
4.48753e-24
1.39285e-24
-1.62076e-24
-6.63346e-24
-2.22233e-24
-2.37307e-25
-3.58866e-28
2.60882e-28
-2.14233e-25
-3.00897e-25
9.80204e-24
4.64877e-24
7.18934e-24
-5.14973e-24
-9.54793e-24
-8.66543e-26
-5.73508e-29
4.50481e-29
-8.73168e-26
1.08758e-23
5.85614e-24
-8.70281e-24
)
;

boundaryField
{
    wall-4
    {
        type            zeroGradient;
    }
    pressure-outlet-7
    {
        type            zeroGradient;
    }
    velocity-inlet-6
    {
        type            fixedValue;
        value           uniform 0;
    }
    velocity-inlet-5
    {
        type            fixedValue;
        value           uniform 1;
    }
    frontAndBackPlanes
    {
        type            empty;
    }
}


// ************************************************************************* //
