/*--------------------------------*- C++ -*----------------------------------*\
  =========                 |
  \\      /  F ield         | OpenFOAM: The Open Source CFD Toolbox
   \\    /   O peration     | Website:  https://openfoam.org
    \\  /    A nd           | Version:  6
     \\/     M anipulation  |
\*---------------------------------------------------------------------------*/
FoamFile
{
    version     2.0;
    format      ascii;
    class       volVectorField;
    location    "0";
    object      Ulift0;
}
// * * * * * * * * * * * * * * * * * * * * * * * * * * * * * * * * * * * * * //

dimensions      [0 1 -1 0 0 0 0];

internalField   nonuniform List<vector> 
2200
(
(1.00006 1.55515e-05 0)
(1.00006 5.01173e-05 0)
(1.00006 9.16726e-05 0)
(1.00006 0.000140626 0)
(1.00006 0.000197451 0)
(1.00005 0.000261927 0)
(1.00005 0.000332388 0)
(1.00004 0.000404488 0)
(1.00003 0.000469351 0)
(1.00001 0.000511201 0)
(0.99999 0.00051102 0)
(0.999973 0.000468926 0)
(0.99996 0.000404101 0)
(0.999952 0.000332347 0)
(0.999947 0.00026242 0)
(0.999944 0.000198439 0)
(0.999942 0.000141885 0)
(0.999941 9.29359e-05 0)
(0.999941 5.11967e-05 0)
(0.99994 1.60295e-05 0)
(1.00019 1.67733e-05 0)
(1.00019 5.33585e-05 0)
(1.00019 9.67836e-05 0)
(1.00019 0.000148227 0)
(1.00018 0.000208245 0)
(1.00017 0.00027657 0)
(1.00015 0.000351351 0)
(1.00012 0.000427888 0)
(1.00008 0.000496707 0)
(1.00003 0.000541076 0)
(0.999969 0.000540842 0)
(0.999917 0.000496044 0)
(0.999878 0.000426873 0)
(0.999851 0.000350103 0)
(0.999833 0.0002753 0)
(0.999822 0.000207244 0)
(0.999815 0.000147778 0)
(0.999811 9.70752e-05 0)
(0.99981 5.44755e-05 0)
(0.999809 1.75436e-05 0)
(1.00033 1.86967e-05 0)
(1.00033 5.97824e-05 0)
(1.00033 0.000108633 0)
(1.00032 0.000166089 0)
(1.00031 0.000232819 0)
(1.00029 0.000308654 0)
(1.00026 0.000391671 0)
(1.00021 0.000476723 0)
(1.00014 0.000553279 0)
(1.00005 0.00060268 0)
(0.999947 0.000602501 0)
(0.999856 0.000552865 0)
(0.999789 0.000476278 0)
(0.999741 0.000391266 0)
(0.99971 0.000308196 0)
(0.999689 0.000232135 0)
(0.999677 0.000165078 0)
(0.99967 0.000107367 0)
(0.999666 5.85081e-05 0)
(0.999665 1.80976e-05 0)
(1.00049 2.15424e-05 0)
(1.00049 6.88837e-05 0)
(1.00049 0.000125375 0)
(1.00048 0.00019214 0)
(1.00046 0.00026983 0)
(1.00043 0.000358107 0)
(1.00038 0.000454635 0)
(1.00031 0.000553415 0)
(1.00021 0.000642246 0)
(1.00008 0.000699496 0)
(0.999922 0.000699136 0)
(0.999786 0.000641313 0)
(0.999687 0.000552204 0)
(0.999618 0.000453434 0)
(0.999572 0.00035717 0)
(0.999542 0.000269331 0)
(0.999524 0.000192108 0)
(0.999514 0.00012569 0)
(0.999509 6.93209e-05 0)
(0.999507 2.17599e-05 0)
(1.00068 2.59527e-05 0)
(1.00068 8.28562e-05 0)
(1.00067 0.000150522 0)
(1.00066 0.000230349 0)
(1.00063 0.000323219 0)
(1.00059 0.000428801 0)
(1.00053 0.000544318 0)
(1.00043 0.000662555 0)
(1.00029 0.000768863 0)
(1.00011 0.000837334 0)
(0.999892 0.000836847 0)
(0.999704 0.000767618 0)
(0.999567 0.000660942 0)
(0.999471 0.000542613 0)
(0.999407 0.000427151 0)
(0.999366 0.000321705 0)
(0.999341 0.000229048 0)
(0.999326 0.000149529 0)
(0.999319 8.22773e-05 0)
(0.999317 2.57801e-05 0)
(1.00091 3.16505e-05 0)
(1.00091 0.000101189 0)
(1.0009 0.000184049 0)
(1.00088 0.000281817 0)
(1.00085 0.000395517 0)
(1.00079 0.000524717 0)
(1.00071 0.000666024 0)
(1.00058 0.000810615 0)
(1.00039 0.000940563 0)
(1.00014 0.00102416 0)
(0.999855 0.0010234 0)
(0.999605 0.000938619 0)
(0.999422 0.000808187 0)
(0.999294 0.000663656 0)
(0.999209 0.000522722 0)
(0.999154 0.000394002 0)
(0.99912 0.000280748 0)
(0.999101 0.000183326 0)
(0.999091 0.000100699 0)
(0.999088 3.14505e-05 0)
(1.0012 3.93719e-05 0)
(1.00119 0.000125728 0)
(1.00118 0.000228504 0)
(1.00115 0.000349826 0)
(1.00111 0.000490974 0)
(1.00104 0.000651388 0)
(1.00092 0.000826816 0)
(1.00076 0.00100626 0)
(1.00051 0.00116744 0)
(1.00019 0.00127098 0)
(0.99981 0.00126976 0)
(0.999483 0.00116431 0)
(0.999243 0.00100226 0)
(0.999075 0.00082273 0)
(0.998964 0.000647718 0)
(0.998892 0.000487985 0)
(0.998848 0.000347632 0)
(0.998823 0.000227112 0)
(0.998811 0.000125075 0)
(0.998806 3.92187e-05 0)
(1.00155 4.93201e-05 0)
(1.00155 0.000157617 0)
(1.00153 0.00028658 0)
(1.0015 0.000438722 0)
(1.00144 0.000615647 0)
(1.00134 0.000816666 0)
(1.0012 0.00103644 0)
(1.00098 0.00126118 0)
(1.00067 0.00146291 0)
(1.00024 0.00159227 0)
(0.999753 0.00159034 0)
(0.99933 0.001458 0)
(0.999019 0.00125498 0)
(0.998803 0.00103025 0)
(0.998658 0.000811203 0)
(0.998565 0.000611222 0)
(0.998509 0.000435379 0)
(0.998477 0.00028425 0)
(0.99846 0.0001562 0)
(0.998454 4.88269e-05 0)
(1.002 6.22349e-05 0)
(1.00199 0.000198798 0)
(1.00197 0.000361382 0)
(1.00193 0.000553276 0)
(1.00185 0.00077647 0)
(1.00173 0.00103003 0)
(1.00154 0.00130717 0)
(1.00126 0.0015904 0)
(1.00086 0.00184438 0)
(1.00031 0.00200686 0)
(0.999682 0.00200372 0)
(0.999138 0.0018364 0)
(0.998739 0.00158029 0)
(0.998461 0.00129701 0)
(0.998275 0.00102108 0)
(0.998156 0.000769317 0)
(0.998083 0.000548065 0)
(0.998042 0.000357995 0)
(0.998021 0.000196984 0)
(0.998013 6.16848e-05 0)
(1.00256 7.88607e-05 0)
(1.00255 0.000251932 0)
(1.00252 0.000457953 0)
(1.00247 0.000701014 0)
(1.00237 0.00098364 0)
(1.00222 0.00130464 0)
(1.00198 0.00165537 0)
(1.00161 0.00201359 0)
(1.00109 0.00233444 0)
(1.00039 0.00253911 0)
(0.999591 0.00253409 0)
(0.998894 0.00232167 0)
(0.998384 0.00199741 0)
(0.998028 0.00163911 0)
(0.997791 0.00129025 0)
(0.997639 0.000971978 0)
(0.997546 0.000692285 0)
(0.997493 0.000452029 0)
(0.997466 0.000248553 0)
(0.997456 7.77706e-05 0)
(1.00328 0.000100122 0)
(1.00326 0.000319897 0)
(1.00323 0.000581581 0)
(1.00316 0.000890334 0)
(1.00304 0.00124929 0)
(1.00284 0.00165685 0)
(1.00252 0.00210189 0)
(1.00206 0.00255604 0)
(1.0014 0.0029622 0)
(1.0005 0.00322029 0)
(0.999474 0.00321217 0)
(0.998586 0.00294158 0)
(0.997934 0.00252992 0)
(0.997481 0.00207567 0)
(0.997179 0.00163374 0)
(0.996985 0.00123075 0)
(0.996867 0.000876702 0)
(0.996799 0.000572559 0)
(0.996765 0.000314897 0)
(0.996752 9.8544e-05 0)
(1.00419 0.000127511 0)
(1.00417 0.000407299 0)
(1.00412 0.000740309 0)
(1.00403 0.00113317 0)
(1.00388 0.00158983 0)
(1.00362 0.00210814 0)
(1.00322 0.00267377 0)
(1.00263 0.00325035 0)
(1.00178 0.00376499 0)
(1.00063 0.00409044 0)
(0.999325 0.00407737 0)
(0.998193 0.00373178 0)
(0.997364 0.00320826 0)
(0.996787 0.00263145 0)
(0.996403 0.0020707 0)
(0.996156 0.00155958 0)
(0.996006 0.00111069 0)
(0.99592 0.000725235 0)
(0.995877 0.000398864 0)
(0.99586 0.000124843 0)
(1.00534 0.000162511 0)
(1.00532 0.000519202 0)
(1.00526 0.000943801 0)
(1.00515 0.00144457 0)
(1.00495 0.00202643 0)
(1.00462 0.00268646 0)
(1.00411 0.00340612 0)
(1.00335 0.00413865 0)
(1.00226 0.00479087 0)
(1.0008 0.00520076 0)
(0.999133 0.00517972 0)
(0.997692 0.0047374 0)
(0.996639 0.00407088 0)
(0.995907 0.00333804 0)
(0.995418 0.00262637 0)
(0.995106 0.00197806 0)
(0.994915 0.00140878 0)
(0.994806 0.000919902 0)
(0.994751 0.000505816 0)
(0.99473 0.000158252 0)
(1.00682 0.000207454 0)
(1.00679 0.000662769 0)
(1.00672 0.00120474 0)
(1.00657 0.00184387 0)
(1.00631 0.00258622 0)
(1.00589 0.00342772 0)
(1.00524 0.00434416 0)
(1.00426 0.00527524 0)
(1.00287 0.00610151 0)
(1.001 0.00661662 0)
(0.998884 0.00658274 0)
(0.997053 0.00601538 0)
(0.995716 0.00516598 0)
(0.994788 0.00423423 0)
(0.994169 0.00333046 0)
(0.993773 0.00250775 0)
(0.993531 0.00178573 0)
(0.993393 0.001166 0)
(0.993323 0.000641311 0)
(0.993297 0.000200744 0)
(1.00871 0.000265412 0)
(1.00867 0.000847719 0)
(1.00858 0.00154054 0)
(1.00839 0.00235728 0)
(1.00806 0.00330542 0)
(1.00752 0.00437922 0)
(1.00667 0.00554691 0)
(1.00542 0.00673037 0)
(1.00365 0.00777615 0)
(1.00126 0.00842135 0)
(0.998561 0.00836691 0)
(0.996237 0.0076377 0)
(0.994543 0.00655474 0)
(0.993367 0.00537028 0)
(0.992583 0.00422305 0)
(0.992082 0.00317945 0)
(0.991776 0.00226384 0)
(0.991602 0.00147797 0)
(0.991514 0.000812603 0)
(0.99148 0.000254233 0)
(1.01113 0.000339689 0)
(1.01108 0.00108542 0)
(1.01096 0.00197297 0)
(1.01071 0.00301872 0)
(1.01028 0.00423165 0)
(1.00959 0.00560345 0)
(1.0085 0.00709204 0)
(1.0069 0.00859571 0)
(1.00462 0.00991703 0)
(1.00157 0.0107212 0)
(0.99814 0.0106337 0)
(0.995194 0.00969435 0)
(0.993049 0.00831286 0)
(0.991562 0.00680713 0)
(0.990572 0.00535117 0)
(0.989939 0.00402802 0)
(0.989553 0.00286782 0)
(0.989332 0.00187238 0)
(0.989221 0.00102971 0)
(0.989179 0.000322274 0)
(1.01423 0.000436483 0)
(1.01417 0.00139387 0)
(1.01401 0.00253238 0)
(1.01369 0.00387334 0)
(1.01313 0.00542733 0)
(1.01223 0.00718196 0)
(1.01083 0.00908068 0)
(1.00876 0.0109901 0)
(1.00584 0.0126555 0)
(1.00195 0.0136511 0)
(0.997587 0.0135108 0)
(0.993858 0.0122982 0)
(0.991148 0.0105358 0)
(0.989271 0.00862269 0)
(0.988022 0.00677621 0)
(0.987223 0.00509963 0)
(0.986735 0.00363019 0)
(0.986458 0.00236976 0)
(0.986317 0.001303 0)
(0.986264 0.000407728 0)
(1.01821 0.000561629 0)
(1.01813 0.00179436 0)
(1.01792 0.00326047 0)
(1.01751 0.00498531 0)
(1.01679 0.00698074 0)
(1.01561 0.00922799 0)
(1.01379 0.0116502 0)
(1.01112 0.0140713 0)
(1.00736 0.0161621 0)
(1.00239 0.0173825 0)
(0.99686 0.0171577 0)
(0.992148 0.0155888 0)
(0.988731 0.013341 0)
(0.986366 0.0109125 0)
(0.984792 0.00857324 0)
(0.983785 0.00645122 0)
(0.983171 0.00459216 0)
(0.982821 0.00299775 0)
(0.982643 0.00164832 0)
(0.982576 0.000515788 0)
(1.02336 0.000726444 0)
(1.02325 0.00231972 0)
(1.02298 0.00421299 0)
(1.02243 0.00643841 0)
(1.02148 0.00900791 0)
(1.01993 0.0118917 0)
(1.01756 0.0149827 0)
(1.01409 0.0180464 0)
(1.00925 0.0206564 0)
(1.00291 0.0221312 0)
(0.995897 0.021772 0)
(0.989959 0.0197387 0)
(0.985661 0.0168741 0)
(0.982686 0.0137955 0)
(0.980705 0.0108359 0)
(0.979437 0.00815308 0)
(0.978663 0.00580334 0)
(0.978221 0.00378838 0)
(0.977998 0.00208319 0)
(0.977913 0.000651937 0)
(1.03003 0.000944531 0)
(1.02989 0.00301641 0)
(1.02952 0.00547662 0)
(1.02879 0.00836247 0)
(1.02752 0.0116833 0)
(1.02548 0.0153907 0)
(1.02235 0.019333 0)
(1.01782 0.0231943 0)
(1.01157 0.0264232 0)
(1.00347 0.0281678 0)
(0.994615 0.0275956 0)
(0.987159 0.0249573 0)
(0.981769 0.0213139 0)
(0.978033 0.0174206 0)
(0.975542 0.0136839 0)
(0.973944 0.0102973 0)
(0.972968 0.00733049 0)
(0.972411 0.00478558 0)
(0.972128 0.00263144 0)
(0.972021 0.000823434 0)
(1.03875 0.00123857 0)
(1.03856 0.003954 0)
(1.03805 0.00717409 0)
(1.03706 0.0109413 0)
(1.03534 0.0152552 0)
(1.03258 0.0200333 0)
(1.02842 0.0250545 0)
(1.02246 0.0298897 0)
(1.01437 0.0338292 0)
(1.00403 0.0358258 0)
(0.992902 0.0349185 0)
(0.983586 0.0314958 0)
(0.97685 0.0268779 0)
(0.972168 0.0219725 0)
(0.969033 0.0172683 0)
(0.967015 0.0130015 0)
(0.965779 0.00925946 0)
(0.965072 0.00604668 0)
(0.964713 0.00332561 0)
(0.964577 0.00104082 0)
(1.05027 0.00164535 0)
(1.05 0.00525023 0)
(1.04928 0.00951505 0)
(1.04789 0.0144806 0)
(1.04549 0.0201207 0)
(1.0417 0.0262903 0)
(1.03606 0.0326594 0)
(1.02815 0.0386434 0)
(1.01765 0.0433436 0)
(1.00452 0.0455071 0)
(0.990609 0.0440784 0)
(0.979045 0.0396487 0)
(0.970668 0.0338308 0)
(0.964809 0.027687 0)
(0.960853 0.0217913 0)
(0.958287 0.0164287 0)
(0.956704 0.0117119 0)
(0.955795 0.00765312 0)
(0.955332 0.00421057 0)
(0.955157 0.00131796 0)
(1.06575 0.00223003 0)
(1.06534 0.00711002 0)
(1.06427 0.0128593 0)
(1.06221 0.0194963 0)
(1.05873 0.0269302 0)
(1.05335 0.0348974 0)
(1.04557 0.0428991 0)
(1.03498 0.0501504 0)
(1.02134 0.0555528 0)
(1.00476 0.0576769 0)
(0.987539 0.0554499 0)
(0.973318 0.0497475 0)
(0.962967 0.0424896 0)
(0.955641 0.0348689 0)
(0.950619 0.0275335 0)
(0.94731 0.0208203 0)
(0.94524 0.0148774 0)
(0.944038 0.00973681 0)
(0.943423 0.00536168 0)
(0.943188 0.00167887 0)
(1.08716 0.00313202 0)
(1.08648 0.00996499 0)
(1.08472 0.0179383 0)
(1.08142 0.0269826 0)
(1.07605 0.0368504 0)
(1.0681 0.0470654 0)
(1.05713 0.0568936 0)
(1.04284 0.0653401 0)
(1.02521 0.0711581 0)
(1.00448 0.0728364 0)
(0.983446 0.0694155 0)
(0.96618 0.0621443 0)
(0.953504 0.0532262 0)
(0.94436 0.0439216 0)
(0.937924 0.0349122 0)
(0.933551 0.0265716 0)
(0.930728 0.0190914 0)
(0.929041 0.0125451 0)
(0.928157 0.00692513 0)
(0.927814 0.00217088 0)
(1.11854 0.00472578 0)
(1.11702 0.0149277 0)
(1.11348 0.0265023 0)
(1.10744 0.0390895 0)
(1.09847 0.052121 0)
(1.08621 0.0648304 0)
(1.07049 0.0762797 0)
(1.05127 0.0853856 0)
(1.02873 0.0909205 0)
(1.00326 0.0914578 0)
(0.978035 0.0863107 0)
(0.95743 0.0771701 0)
(0.942117 0.0664512 0)
(0.930768 0.055377 0)
(0.922445 0.04458 0)
(0.91647 0.0344078 0)
(0.912339 0.0250629 0)
(0.909663 0.0166661 0)
(0.908126 0.00928098 0)
(0.907469 0.00292309 0)
(1.17206 0.00867407 0)
(1.16475 0.0262131 0)
(1.15477 0.0438663 0)
(1.14187 0.061061 0)
(1.12588 0.077158 5.55101e-32)
(1.10672 0.0914605 -2.72829e-32)
(1.08442 0.103207 0)
(1.0591 0.111548 0)
(1.03101 0.1155 0)
(1.00051 0.113865 0)
(0.970977 0.106339 0)
(0.946932 0.0950581 0)
(0.928815 0.0825404 0)
(0.914964 0.0698637 0)
(0.904267 0.0575178 0)
(0.895957 0.0457129 0)
(0.889488 0.0345191 0)
(0.88446 0.0239406 0)
(0.880573 0.0139584 0)
(0.877597 0.00455688 0)
(1.23982 0.0494958 2.50846e-19)
(1.2212 0.0685695 -5.22438e-20)
(1.20072 0.0865637 0)
(1.1782 0.103132 -1.14744e-19)
(1.15349 0.117867 -1.41636e-19)
(1.12648 0.130267 -2.777e-32)
(1.09713 0.139714 0)
(1.06547 0.145463 -1.9468e-19)
(1.03163 0.146613 -3.60312e-18)
(0.995793 0.142046 1.92635e-19)
(0.961428 0.131867 0)
(0.933238 0.118669 -3.25668e-18)
(0.911535 0.104853 2.66062e-19)
(0.894333 0.0913188 -1.55821e-18)
(0.880358 0.0784841 -1.78043e-19)
(0.868761 0.0665524 0)
(0.85896 0.0556258 -7.46581e-19)
(0.850549 0.0457512 0)
(0.843246 0.0369371 3.81504e-20)
(0.836851 0.0291609 1.18662e-20)
(1.28725 0.125658 3.24506e-19)
(1.2615 0.136071 -1.1009e-18)
(1.23401 0.147062 -1.30575e-18)
(1.20472 0.15798 -2.26875e-18)
(1.17355 0.168083 2.07148e-19)
(1.14043 0.176574 4.248e-18)
(1.10533 0.182611 0)
(1.06824 0.185304 0)
(1.02923 0.183692 3.63861e-18)
(0.988317 0.176681 0)
(0.949104 0.164667 1.33475e-17)
(0.916618 0.150524 -3.20574e-18)
(0.891204 0.136614 -6.63714e-18)
(0.870661 0.123688 -1.82907e-18)
(0.853641 0.112071 0)
(0.839287 0.101874 0)
(0.82704 0.0930941 -4.69119e-19)
(0.816521 0.0856526 -3.78265e-22)
(0.807461 0.0794276 -8.77582e-20)
(0.79966 0.074275 2.68476e-20)
(1.30984 0.201621 -1.16484e-18)
(1.28249 0.206728 1.0388e-21)
(1.25253 0.212236 -1.1004e-18)
(1.22003 0.217781 -2.38617e-18)
(1.18515 0.222827 -6.2333e-19)
(1.14802 0.226683 4.04927e-18)
(1.10878 0.228542 4.32169e-19)
(1.06755 0.227514 0)
(1.02443 0.222646 -7.2941e-18)
(0.979428 0.212919 1.34292e-17)
(0.936368 0.199032 1.36456e-17)
(0.900642 0.184064 6.99966e-19)
(0.872659 0.170197 -5.58009e-18)
(0.850077 0.157898 4.48021e-19)
(0.831492 0.147277 0)
(0.816014 0.138277 -2.87148e-18)
(0.80304 0.130752 0)
(0.792139 0.124518 -1.11838e-19)
(0.782975 0.119386 4.79229e-22)
(0.775282 0.115176 6.97732e-19)
(1.31886 0.274267 -9.77313e-22)
(1.29095 0.275479 1.0721e-18)
(1.26 0.276728 -2.23784e-18)
(1.226 0.277784 0)
(1.18912 0.278276 2.41479e-19)
(1.14957 0.277681 4.39462e-18)
(1.10761 0.275328 -7.91673e-18)
(1.06346 0.270433 0)
(1.01732 0.26214 -1.45282e-17)
(0.969254 0.249555 1.38413e-17)
(0.923348 0.233701 2.64239e-17)
(0.885358 0.217812 0)
(0.855729 0.203814 4.31912e-19)
(0.831985 0.191838 -5.59035e-18)
(0.812634 0.181774 -2.53651e-19)
(0.796707 0.173417 -3.00931e-18)
(0.783527 0.166527 -1.27941e-19)
(0.77259 0.160871 1.36967e-18)
(0.763502 0.156238 4.33759e-20)
(0.75595 0.152446 6.82091e-19)
(1.31888 0.342605 1.20065e-18)
(1.29085 0.340713 5.53358e-20)
(1.25955 0.33851 -2.1605e-18)
(1.2249 0.335815 -4.40945e-18)
(1.18702 0.332359 -4.46295e-18)
(1.14611 0.327744 1.23985e-17)
(1.10246 0.321444 -1.59176e-17)
(1.05639 0.312812 -1.52849e-17)
(1.00817 0.301129 -1.45966e-17)
(0.957954 0.285658 -2.77357e-17)
(0.910085 0.267756 -5.52686e-20)
(0.870621 0.250806 -1.25717e-17)
(0.840004 0.236463 -1.24397e-17)
(0.815633 0.224525 -5.85978e-18)
(0.795926 0.214683 3.80252e-19)
(0.779837 0.206613 1.37067e-19)
(0.766627 0.200014 -2.74872e-18)
(0.75574 0.194621 1.35296e-18)
(0.746748 0.190213 0)
(0.73932 0.186606 6.40853e-19)
(1.3126 0.406301 0)
(1.28468 0.401834 -2.33503e-18)
(1.25339 0.396749 -2.28062e-18)
(1.21857 0.390876 1.19662e-19)
(1.18028 0.384004 -4.15345e-18)
(1.13869 0.375827 8.30762e-18)
(1.09411 0.365933 -7.99106e-18)
(1.04688 0.353809 -1.55395e-17)
(0.997332 0.338879 -1.43432e-17)
(0.945714 0.320571 -5.4925e-17)
(0.896606 0.300581 -2.61992e-17)
(0.856283 0.282461 -1.28143e-17)
(0.825148 0.26761 -1.2019e-17)
(0.800494 0.255514 -5.8337e-18)
(0.780663 0.245683 -1.41787e-19)
(0.764554 0.237695 0)
(0.751387 0.231196 -2.58197e-18)
(0.74058 0.2259 8.93654e-20)
(0.731684 0.221574 1.3261e-18)
(0.724359 0.218038 1.32744e-18)
(1.30183 0.465324 2.32015e-20)
(1.27417 0.458672 3.5768e-20)
(1.24311 0.451135 2.23233e-18)
(1.20841 0.442536 -9.26113e-20)
(1.17008 0.432695 -1.21115e-19)
(1.12828 0.421371 8.36136e-18)
(1.08328 0.408241 -5.04822e-21)
(1.03543 0.392905 -1.81804e-19)
(0.985145 0.374919 -2.92518e-17)
(0.932726 0.353868 -5.53293e-17)
(0.882956 0.331788 -2.61777e-17)
(0.842253 0.31243 -2.49327e-17)
(0.810952 0.29697 -1.8939e-19)
(0.786257 0.284601 5.81065e-18)
(0.766455 0.274669 1.03704e-19)
(0.750412 0.266656 0)
(0.737329 0.260163 5.27359e-20)
(0.726612 0.254881 2.70374e-18)
(0.717805 0.250568 2.60065e-18)
(0.710569 0.247044 1.2948e-18)
(1.28787 0.51981 -3.25829e-21)
(1.26056 0.511274 2.33119e-18)
(1.22987 0.501624 4.65608e-18)
(1.19547 0.490661 -8.96696e-18)
(1.15736 0.478226 8.59608e-18)
(1.11564 0.464119 -9.30477e-21)
(1.07058 0.448084 1.38177e-19)
(1.02254 0.429815 -1.52477e-17)
(0.971935 0.408979 -5.81893e-17)
(0.919177 0.385299 -2.70814e-17)
(0.869194 0.361152 -2.56397e-17)
(0.828489 0.340521 -2.4664e-17)
(0.797303 0.324399 0)
(0.772759 0.311708 1.14544e-17)
(0.753103 0.30163 -5.62624e-18)
(0.737189 0.293554 5.60882e-18)
(0.724216 0.287034 -1.84048e-21)
(0.713592 0.281736 -4.55839e-20)
(0.704864 0.277412 1.27717e-18)
(0.697701 0.273878 6.35396e-19)
(1.27169 0.569976 -1.5021e-20)
(1.24479 0.559801 -2.10227e-20)
(1.21456 0.548314 4.23957e-20)
(1.18058 0.535286 -1.08857e-21)
(1.14284 0.520571 -8.22557e-20)
(1.10142 0.503995 8.36124e-21)
(1.05655 0.485355 -1.11414e-19)
(1.00859 0.464413 -9.66718e-20)
(0.95799 0.440931 -2.92369e-17)
(0.905234 0.414744 -2.7635e-17)
(0.855383 0.388561 0)
(0.81498 0.366636 1.25312e-19)
(0.78415 0.349828 8.32168e-20)
(0.759931 0.336811 -6.23407e-20)
(0.740532 0.326597 -5.6533e-18)
(0.724806 0.318475 -2.56135e-21)
(0.711964 0.311943 -2.69678e-18)
(0.701432 0.306642 -5.31077e-18)
(0.692769 0.302313 0)
(0.685659 0.298775 0)
(1.25403 0.616088 2.42577e-18)
(1.22758 0.604474 0)
(1.19784 0.591378 3.4947e-20)
(1.16437 0.576536 4.54837e-18)
(1.12711 0.559806 -5.7427e-20)
(1.08611 0.541035 8.26004e-18)
(1.0416 0.520055 1.60723e-17)
(0.993923 0.496684 1.5404e-17)
(0.943557 0.470749 2.93584e-17)
(0.891049 0.442176 -5.49587e-17)
(0.84158 0.413984 1.06024e-19)
(0.801724 0.39074 2.46791e-17)
(0.771472 0.37323 -8.17865e-20)
(0.747757 0.359905 -1.94595e-20)
(0.728738 0.349606 5.59567e-18)
(0.713265 0.3415 -1.73204e-21)
(0.700579 0.335017 -2.69319e-18)
(0.690135 0.329764 -5.30426e-18)
(0.681518 0.32547 -1.31029e-18)
(0.674434 0.321956 1.29711e-18)
(1.23544 0.658429 -3.33434e-22)
(1.20945 0.645544 0)
(1.18025 0.631031 0)
(1.14733 0.614586 -4.51547e-18)
(1.11061 0.59607 8.73851e-18)
(1.07013 0.575342 8.43005e-18)
(1.02609 0.55226 1.61563e-17)
(0.978828 0.526679 0)
(0.928843 0.498476 2.92329e-17)
(0.876746 0.467633 -2.76161e-17)
(0.827833 0.437449 5.20168e-17)
(0.788714 0.412839 2.47159e-17)
(0.75925 0.394593 -7.71087e-22)
(0.736243 0.380985 1.14832e-17)
(0.717761 0.370681 5.60354e-18)
(0.702638 0.362701 5.48496e-18)
(0.690145 0.356377 -2.69479e-18)
(0.679785 0.351268 -5.31892e-18)
(0.671187 0.347084 -1.32291e-18)
(0.664091 0.343652 1.2941e-18)
(1.21635 0.697282 -2.43027e-18)
(1.19084 0.683268 -7.43696e-21)
(1.16218 0.667501 -2.14048e-20)
(1.12983 0.649637 6.51804e-21)
(1.09369 0.629531 6.2438e-20)
(1.05378 0.607055 2.53524e-17)
(1.01029 0.582082 0)
(0.963531 0.554496 -6.00621e-20)
(0.914022 0.5242 -4.60799e-20)
(0.862435 0.491201 5.50935e-17)
(0.814176 0.45903 1.03756e-16)
(0.775927 0.432973 -1.29279e-20)
(0.747451 0.413911 0)
(0.725393 0.40002 1.14931e-17)
(0.707669 0.389804 1.1212e-17)
(0.693046 0.382107 0)
(0.680816 0.376116 -3.85113e-20)
(0.670546 0.371309 -2.68661e-18)
(0.66193 0.367365 1.31325e-18)
(0.654766 0.364111 -3.98574e-21)
(1.1971 0.732925 -2.82078e-21)
(1.17205 0.717904 -2.38776e-18)
(1.14394 0.701024 0)
(1.11217 0.681895 -3.25381e-21)
(1.07663 0.660373 0)
(1.03733 0.636332 1.68747e-17)
(0.994418 0.609659 0)
(0.948219 0.580254 0)
(0.899239 0.548034 4.00957e-20)
(0.848207 0.512994 5.50087e-17)
(0.800634 0.47884 5.17641e-17)
(0.76332 0.451213 2.96102e-20)
(0.736007 0.431183 2.3727e-17)
(0.715181 0.41694 1.12015e-19)
(0.698529 0.406892 1.12137e-19)
(0.684658 0.399681 -9.32962e-20)
(0.67283 0.394284 -7.42175e-20)
(0.66268 0.390031 0)
(0.654003 0.386537 2.66143e-18)
(0.646687 0.383621 9.02194e-21)
(1.17793 0.76562 2.57768e-21)
(1.15334 0.749698 -2.38165e-18)
(1.12577 0.731825 0)
(1.09458 0.711569 -4.51396e-18)
(1.05965 0.688781 1.1306e-20)
(1.02096 0.663338 0)
(0.978659 0.635136 -1.91837e-20)
(0.933042 0.604086 -5.10926e-20)
(0.884614 0.570104 9.04513e-21)
(0.834141 0.533148 1.26315e-21)
(0.787224 0.497018 0)
(0.750831 0.467669 2.45515e-17)
(0.724801 0.446422 4.72501e-17)
(0.705516 0.431636 8.6012e-20)
(0.690373 0.421758 -1.11387e-17)
(0.677677 0.415263 0)
(0.666534 0.410836 -2.83229e-18)
(0.656607 0.407546 2.59995e-18)
(0.647823 0.404856 1.28114e-18)
(0.640226 0.40255 -1.44093e-21)
(1.15903 0.795616 0)
(1.13489 0.778884 0)
(1.10785 0.760124 4.66071e-18)
(1.07723 0.738859 0)
(1.0429 0.714938 0)
(1.00483 0.688237 -1.69001e-17)
(0.963148 0.658661 -1.55691e-20)
(0.918124 0.626125 -2.42967e-20)
(0.87025 0.590541 -5.27631e-21)
(0.820308 0.551803 0)
(0.773964 0.51373 -3.16324e-20)
(0.73839 0.482492 2.4404e-17)
(0.713666 0.45968 2.36608e-17)
(0.696209 0.443968 1.23976e-19)
(0.683144 0.43408 1.25287e-19)
(0.672308 0.428484 -5.41532e-18)
(0.662413 0.425541 5.64557e-18)
(0.652991 0.423879 5.65845e-18)
(0.644095 0.42262 7.33789e-20)
(0.636014 0.421408 -1.32351e-18)
(1.14054 0.823142 0)
(1.11683 0.805678 -4.2229e-21)
(1.09032 0.786124 9.31952e-18)
(1.06026 0.763954 0)
(1.02652 0.739017 0)
(0.989065 0.711188 1.031e-20)
(0.947992 0.680377 0)
(0.903559 0.646505 0)
(0.856229 0.609472 -2.91686e-17)
(0.806773 0.5691 6.94661e-21)
(0.76088 0.529153 -5.13977e-17)
(0.725928 0.495887 0)
(0.702387 0.471086 -2.33439e-17)
(0.686934 0.453817 3.24028e-19)
(0.676591 0.443382 -1.10438e-17)
(0.668659 0.438629 -5.5489e-18)
(0.661103 0.437776 5.64467e-18)
(0.652913 0.438823 2.73049e-18)
(0.644074 0.440165 -6.01868e-20)
(0.635203 0.440996 -1.34109e-18)
(1.12257 0.848409 0)
(1.09929 0.830284 4.77854e-18)
(1.07327 0.810015 4.66133e-18)
(1.04375 0.787034 -9.06172e-18)
(1.01059 0.761183 -8.77273e-18)
(0.97374 0.732341 3.37917e-17)
(0.933273 0.700421 -5.59809e-21)
(0.889424 0.665349 3.08257e-17)
(0.842619 0.627017 -2.91357e-17)
(0.793595 0.58517 5.47324e-17)
(0.748006 0.543468 -5.13605e-17)
(0.713401 0.508102 -1.02769e-19)
(0.690736 0.480882 -2.33603e-17)
(0.677213 0.461183 1.13659e-17)
(0.670139 0.449098 -1.11939e-17)
(0.666505 0.444475 -5.55477e-18)
(0.663267 0.446095 -2.23688e-19)
(0.658108 0.451507 -1.72238e-19)
(0.650156 0.457775 -2.75849e-18)
(0.640124 0.462728 -1.33767e-18)
(1.10518 0.871609 -2.44062e-18)
(1.08231 0.852885 4.77849e-18)
(1.05678 0.831975 -4.6647e-18)
(1.02779 0.808264 -1.81365e-17)
(0.995191 0.781591 -8.78142e-18)
(0.958925 0.751837 3.38098e-17)
(0.919051 0.718921 3.64089e-21)
(0.875773 0.682775 6.162e-17)
(0.829475 0.643285 -2.91291e-17)
(0.780829 0.600131 5.46257e-17)
(0.735393 0.556839 -2.97888e-20)
(0.700803 0.519412 0)
(0.678512 0.489453 0)
(0.666453 0.466334 1.15304e-17)
(0.662754 0.450804 -1.07972e-17)
(0.664846 0.444243 -4.94506e-21)
(0.66907 0.447442 5.57632e-18)
(0.671082 0.459105 0)
(0.667213 0.475056 -2.65172e-18)
(0.656272 0.489517 -1.35609e-18)
(1.08844 0.892915 -2.44051e-18)
(1.06597 0.87365 1.92508e-22)
(1.0409 0.852165 -4.6634e-18)
(1.01242 0.827797 -9.06452e-18)
(0.98036 0.800383 -2.25407e-21)
(0.944664 0.769808 3.38059e-17)
(0.905369 0.735998 0)
(0.862649 0.698892 3.08015e-17)
(0.816837 0.658377 -5.82233e-17)
(0.768523 0.614084 0)
(0.723101 0.569412 0)
(0.688182 0.530091 5.31302e-20)
(0.665608 0.497306 2.74862e-19)
(0.654062 0.469955 2.80163e-19)
(0.652924 0.448735 -1.09844e-17)
(0.661257 0.436132 6.95011e-21)
(0.676646 0.436203 5.02027e-18)
(0.693992 0.453129 2.33118e-18)
(0.705006 0.487218 -2.96816e-18)
(0.699596 0.528655 1.52094e-18)
(1.07236 0.912476 -2.44178e-18)
(1.05031 0.892736 0)
(1.02567 0.870738 0)
(0.997667 0.845777 -2.2891e-21)
(0.966131 0.817694 -4.30974e-22)
(0.930986 0.786377 3.38083e-17)
(0.892253 0.751763 1.61913e-17)
(0.850076 0.713799 3.07987e-17)
(0.804736 0.672381 1.62288e-20)
(0.756717 0.627115 -7.18987e-21)
(0.711198 0.581296 -4.49872e-21)
(0.67564 0.540371 -2.39582e-17)
(0.652068 0.50499 -2.27951e-17)
(0.63966 0.473169 1.48904e-19)
(0.638968 0.44448 0)
(0.65146 0.420334 -5.98228e-18)
(0.678964 0.4054 -8.25833e-19)
(0.72212 0.411254 1.87095e-18)
(0.776875 0.462605 -7.16529e-18)
(0.829234 0.603248 2.2008e-18)
(1.05696 0.930457 1.51456e-21)
(1.03531 0.910361 4.78327e-18)
(1.01104 0.887941 -4.66941e-18)
(0.983448 0.862485 -3.20176e-22)
(0.952371 0.83384 0)
(0.917715 0.801899 1.69005e-17)
(0.879485 0.766607 1.61834e-17)
(0.837794 0.727922 6.15857e-17)
(0.792869 0.685751 2.90796e-17)
(0.74508 0.639698 -5.01072e-21)
(0.699337 0.592992 -2.42431e-20)
(0.662828 0.550827 -2.39184e-17)
(0.637506 0.513307 -2.28024e-17)
(0.622557 0.47741 -1.46154e-19)
(0.618834 0.4409 1.05112e-17)
(0.628954 0.401415 0)
(0.658566 0.354627 0)
(0.719496 0.290773 1.7042e-18)
(0.834803 0.189384 2.73315e-18)
(1.04266 0.0128125 -3.22606e-18)
(1.04219 0.947003 2.44098e-18)
(1.02091 0.926694 4.78139e-18)
(0.996918 0.903945 7.07998e-22)
(0.969657 0.878105 -9.07635e-18)
(0.93895 0.849024 -2.88506e-21)
(0.904694 0.816597 -1.69122e-17)
(0.866878 0.780773 0)
(0.825587 0.741523 3.0784e-17)
(0.780992 0.698771 0)
(0.733339 0.652143 5.44751e-17)
(0.687232 0.604854 -1.57031e-20)
(0.649473 0.561929 -3.99725e-20)
(0.621676 0.523066 2.25457e-17)
(0.602472 0.484481 -2.54812e-19)
(0.591685 0.44293 9.81984e-18)
(0.589395 0.395092 0)
(0.594395 0.337019 0)
(0.601255 0.264388 0)
(0.595618 0.174625 1.97172e-18)
(0.547747 0.0699877 8.05501e-19)
(1.02808 0.962254 0)
(1.00712 0.941832 0)
(0.983348 0.918818 4.66677e-18)
(0.956349 0.892677 -9.0731e-18)
(0.925942 0.863255 -8.78371e-18)
(0.892014 0.830448 -1.69056e-17)
(0.854542 0.794207 -2.83507e-21)
(0.813584 0.754517 -6.32613e-22)
(0.769258 0.711324 -3.06852e-21)
(0.721682 0.664304 5.44363e-17)
(0.67514 0.616726 -2.71703e-21)
(0.635988 0.573579 2.38262e-17)
(0.605323 0.534394 2.25205e-17)
(0.580941 0.495088 -1.06818e-17)
(0.561375 0.452345 -3.19395e-19)
(0.544792 0.403712 0)
(0.527846 0.348135 4.33341e-18)
(0.505258 0.286916 8.99125e-19)
(0.471369 0.224565 1.05943e-18)
(0.42299 0.167664 1.12336e-18)
(1.01464 0.976345 0)
(0.993929 0.955871 -4.78427e-18)
(0.970318 0.932651 -6.0915e-22)
(0.943521 0.906286 -9.07816e-18)
(0.913346 0.87661 -8.78169e-18)
(0.879677 0.843516 0)
(0.842479 0.806962 0)
(0.801789 0.766942 0)
(0.757675 0.723435 2.9079e-17)
(0.710134 0.676187 -2.13653e-21)
(0.66314 0.628595 0)
(0.622598 0.585761 2.37239e-17)
(0.589045 0.547304 0)
(0.559476 0.509244 -1.04438e-17)
(0.531568 0.468653 -9.55569e-18)
(0.503137 0.424077 -4.01965e-18)
(0.472036 0.376142 7.29178e-19)
(0.436767 0.3277 4.3617e-19)
(0.397568 0.282946 -2.14926e-18)
(0.356178 0.245164 -4.66349e-19)
(1.00187 0.989393 -7.21826e-23)
(0.981308 0.968892 -9.56817e-18)
(0.957819 0.945527 -2.53901e-22)
(0.931165 0.919007 -9.07704e-18)
(0.901157 0.889156 0)
(0.867679 0.855863 0)
(0.830688 0.819086 0)
(0.790205 0.778836 -9.03056e-22)
(0.746253 0.735126 2.90707e-17)
(0.698718 0.687794 0)
(0.651303 0.640428 0)
(0.609521 0.598382 0)
(0.573417 0.561582 0)
(0.539395 0.526432 1.0459e-17)
(0.504739 0.490481 -6.365e-22)
(0.467675 0.452704 -4.51637e-18)
(0.427748 0.413792 -4.09731e-18)
(0.38605 0.375859 -1.85199e-18)
(0.344864 0.341416 -1.68338e-18)
(0.306339 0.312113 0)
(0.989389 1.00189 -8.10596e-23)
(0.968876 0.981331 -5.60972e-22)
(0.945496 0.957856 4.66869e-18)
(0.91896 0.93122 -5.57958e-23)
(0.889088 0.901234 -6.09654e-22)
(0.85577 0.867782 1.6912e-17)
(0.818957 0.83083 1.5226e-22)
(0.778656 0.790404 -3.07918e-17)
(0.734854 0.746555 0)
(0.687342 0.699228 1.38956e-21)
(0.639609 0.652257 5.15609e-21)
(0.596876 0.611358 0)
(0.558855 0.576915 0)
(0.521616 0.545899 1.05125e-17)
(0.482301 0.516327 1.96666e-17)
(0.439487 0.487098 1.93833e-19)
(0.393647 0.457932 4.46331e-18)
(0.347009 0.429235 -2.27421e-18)
(0.302593 0.401838 -1.73338e-18)
(0.263064 0.377098 5.31752e-19)
(0.976348 1.01465 -2.44187e-18)
(0.955863 0.993959 1.53312e-21)
(0.932628 0.970362 4.66944e-18)
(0.906246 0.943583 0)
(0.876551 0.91343 0)
(0.843435 0.879789 1.69139e-17)
(0.806847 0.842632 1.61858e-17)
(0.766784 0.802004 -3.07985e-17)
(0.723198 0.758002 5.20317e-22)
(0.675807 0.710689 5.44296e-17)
(0.627948 0.664186 -5.07318e-17)
(0.584686 0.624637 0)
(0.545603 0.592957 0)
(0.506711 0.566789 -1.05502e-17)
(0.465112 0.544693 9.92463e-18)
(0.419295 0.525453 0)
(0.369532 0.507549 5.51885e-19)
(0.317891 0.48919 -5.25457e-19)
(0.267611 0.469017 -1.81777e-18)
(0.222659 0.447947 -1.01784e-18)
(0.962265 1.0281 -1.16943e-21)
(0.941831 1.00716 -4.78377e-18)
(0.918802 0.9834 0)
(0.892646 0.956419 0)
(0.863206 0.926033 0)
(0.830378 0.892135 0)
(0.794108 0.854705 1.61878e-17)
(0.754382 0.813813 3.07871e-17)
(0.711128 0.769603 0)
(0.664007 0.722266 5.44587e-17)
(0.616276 0.676232 -1.27421e-20)
(0.572989 0.638088 3.53382e-20)
(0.533824 0.609255 -6.46101e-20)
(0.495024 0.588063 -1.073e-19)
(0.453797 0.573795 -1.01397e-17)
(0.408216 0.565662 0)
(0.357293 0.56173 -4.54985e-18)
(0.301298 0.558311 -4.2811e-18)
(0.242255 0.550581 -1.99086e-18)
(0.185328 0.536407 -2.47615e-18)
(0.947021 1.04222 2.44245e-18)
(0.926701 1.02095 4.78025e-18)
(0.903938 0.996978 0)
(0.878083 0.969734 2.30898e-21)
(0.848984 0.939049 -8.77791e-18)
(0.816539 0.904823 0)
(0.780691 0.86705 0)