/*--------------------------------*- C++ -*----------------------------------*\
  =========                 |
  \\      /  F ield         | OpenFOAM: The Open Source CFD Toolbox
   \\    /   O peration     | Website:  https://openfoam.org
    \\  /    A nd           | Version:  6
     \\/     M anipulation  |
\*---------------------------------------------------------------------------*/
FoamFile
{
    version     2.0;
    format      ascii;
    class       volScalarField;
    location    "500";
    object      alphat;
}
// * * * * * * * * * * * * * * * * * * * * * * * * * * * * * * * * * * * * * //

dimensions      [1 -1 -1 0 0 0 0];

internalField   nonuniform List<scalar> 
16000
(
5.6400712e-06
2.4477339e-05
2.7213915e-05
3.8232004e-05
3.2701357e-05
4.1918016e-05
4.0890416e-05
4.6163642e-05
4.7226941e-05
4.7460167e-05
4.8039225e-05
4.6588374e-05
4.6702634e-05
4.5507177e-05
4.5515503e-05
4.4981451e-05
4.5192604e-05
4.5261065e-05
4.576013e-05
4.630745e-05
4.714432e-05
4.8123993e-05
4.934777e-05
5.0772237e-05
5.2449795e-05
5.4384632e-05
5.6619203e-05
5.9184893e-05
6.2132881e-05
6.551918e-05
6.9416887e-05
7.3913887e-05
7.9119152e-05
8.5165504e-05
9.2215788e-05
0.0001004703
0.00011017547
0.00012163518
0.00013522372
0.00015140036
0.00017073
0.00019391052
0.00022180098
0.00025545725
0.00029617618
0.00034554755
0.00040551096
0.00047842221
0.00056712394
0.00067501696
0.00080612658
0.00096517189
0.0011576875
0.0012227274
0.0012239643
0.0012241581
0.0012236128
0.0012226597
0.0012214971
0.0012201053
0.0012183953
0.001216324
0.0012138676
0.0012109476
0.0012075298
0.0012037171
0.0011997542
0.0011960103
0.0011925832
0.0011896375
0.0011868396
0.0011847416
0.0011822843
0.0011811327
0.0011786676
0.001179866
0.0011765312
0.0011833592
0.0011736615
0.0011824798
4.7134595e-06
2.4220449e-05
2.4931202e-05
3.4961502e-05
3.0176554e-05
3.782474e-05
3.764933e-05
4.1339994e-05
4.3155125e-05
4.2413878e-05
4.3442565e-05
4.1589138e-05
4.1890021e-05
4.0558874e-05
4.0660299e-05
4.0117089e-05
4.0335644e-05
4.0376667e-05
4.0830865e-05
4.1314673e-05
4.2063961e-05
4.2938048e-05
4.4030906e-05
4.5302382e-05
4.6799019e-05
4.8524671e-05
5.0516493e-05
5.2802549e-05
5.542774e-05
5.8441622e-05
6.19083e-05
6.590497e-05
7.0527531e-05
7.5892809e-05
8.2144637e-05
8.9459234e-05
9.8052527e-05
0.00010818978
0.00012019798
0.00013447967
0.00015152759
0.0001719489
0.00019649041
0.00022606883
0.00026180786
0.00030508419
0.00035757738
0.0004213289
0.00049880841
0.00059298393
0.00070739571
0.00084623022
0.0010144298
0.0012178233
0.0012230235
0.0012233526
0.0012228508
0.0012218884
0.0012207211
0.0012194076
0.0012178943
0.0012159936
0.0012136994
0.0012109236
0.001207615
0.0012038411
0.0011998626
0.0011960534
0.0011926036
0.0011895821
0.0011868203
0.0011845821
0.0011823049
0.0011810058
0.0011787377
0.0011792471
0.0011764396
0.0011823381
0.0011737042
0.0011822018
4.0353603e-06
2.3967385e-05
2.3106293e-05
3.2164459e-05
2.8167994e-05
3.4327286e-05
3.518977e-05
3.7057818e-05
3.9677734e-05
3.7771157e-05
3.9217967e-05
3.6940829e-05
3.7407073e-05
3.6037254e-05
3.6215808e-05
3.5684708e-05
3.5910717e-05
3.594302e-05
3.6362966e-05
3.680311e-05
3.7483455e-05
3.827605e-05
3.9264298e-05
4.0413765e-05
4.1764587e-05
4.3321552e-05
4.5117062e-05
4.7176908e-05
4.9540888e-05
5.2253531e-05
5.537196e-05
5.8965245e-05
6.3118857e-05
6.7936779e-05
7.3547194e-05
8.0107322e-05
8.781014e-05
9.6891837e-05
0.00010764189
0.00012041682
0.000135654
0.00015389068
0.0001757856
0.00020214669
0.0002339626
0.0002724424
0.00031906005
0.00037560602
0.00044424774
0.00052759517
0.00062877343
0.0007514995
0.00090017712
0.0010800391
0.0012221104
0.0012225894
0.0012221371
0.0012211581
0.00121996
0.0012186289
0.0012171404
0.0012154363
0.0012133391
0.0012107421
0.0012075764
0.0012038748
0.0011998975
0.0011960437
0.001192566
0.0011895001
0.0011867501
0.0011844397
0.0011822557
0.001180862
0.0011787736
0.0011788302
0.0011764037
0.0011814254
0.0011736934
0.0011813759
3.5903327e-06
2.3636908e-05
2.1554802e-05
2.9547594e-05
2.628605e-05
3.11301e-05
3.2814492e-05
3.3215597e-05
3.6308584e-05
3.3613083e-05
3.5241733e-05
3.2779836e-05
3.3328015e-05
3.2019452e-05
3.2220652e-05
3.1737301e-05
3.1954387e-05
3.1994632e-05
3.2381295e-05
3.279053e-05
3.3411786e-05
3.4137688e-05
3.5037466e-05
3.6084425e-05
3.7311962e-05
3.8726426e-05
4.0355968e-05
4.2224746e-05
4.4368374e-05
4.6827346e-05
4.9653087e-05
5.2908045e-05
5.6669348e-05
6.1031023e-05
6.6108563e-05
7.2043588e-05
7.9010069e-05
8.7221719e-05
9.6940138e-05
0.00010848519
0.0001222494
0.00013871654
0.00015847801
0.00018225757
0.00021094062
0.000245609
0.0002875805
0.00033845574
0.00040017337
0.00047507136
0.00056595759
0.0006761869
0.00080975027
0.00097140073
0.0011668125
0.0012218569
0.0012214634
0.001220465
0.0012192272
0.0012178629
0.0012163552
0.0012146703
0.0012127384
0.0012103603
0.0012073787
0.0012037882
0.0011998385
0.001195959
0.0011924627
0.0011893733
0.0011866293
0.0011842788
0.0011821589
0.001180634
0.0011787808
0.0011785623
0.0011763832
0.00118049
0.0011737116
0.0011808778
3.2220288e-06
2.3189274e-05
2.0288541e-05
2.7124927e-05
2.4561884e-05
2.821109e-05
3.0588504e-05
2.9730859e-05
3.3072933e-05
2.9827457e-05
3.1487358e-05
2.9052575e-05
2.9600827e-05
2.8405535e-05
2.8599844e-05
2.8183062e-05
2.8385006e-05
2.8442531e-05
2.8799905e-05
2.9187192e-05
2.9758831e-05
3.0429751e-05
3.1254903e-05
3.2215333e-05
3.3338245e-05
3.4631587e-05
3.6119921e-05
3.7826063e-05
3.9782187e-05
4.2025468e-05
4.4602615e-05
4.7570598e-05
5.0999708e-05
5.4975601e-05
5.9603497e-05
6.5012569e-05
7.1361124e-05
7.8843466e-05
8.7698789e-05
9.8219322e-05
0.00011076061
0.00012576236
0.00014376329
0.00016542058
0.00019153732
0.00022309564
0.00026129069
0.0003075745
0.00036370708
0.00043181353
0.00051445242
0.00061469149
0.00073619663
0.00088334313
0.001061374
0.0012211384
0.001220819
0.0012198017
0.0012185182
0.0012171138
0.0012155746
0.0012138739
0.0012119675
0.0012097637
0.0012070123
0.001203576
0.0011996845
0.0011957981
0.0011922944
0.0011891978
0.0011864629
0.0011840971
0.0011820217
0.0011804159
0.001178746
0.0011782951
0.0011763726
0.0011796482
0.001173752
0.0011801825
2.9130242e-06
2.099954e-05
1.9204078e-05
2.4844133e-05
2.298667e-05
2.5511234e-05
2.8481112e-05
2.6547634e-05
2.9963025e-05
2.6425727e-05
2.7992934e-05
2.5729961e-05
2.6224485e-05
2.5174249e-05
2.534423e-05
2.5003195e-05
2.5188044e-05
2.5267658e-05
2.5600514e-05
2.5972335e-05
2.6503181e-05
2.712915e-05
2.7892267e-05
2.8780505e-05
2.981588e-05
3.1007678e-05
3.2377569e-05
3.3947242e-05
3.5746115e-05
3.7808632e-05
4.0177663e-05
4.2905688e-05
4.6057419e-05
4.9711729e-05
5.3965486e-05
5.8937592e-05
6.4774028e-05
7.16536e-05
7.9796217e-05
8.9472459e-05
0.00010100937
0.00011481083
0.00013137253
0.00015129979
0.00017532968
0.000204365
0.00023950385
0.00028207987
0.00033371121
0.00039635287
0.00047236307
0.00056457688
0.00067639352
0.00081188135
0.00097592445
0.0011743844
0.0012201913
0.0012191587
0.0012178252
0.0012163757
0.0012147987
0.001213071
0.0012111573
0.0012089969
0.0012064626
0.0012032301
0.0011994326
0.001195559
0.0011920614
0.0011889727
0.0011862529
0.0011838904
0.0011818505
0.0011801996
0.0011786706
0.0011780272
0.0011763678
0.0011789609
0.0011738068
0.0011797026
2.6348925e-06
1.8977955e-05
1.8035727e-05
2.2685082e-05
2.1561744e-05
2.3017959e-05
2.6480273e-05
2.3639247e-05
2.6986801e-05
2.3415846e-05
2.4804486e-05
2.2774844e-05
2.3183765e-05
2.2289838e-05
2.2426649e-05
2.2161014e-05
2.2328932e-05
2.2430792e-05
2.2743202e-05
2.3103135e-05
2.3600116e-05
2.4188509e-05
2.4899617e-05
2.5727022e-05
2.6688672e-05
2.7794781e-05
2.9064762e-05
3.0519313e-05
3.2185599e-05
3.4095837e-05
3.6289726e-05
3.8815995e-05
4.173483e-05
4.5119495e-05
4.905999e-05
5.3666909e-05
5.9076021e-05
6.5453684e-05
7.3004252e-05
8.1980208e-05
9.2685874e-05
0.00010549658
0.00012087293
0.00013937859
0.00016169793
0.00018866972
0.0002213148
0.00026087194
0.00030884583
0.00036705531
0.00043769727
0.0005234186
0.00062740105
0.00075346414
0.00090619806
0.0010911315
0.0012195665
0.0012185264
0.0012171398
0.0012156418
0.0012140235
0.0012122634
0.0012103313
0.0012081791
0.0012057179
0.0012027421
0.0011990806
0.0011952406
0.0011917638
0.0011886969
0.0011860012
0.0011836569
0.0011816483
0.0011799829
0.0011785583
0.0011777547
0.0011763603
0.0011783474
0.0011738662
0.0011792285
2.3822275e-06
1.8442222e-05
1.6791187e-05
2.065023e-05
2.0259218e-05
2.0706874e-05
2.4528465e-05
2.1043518e-05
2.4118954e-05
2.0742393e-05
2.1901896e-05
2.0139927e-05
2.0450476e-05
1.971217e-05
1.9815407e-05
1.9620778e-05
1.9774941e-05
1.9898041e-05
2.0194795e-05
2.0545849e-05
2.1015622e-05
2.1573116e-05
2.2241364e-05
2.3018198e-05
2.3918471e-05
2.4953075e-05
2.6139643e-05
2.7497986e-05
2.905349e-05
3.0836504e-05
3.288421e-05
3.5242168e-05
3.7966915e-05
4.1127139e-05
4.4807205e-05
4.911096e-05
5.4165903e-05
6.0128257e-05
6.7189792e-05
7.5588495e-05
8.560991e-05
9.7606678e-05
0.0001120115
0.00012935375
0.00015027576
0.00017556456
0.0002061789
0.00024328114
0.00028828456
0.00034289785
0.00040918712
0.00048964562
0.00058727655
0.00070569378
0.00084924603
0.0010231817
0.0012189287
0.0012178944
0.0012164532
0.0012149048
0.0012132428
0.0012114476
0.001209492
0.0012073361
0.0012049147
0.0012021035
0.0011986282
0.001194844
0.0011914032
0.0011883718
0.0011857106
0.001183397
0.0011814202
0.0011797632
0.0011784163
0.0011774857
0.0011763454
0.0011777752
0.0011739297
0.0011788362
2.165548e-06
1.7853323e-05
1.5664065e-05
1.872787e-05
1.9046327e-05
1.853599e-05
2.2567179e-05
1.8717336e-05
2.1390224e-05
1.8348718e-05
1.926234e-05
1.7778577e-05
1.7993839e-05
1.7402334e-05
1.7477675e-05
1.7347632e-05
1.7493112e-05
1.763599e-05
1.7922106e-05
1.8266989e-05
1.8715623e-05
1.9248209e-05
1.9881655e-05
2.0616947e-05
2.1466669e-05
2.2442062e-05
2.3559494e-05
2.4837944e-05
2.6301398e-05
2.7978681e-05
2.9904917e-05
3.2123079e-05
3.468671e-05
3.7660791e-05
4.1125137e-05
4.5178048e-05
4.9940393e-05
5.5560321e-05
6.2218895e-05
7.0143143e-05
7.9603276e-05
9.0933578e-05
0.00010454388
0.00012093678
0.00014072016
0.00016463955
0.00019360379
0.00022871348
0.00027130835
0.00032300821
0.00038577317
0.00046197144
0.00055446026
0.00066668422
0.00080279553
0.00096781113
0.001167783
0.0012172525
0.0012157565
0.0012141571
0.0012124508
0.0012106192
0.0012086377
0.0012064716
0.001204068
0.0012013341
0.001198076
0.0011943714
0.001190982
0.0011879995
0.0011853841
0.0011831123
0.001181171
0.0011795406
0.0011782515
0.0011772474
0.0011763214
0.0011772492
0.0011740075
0.0011784518
1.9771821e-06
1.7197596e-05
1.4603433e-05
1.6885368e-05
1.7905853e-05
1.6571641e-05
2.0571901e-05
1.662181e-05
1.8843862e-05
1.6198074e-05
1.6875096e-05
1.5659272e-05
1.5791975e-05
1.5332354e-05
1.5388209e-05
1.5315001e-05
1.5457171e-05
1.5618141e-05
1.5898184e-05
1.6239297e-05
1.6672231e-05
1.7185275e-05
1.7791105e-05
1.8492868e-05
1.9301617e-05
2.022871e-05
2.1289577e-05
2.2502482e-05
2.3890297e-05
2.5480636e-05
2.7306972e-05
2.9410132e-05
3.1841273e-05
3.46624e-05
3.7949662e-05
4.1796853e-05
4.6319622e-05
5.1659773e-05
5.7989098e-05
6.5526996e-05
7.4530926e-05
8.5320256e-05
9.8286272e-05
0.00011391134
0.00013277478
0.0001555888
0.00018322257
0.00021672668
0.00025738211
0.00030673696
0.00036666573
0.0004394353
0.00052778392
0.00063501747
0.00076512733
0.00092294009
0.0011142893
0.0012165902
0.0012150411
0.0012133913
0.0012116412
0.0012097736
0.0012077659
0.0012055873
0.0012031938
0.001200516
0.0011974259
0.001193827
0.0011905038
0.0011875833
0.0011850252
0.0011828053
0.001180906
0.0011793156
0.0011780702
0.0011770376
0.0011762878
0.0011767807
0.001174105
0.0011780859
1.813673e-06
1.6439305e-05
1.3618092e-05
1.5112356e-05
1.6812104e-05
1.4791565e-05
1.853099e-05
1.4729398e-05
1.6492964e-05
1.4262932e-05
1.4728769e-05
1.3756736e-05
1.3824338e-05
1.3478799e-05
1.3524253e-05
1.3499973e-05
1.3643788e-05
1.3821257e-05
1.4040597e-05
1.437066e-05
1.4785489e-05
1.5277965e-05
1.5857237e-05
1.6527375e-05
1.7298005e-05
1.8180218e-05
1.9188491e-05
2.0340251e-05
2.1657236e-05
2.3165904e-05
2.4898232e-05
2.6892955e-05
2.9199097e-05
3.1875957e-05
3.4996403e-05
3.8650209e-05
4.2948358e-05
4.8027576e-05
5.4410991e-05
6.1638024e-05
7.0275664e-05
8.063148e-05
9.3081592e-05
0.00010809344
0.000126223
0.00014815562
0.00017472975
0.0002069554
0.00024606729
0.00029355621
0.00035122815
0.00042126866
0.00050632014
0.00060957636
0.00073489803
0.0008869571
0.0010714077
0.0012158977
0.0012142987
0.0012126005
0.0012108086
0.0012089066
0.0012068738
0.0012046824
0.0012022948
0.0011996559
0.0011966796
0.0011932163
0.0011899736
0.0011871275
0.0011846379
0.0011824791
0.00118063
0.0011790892
0.0011778789
0.0011768538
0.0011762444
0.0011763826
0.0011742211
0.0011777388
1.6714924e-06
1.5561191e-05
1.2696147e-05
1.3399816e-05
1.5722847e-05
1.3173632e-05
1.646821e-05
1.3013666e-05
1.434345e-05
1.2518046e-05
1.2808042e-05
1.2048669e-05
1.2070537e-05
1.1821309e-05
1.1809284e-05
1.1806119e-05
1.1944038e-05
1.2130336e-05
1.2404274e-05
1.2741918e-05
1.3155149e-05
1.3641049e-05
1.4207348e-05
1.4859305e-05
1.5605993e-05
1.6458582e-05
1.743109e-05
1.8540497e-05
1.9807838e-05
2.1258845e-05
2.2924621e-05
2.484229e-05
2.705948e-05
2.9633652e-05
3.263537e-05
3.61515e-05
4.0289614e-05
4.5183936e-05
5.0995078e-05
5.7922166e-05
6.6208869e-05
7.61528e-05
8.8801031e-05
0.00010333295
0.0001208889
0.0001421324
0.0001678793
0.00019910643
0.00023701309
0.00028304501
0.0003389541
0.00040686167
0.00048933424
0.00058947653
0.00071104539
0.00085858963
0.0010376202
0.0012151659
0.0012135222
0.0012117787
0.0012099478
0.0012080143
0.0012059588
0.0012037564
0.0012013737
0.0011987643
0.0011958593
0.0011925462
0.0011893972
0.0011866374
0.0011842268
0.0011821377
0.0011803477
0.0011788631
0.001177684
0.0011766926
0.0011761902
0.0011760591
0.0011743504
0.0011774567
1.5485013e-06
1.4555769e-05
1.1838527e-05
1.1847378e-05
1.4601333e-05
1.1697248e-05
1.4466268e-05
1.1453606e-05
1.239885e-05
1.0943772e-05
1.1097517e-05
1.0517422e-05
1.043055e-05
1.0235445e-05
1.0271095e-05
1.0320767e-05
1.0480184e-05
1.0689981e-05
1.0974321e-05
1.1319045e-05
1.1732353e-05
1.2214056e-05
1.2771118e-05
1.3409611e-05
1.4138197e-05
1.4968091e-05
1.5912979e-05
1.6989445e-05
1.8217957e-05
1.9623688e-05
2.1237246e-05
2.3094289e-05
2.5241489e-05
2.7734941e-05
3.0643537e-05
3.4051904e-05
3.8064491e-05
4.281385e-05
4.8456447e-05
5.5187081e-05
6.3244089e-05
7.2919068e-05
8.4571172e-05
9.8632273e-05
0.00011563218
0.00013734489
0.00016246579
0.00019293594
0.00022992901
0.00027485614
0.00032942764
0.00039571541
0.00047622738
0.00057399958
0.0006927087
0.00083680922
0.0010117033
0.0012143863
0.0012127053
0.0012109208
0.0012090549
0.0012070936
0.001205019
0.0012028086
0.0012004328
0.0011978521
0.0011950109
0.0011918252
0.0011887816
0.0011861187
0.0011837965
0.0011817849
0.0011800629
0.0011786388
0.001177491
0.0011765504
0.0011761225
0.0011758004
0.0011744883
0.001177226
1.4423903e-06
1.3422967e-05
1.1037446e-05
1.0439427e-05
1.3407516e-05
1.034889e-05
1.2559975e-05
1.0035398e-05
1.0659275e-05
9.5258024e-06
9.4903257e-06
9.0133696e-06
8.975293e-06
8.8702529e-06
8.9338317e-06
9.0260363e-06
9.2054286e-06
9.4351487e-06
9.7298167e-06
1.0081641e-05
1.0496751e-05
1.0976652e-05
1.152795e-05
1.2157327e-05
1.2873098e-05
1.3686513e-05
1.4611027e-05
1.5662903e-05
1.6862119e-05
1.8233392e-05
1.9731583e-05
2.1527782e-05
2.3604673e-05
2.6017007e-05
2.8832127e-05
3.2132682e-05
3.622615e-05
4.0866552e-05
4.6383076e-05
5.2967555e-05
6.0854464e-05
7.0329507e-05
8.1748355e-05
9.5534051e-05
0.00011220811
0.00013240803
0.00015690172
0.00018823893
0.0002245713
0.00026869901
0.00032230153
0.00038741428
0.00046650191
0.00056254959
0.00067917492
0.0008207645
0.00099264306
0.0012012653
0.0012118436
0.0012100231
0.0012081271
0.0012061425
0.0012040532
0.0012018387
0.0011994728
0.0011969215
0.0011941394
0.0011910627
0.0011881345
0.0011855778
0.0011833518
0.0011814249
0.0011797787
0.0011784178
0.0011773046
0.0011764248
0.0011760399
0.0011755648
0.0011746277
0.0011770455
1.3518326e-06
1.2174335e-05
1.0284164e-05
9.1610996e-06
1.2102676e-05
9.1147064e-06
1.0780048e-05
8.7452489e-06
9.1176501e-06
8.1086653e-06
8.0523876e-06
7.7317467e-06
7.7192575e-06
7.6849798e-06
7.7752743e-06
7.9022436e-06
8.1004042e-06
8.3475818e-06
8.6527055e-06
9.012025e-06
9.4306567e-06
9.9111077e-06
1.0459831e-05
1.1057895e-05
1.175887e-05
1.2554235e-05
1.3456977e-05
1.4482821e-05
1.5651042e-05
1.6985477e-05
1.8515199e-05
2.0275924e-05
2.2311591e-05
2.4676341e-05
2.7436896e-05
3.0675528e-05
3.4493655e-05
3.9016233e-05
4.4397026e-05
5.0825309e-05
5.8532396e-05
6.8312146e-05
7.9572206e-05
9.3171195e-05
0.00010962304
0.00012956055
0.00015374147
0.00018309389
0.00022072833
0.00026432176
0.00031727538
0.00038159958
0.00045972923
0.00055461453
0.00066983259
0.00080972553
0.00097956814
0.0011857618
0.0012109341
0.0012090833
0.0012071627
0.0012051602
0.001203061
0.001200847
0.001198495
0.0011959753
0.0011932498
0.0011902688
0.0011874641
0.0011850207
0.0011828974
0.0011810616
0.0011794973
0.0011782015
0.0011771286
0.0011763129
0.0011759454
0.001175373
0.0011747591
0.0011768907
1.2764033e-06
1.08235e-05
9.5702956e-06
8.000109e-06
1.0731807e-05
7.9834997e-06
9.1561858e-06
7.5121585e-06
7.5649902e-06
6.8776362e-06
6.8243959e-06
6.6239456e-06
6.6390536e-06
6.6607415e-06
6.7764406e-06
6.9324404e-06
7.1483661e-06
7.4113729e-06
7.7272384e-06
8.0946743e-06
8.4990174e-06
8.9768788e-06
9.5207669e-06
1.0137376e-05
1.0835291e-05
1.1624979e-05
1.2519406e-05
1.3534186e-05
1.4688309e-05
1.6005438e-05
1.7514387e-05
1.9250584e-05
2.1257671e-05
2.3589458e-05
2.6312313e-05
2.9508093e-05
3.3277689e-05
3.7745298e-05
4.3063799e-05
4.9421877e-05
5.7051318e-05
6.623168e-05
7.7306067e-05
9.069097e-05
0.0001077784
0.00012756406
0.0001515622
0.0001806988
0.00021608469
0.00026149899
0.00031408047
0.00037795054
0.00045552655
0.00054973782
0.00066413748
0.00080304329
0.00097170478
0.0011764989
0.0012099758
0.0012081012
0.0012061619
0.001204147
0.0012020433
0.0011998347
0.001197501
0.0011950163
0.0011923478
0.0011894543
0.0011867787
0.0011844537
0.0011824376
0.0011806978
0.0011792197
0.0011779905
0.0011769656
0.0011762133
0.0011758396
0.0011752152
0.001174867
0.0011767404
1.2170772e-06
9.3838503e-06
8.8756706e-06
6.9444063e-06
9.3179543e-06
6.936899e-06
7.8785455e-06
6.3045536e-06
6.2853189e-06
5.8177905e-06
5.779196e-06
5.6707217e-06
5.7143398e-06
5.7810712e-06
5.9208269e-06
6.1017402e-06
6.3346549e-06
6.6124692e-06
6.9214807e-06
7.2933929e-06
7.7195586e-06
8.2038535e-06
8.7519247e-06
9.3707152e-06
1.0068885e-05
1.085688e-05
1.1747671e-05
1.2756869e-05
1.3903155e-05
1.5210153e-05
1.6706556e-05
1.8427686e-05
2.0417115e-05
2.2728613e-05
2.5428549e-05
2.8598822e-05
3.2340334e-05
3.6777097e-05
4.2061646e-05
4.8382175e-05
5.5971562e-05
6.5108177e-05
7.6136345e-05
8.9472573e-05
0.00010562259
0.00012520156
0.00015023654
0.00017929075
0.00021458081
0.00025744826
0.00031246428
0.00037616577
0.00045353405
0.00054749063
0.00066157851
0.00080010936
0.00096832906
0.0011726168
0.0012089698
0.001207078
0.0012051264
0.0012031051
0.0012010023
0.001198804
0.0011964931
0.0011940474
0.0011914385
0.0011886297
0.0011860864
0.0011838823
0.001181976
0.0011803356
0.0011789456
0.0011777838
0.0011768153
0.0011761239
0.0011757261
0.0011750803
0.001174953
0.0011765906
1.1781208e-06
7.8760542e-06
8.1668526e-06
5.991208e-06
7.9226363e-06
6.2146045e-06
6.5750222e-06
5.2552231e-06
5.2156216e-06
4.9079735e-06
4.8930039e-06
4.8560577e-06
4.9280605e-06
5.0319758e-06
5.1944644e-06
5.397307e-06
5.6309924e-06
5.9190296e-06
6.2541185e-06
6.6376059e-06
7.0730877e-06
7.5649569e-06
8.1190369e-06
8.74242e-06
9.4438497e-06
1.0233667e-05
1.112487e-05
1.2106941e-05
1.3243182e-05
1.4537028e-05
1.6016848e-05
1.7717654e-05
1.9682747e-05
2.1965654e-05
2.4632574e-05
2.7765286e-05
3.1464576e-05
3.5854247e-05
4.1086353e-05
4.7659677e-05
5.5242265e-05
6.4373891e-05
7.5402394e-05
8.8744205e-05
0.00010490496
0.00012450124
0.0001482814
0.00017872141
0.00021404905
0.00025696527
0.00030909185
0.00037594549
0.00045339329
0.00054744587
0.00066164659
0.00080031696
0.0009687183
0.0011732552
0.0012079193
0.0012060173
0.0012040599
0.0012020381
0.0011999416
0.0011977584
0.0011954742
0.0011930712
0.0011905258
0.001187805
0.0011853948
0.0011833117
0.0011815153
0.0011799755
0.0011786734
0.0011775795
0.001176674
0.0011760385
0.0011756098
0.0011749759
0.0011750235
0.0011764243
1.163249e-06
6.9143349e-06
7.4386246e-06
5.8107453e-06
7.4758547e-06
5.0539935e-06
5.025052e-06
4.363887e-06
4.3214424e-06
4.1360454e-06
4.147565e-06
4.1674621e-06
4.2667795e-06
4.4018584e-06
4.573756e-06
4.7916264e-06
5.0534081e-06
5.3573781e-06
5.7056326e-06
6.1005005e-06
6.5458647e-06
7.0464617e-06
7.6082422e-06
8.2383543e-06
8.9323618e-06
9.7227304e-06
1.0612481e-05
1.1616879e-05
1.2754648e-05
1.404883e-05
1.5527879e-05
1.7226974e-05
1.9189682e-05
2.1469925e-05
2.4134458e-05
2.7265787e-05
3.0965566e-05
3.5358831e-05
4.0599541e-05
4.687629e-05
5.4418042e-05
6.39682e-05
7.5034614e-05
8.8427138e-05
0.00010465215
0.00012432866
0.00014820796
0.00017720199
0.00021430701
0.00025740116
0.00030973913
0.00037330679
0.00045473003
0.00054915719
0.0006638089
0.00080302976
0.00097211276
0.0011775067
0.0012068298
0.0012049245
0.0012029679
0.0012009518
0.001198867
0.0011967031
0.0011944485
0.0011920896
0.0011896102
0.0011869895
0.0011847108
0.0011827462
0.0011810576
0.0011796164
0.0011783998
0.0011773745
0.0011765341
0.0011759453
0.0011754921
0.001174903
0.0011750581
0.0011762287
1.1712688e-06
7.1224773e-06
6.6613836e-06
6.4251232e-06
6.5605371e-06
3.9953878e-06
4.0766212e-06
3.6095089e-06
3.5802843e-06
3.4892683e-06
3.5287119e-06
3.5938742e-06
3.718854e-06
3.8680965e-06
4.0674451e-06
4.305775e-06
4.5840307e-06
4.9023372e-06
5.2631451e-06
5.6694258e-06
6.125295e-06
6.6357033e-06
7.1987829e-06
7.8346483e-06
8.546365e-06
9.3441806e-06
1.0240562e-05
1.125076e-05
1.2393514e-05
1.3691952e-05
1.5174699e-05
1.6877224e-05
1.8843488e-05
2.1127977e-05
2.3798193e-05
2.6937538e-05
3.0648686e-05
3.5058098e-05
4.0321539e-05
4.6629092e-05
5.4211629e-05
6.3352489e-05
7.4958876e-05
8.8435502e-05
0.00010476433
0.00012456775
0.00014860077
0.00017777967
0.00021515644
0.00025852148
0.000311182
0.00037513415
0.00045713563
0.00055213596
0.00066748137
0.00080754893
0.00097767555
0.0011843684
0.0012057083
0.0012038066
0.0012018575
0.0011998533
0.0011977856
0.0011956454
0.0011934224
0.0011911057
0.0011886829
0.0011861903
0.0011840398
0.0011821896
0.0011806041
0.0011792565
0.0011781211
0.0011771636
0.0011763862
0.0011758357
0.001175378
0.0011748477
0.0011750343
0.0011759877
1.015938e-06
7.4890775e-06
5.813311e-06
4.4354865e-06
4.2507716e-06
3.3160642e-06
3.258248e-06
2.9980346e-06
2.976535e-06
2.9561559e-06
3.023269e-06
3.1239155e-06
3.2617537e-06
3.4418238e-06
3.6612593e-06
3.9168553e-06
4.2098254e-06
4.5414549e-06
4.9145255e-06
5.3324085e-06
5.7993708e-06
6.3149072e-06
6.8940889e-06
7.5401506e-06
8.2615342e-06
9.0684447e-06
9.9733118e-06
1.0991384e-05
1.2141461e-05
1.3446811e-05
1.4936299e-05
1.6645763e-05
1.8619674e-05
2.0913208e-05
2.359473e-05
2.6748595e-05
3.0478691e-05
3.4913277e-05
4.0210046e-05
4.6559903e-05
5.4195267e-05
6.3873531e-05
7.5094335e-05
8.8675026e-05
0.00010513109
0.00012508909
0.00014930881
0.00017871211
0.00021637365
0.00026006083
0.0003131064
0.00037751958
0.00046014615
0.00055582734
0.0006719994
0.00081307802
0.00098445107
0.0011926926
0.001204563
0.0012026717
0.0012007366
0.0011987506
0.0011967062
0.001194595
0.001192408
0.0011901354
0.0011877663
0.0011854128
0.0011833855
0.0011816444
0.0011801563
0.0011788953
0.001177834
0.001176941
0.0011762238
0.0011757085
0.0011752488
0.0011747459
0.0011749405
0.0011756861
7.8991394e-07
6.4161657e-06
4.6005227e-06
3.2164848e-06
3.2994589e-06
2.6868817e-06
2.6266565e-06
2.4807002e-06
2.4887838e-06
2.5191494e-06
2.6145127e-06
2.7368871e-06
2.9032184e-06
3.1047044e-06
3.3413007e-06
3.6120311e-06
3.9185378e-06
4.2628463e-06
4.6479877e-06
5.0775644e-06
5.5526929e-06
6.0835372e-06
6.6738704e-06
7.3307053e-06
8.0624288e-06
8.8791965e-06
9.7934146e-06
1.0820349e-05
1.1978889e-05
1.3292487e-05
1.4790299e-05
1.6508578e-05
1.8492371e-05
2.0797612e-05
2.3493514e-05
2.6665361e-05
3.0418389e-05
3.4882835e-05
4.0218431e-05
4.6616281e-05
5.4686121e-05
6.4043418e-05
7.5353359e-05
8.9042691e-05
0.00010563095
0.00012574884
0.00015016145
0.00017979622
0.00021770804
0.00026172033
0.0003151553
0.00038003612
0.00046323686
0.00055960256
0.00067660866
0.00081871075
0.00099134928
0.0012011662
0.0012034036
0.001201529
0.0011996142
0.0011976525
0.0011956371
0.0011935608
0.0011914154
0.0011891923
0.0011868821
0.0011846599
0.0011827492
0.0011811113
0.0011797144
0.001178533
0.0011775383
0.001176704
0.0011760404
0.0011755521
0.0011750931
0.0011746302
0.0011748035
0.001175318
6.1596077e-07
3.4777659e-06
3.652651e-06
2.6185238e-06
2.546015e-06
2.1736396e-06
2.1287234e-06
2.0644561e-06
2.1021655e-06
2.1724486e-06
2.2928594e-06
2.4399485e-06
2.6267417e-06
2.8456551e-06
3.0969828e-06
3.3811683e-06
3.7002139e-06
4.056577e-06
4.4534219e-06
4.8944386e-06
5.3839632e-06
5.9241065e-06
6.5254308e-06
7.1928962e-06
7.9348344e-06
8.76136e-06
9.6848705e-06
1.0720672e-05
1.1887764e-05
1.3209797e-05
1.4716228e-05
1.6443742e-05
1.843798e-05
2.0755613e-05
2.3466608e-05
2.6657135e-05
3.0433664e-05
3.5118265e-05
4.0531759e-05
4.7023518e-05
5.483341e-05
6.4255932e-05
7.5645707e-05
8.9431771e-05
0.00010613684
0.00012639507
0.00015097693
0.00018240146
0.00021888523
0.0002631704
0.00031693239
0.00038220706
0.00046581666
0.00056275018
0.00068045215
0.00082341384
0.00099712283
0.0012040608
0.0012022406
0.0012003886
0.0011984995
0.0011965676
0.0011945866
0.00119255
0.0011904508
0.0011882816
0.0011860342
0.0011839327
0.0011821293
0.0011805869
0.0011792748
0.0011781665
0.0011772334
0.0011764539
0.0011758371
0.0011753694
0.001174923
0.0011745209
0.0011746609
0.0011749925
4.9864378e-07
2.5867634e-06
2.800022e-06
2.0676864e-06
1.9826897e-06
1.7660309e-06
1.7428329e-06
1.736899e-06
1.8028347e-06
1.9046775e-06
2.0470781e-06
2.2166103e-06
2.4202118e-06
2.6537904e-06
2.9181217e-06
3.2144775e-06
3.5450924e-06
3.9126394e-06
4.3203328e-06
4.7718793e-06
5.2715749e-06
5.8244081e-06
6.4362395e-06
7.1140382e-06
7.8661932e-06
8.7029172e-06
9.6367584e-06
1.0683245e-05
1.1861682e-05
1.319612e-05
1.4716525e-05
1.6460235e-05
1.8473714e-05
2.0814543e-05
2.3553716e-05
2.6778917e-05
3.0598667e-05
3.5145818e-05
4.0580583e-05
4.7098683e-05
5.4942823e-05
6.440853e-05
7.5851523e-05
8.9701579e-05
0.00010648235
0.00012789986
0.00015276711
0.00018293663
0.00021954825
0.0002639851
0.00031792804
0.0003870414
0.00046713414
0.00056437174
0.00068245466
0.00082589894
0.0010002257
0.001202879
0.0012010842
0.0011992601
0.0011974019
0.0011955044
0.0011935621
0.0011915693
0.00118952
0.0011874076
0.0011852255
0.0011832309
0.0011815227
0.0011800653
0.0011788287
0.0011777857
0.0011769086
0.0011761798
0.0011756036
0.0011751528
0.0011747268
0.0011743835
0.0011744806
0.0011746595
3.8606024e-07
2.0169107e-06
2.1009321e-06
1.6413864e-06
1.5539503e-06
1.4411206e-06
1.4423193e-06
1.4796477e-06
1.5710618e-06
1.6978059e-06
1.858372e-06
2.0462384e-06
2.2629974e-06
2.5082331e-06
2.783111e-06
3.0893615e-06
3.4293411e-06
3.80582e-06
4.2220219e-06
4.68165e-06
5.1889752e-06
5.7489459e-06
6.3673608e-06
7.0511199e-06
7.8085436e-06
8.6497811e-06
9.5873318e-06
1.0636699e-05
1.1817194e-05
1.3152903e-05
1.4673882e-05
1.6417625e-05
1.8430774e-05
2.0771018e-05
2.3509622e-05
2.6735086e-05
3.0556285e-05
3.5105287e-05
4.0541664e-05
4.7062843e-05
5.4912353e-05
6.4858054e-05
7.6394284e-05
9.0352433e-05
0.00010725805
0.00012774888
0.00015259855
0.0001827459
0.00021933082
0.00026373375
0.00032053044
0.00038643029
0.00046642713
0.00056355962
0.00068153237
0.00082486869
0.00099910073
0.0012017116
0.0011999474
0.0011981555
0.0011963323
0.001194473
0.0011925728
0.0011906266
0.0011886293
0.0011865752
0.0011844588
0.0011825548
0.0011809273
0.0011795419
0.0011783689
0.0011773812
0.0011765524
0.0011758679
0.0011753252
0.0011748902
0.0011744895
0.0011741937
0.0011742424
0.0011742993
2.5107295e-07
1.5880997e-06
1.537924e-06
1.3163549e-06
1.236305e-06
1.1933022e-06
1.2216071e-06
1.2937398e-06
1.4091209e-06
1.5570466e-06
1.7338776e-06
1.9369742e-06
2.1663674e-06
2.422838e-06
2.7080068e-06
3.0233481e-06
3.3723037e-06
3.7572648e-06
4.1814709e-06
4.648652e-06
5.1630992e-06
5.729728e-06
6.3542647e-06
7.0435422e-06
7.8058078e-06
8.6511333e-06
9.5919464e-06
1.0643683e-05
1.1825592e-05
1.3161708e-05
1.4682065e-05
1.6424141e-05
1.8434444e-05
2.07704e-05
2.3591741e-05
2.6831867e-05
3.0669977e-05
3.5237088e-05
4.0693528e-05
4.7238942e-05
5.5116417e-05
6.4617423e-05
7.6096155e-05
8.9983932e-05
0.00010680192
0.00012718351
0.00015189676
0.00018349739
0.00022013674
0.00026458837
0.00031852965
0.00038400038
0.00046348325
0.00056000303
0.00067724895
0.0008197271
0.00099295114
0.0012005661
0.0011988381
0.0011970823
0.0011952974
0.0011934792
0.0011916235
0.0011897258
0.0011877815
0.0011857857
0.0011837335
0.0011819017
0.0011803386
0.0011790102
0.0011778874
0.001176943
0.0011761528
0.0011755033
0.001174986
0.0011745651
0.0011741912
0.0011739324
0.001173932
0.0011738916
3.187427e-07
1.2795351e-06
1.1289666e-06
1.0584967e-06
1.0131204e-06
1.0118675e-06
1.0628121e-06
1.1574789e-06
1.2877746e-06
1.4468435e-06
1.631243e-06
1.8399749e-06
2.0734402e-06
2.3328506e-06
2.6199503e-06
2.9368768e-06
3.286148e-06
3.6706535e-06
4.0936969e-06
4.5590233e-06
5.0708307e-06
5.6336728e-06
6.2530191e-06
6.9357774e-06
7.6901586e-06
8.5261785e-06
9.4561759e-06
1.0495465e-05
1.1663131e-05
1.2983019e-05
1.4484942e-05
1.6206049e-05
1.8192351e-05
2.050079e-05
2.3202137e-05
2.6383638e-05
3.0151172e-05
3.4632935e-05
3.9988283e-05
4.6414206e-05
5.4147409e-05
6.347347e-05
7.5320442e-05
8.905742e-05
0.00010568967
0.00012584316
0.00015027749
0.0001799148
0.00021587492
0.00025951869
0.00031250073
0.00037683466
0.0004549728
0.00054990474
0.00066527874
0.0008055534
0.00097618661
0.001183858
0.0011977538
0.0011960391
0.001194297
0.0011925237
0.0011907155
0.0011888684
0.0011869786
0.0011850418
0.0011830541
0.0011812732
0.0011797555
0.0011784672
0.0011773791
0.0011764644
0.0011757005
0.0011750737
0.0011745703
0.0011741566
0.0011738035
0.0011735736