/*--------------------------------*- C++ -*----------------------------------*\
  =========                 |
  \\      /  F ield         | OpenFOAM: The Open Source CFD Toolbox
   \\    /   O peration     | Website:  https://openfoam.org
    \\  /    A nd           | Version:  6
     \\/     M anipulation  |
\*---------------------------------------------------------------------------*/
FoamFile
{
    version     2.0;
    format      ascii;
    class       volScalarField;
    location    "500";
    object      k;
}
// * * * * * * * * * * * * * * * * * * * * * * * * * * * * * * * * * * * * * //

dimensions      [0 2 -2 0 0 0 0];

internalField   nonuniform List<scalar> 
16000
(
0.12272413
0.031717693
0.021565361
0.017615662
0.015226929
0.014300862
0.013299446
0.01295228
0.012489847
0.012267392
0.012015745
0.011848272
0.01168904
0.01156113
0.011449222
0.011357365
0.011280554
0.011215912
0.011160864
0.011113661
0.011072856
0.01103736
0.011006285
0.010978932
0.010954734
0.010933227
0.010914029
0.010896822
0.010881337
0.01086735
0.010854667
0.010843123
0.010832572
0.010822887
0.010813951
0.01080566
0.010797918
0.010790632
0.010783718
0.010777093
0.010770677
0.010764396
0.010758176
0.010751946
0.010745635
0.010739174
0.010732493
0.010725523
0.010718194
0.010710437
0.010702179
0.010693347
0.010683865
0.010673649
0.010662601
0.010650589
0.010637434
0.010622882
0.010606469
0.01058686
0.010562656
0.010533197
0.010498139
0.010456279
0.010407181
0.010352393
0.010295892
0.010243017
0.010195861
0.010155823
0.01011989
0.010092785
0.010064905
0.010050249
0.010029444
0.010043564
0.010027002
0.010106814
0.010029941
0.010107662
0.10433827
0.032230883
0.021036016
0.017485714
0.015032806
0.014217399
0.013196006
0.012880592
0.012414521
0.012198631
0.011949287
0.011782317
0.011626594
0.011499883
0.011395298
0.011309475
0.011237703
0.011177315
0.011125893
0.011081805
0.011043694
0.011010543
0.010981517
0.010955962
0.010933343
0.010913226
0.010895251
0.01087912
0.010864578
0.010851414
0.010839445
0.010828515
0.010818488
0.010809241
0.010800665
0.010792663
0.010785141
0.010778016
0.010771207
0.010764637
0.01075823
0.010751918
0.010745631
0.010739302
0.010732866
0.010726256
0.01071941
0.01071226
0.010704741
0.010696787
0.010688328
0.010679294
0.01066961
0.010659196
0.010647961
0.010635787
0.010622518
0.010607953
0.010591838
0.010573797
0.010552967
0.01052645
0.010494173
0.010454794
0.010407583
0.01035361
0.010296989
0.010243351
0.010195825
0.010155013
0.010119245
0.010090884
0.010064713
0.010049801
0.010029125
0.010036904
0.010022923
0.010095491
0.010028444
0.010106626
0.090538114
0.032704802
0.020486443
0.017332155
0.014832527
0.014118433
0.013088707
0.012798951
0.012336166
0.012123172
0.011879923
0.011711596
0.011561194
0.011442231
0.011344721
0.011264717
0.011197813
0.011141533
0.011093616
0.011052537
0.011017029
0.010986139
0.010959088
0.010935262
0.010914158
0.010895371
0.010878562
0.010863451
0.010849798
0.010837403
0.010826095
0.010815726
0.010806167
0.010797304
0.010789035
0.010781266
0.01077391
0.010766889
0.010760127
0.010753553
0.010747097
0.010740694
0.01073428
0.010727792
0.010721169
0.010714352
0.010707279
0.010699889
0.01069212
0.010683909
0.010675191
0.010665897
0.010655956
0.010645288
0.010633808
0.010621408
0.010607946
0.010593236
0.010577055
0.010559132
0.010539051
0.010515914
0.01048699
0.010450655
0.010405894
0.010353267
0.01029685
0.01024274
0.01019489
0.010153665
0.010118007
0.01008904
0.010063718
0.010048716
0.010028928
0.010032677
0.0100206
0.010085405
0.010026473
0.01009768
0.081294108
0.032943964
0.019936499
0.017155165
0.014630903
0.014002318
0.012980356
0.01270572
0.012255586
0.012039861
0.011807604
0.011638666
0.011498793
0.01138815
0.011297461
0.011223055
0.011160845
0.011108521
0.011063982
0.011025799
0.010992794
0.010964077
0.010938919
0.010916745
0.010897086
0.01087956
0.010863852
0.010849696
0.010836869
0.010825182
0.010814473
0.010804604
0.010795453
0.010786914
0.010778889
0.010771292
0.010764043
0.010757067
0.010750292
0.010743656
0.010737092
0.01073054
0.010723941
0.010717239
0.010710375
0.010703296
0.010695944
0.010688262
0.010680193
0.010671676
0.01066265
0.010653049
0.010642804
0.010631839
0.01062007
0.010607396
0.010593689
0.010578773
0.010562438
0.010544445
0.010524475
0.010502012
0.010475986
0.010443345
0.010401701
0.010351034
0.010295253
0.010240957
0.010192967
0.01015158
0.01011604
0.010086776
0.010062148
0.010045948
0.010028627
0.010030274
0.010018828
0.01007414
0.010024843
0.010091772
0.073184066
0.03283736
0.019397577
0.016953124
0.014429358
0.013868267
0.012871408
0.012600419
0.012172771
0.011948443
0.011731825
0.011570165
0.011440415
0.011337744
0.011253616
0.011184592
0.011126901
0.011078383
0.011037092
0.011001693
0.01097109
0.010944453
0.010921103
0.010900502
0.010882211
0.010865874
0.010851194
0.010837924
0.010825854
0.010814806
0.010804628
0.01079519
0.010786378
0.010778092
0.010770243
0.010762749
0.010755537
0.010748538
0.010741685
0.010734919
0.010728182
0.010721417
0.010714572
0.010707594
0.010700431
0.010693032
0.010685346
0.010677319
0.010668897
0.010660024
0.010650641
0.010640686
0.010630093
0.010618786
0.010606686
0.010593695
0.010579694
0.010564522
0.010547977
0.010529835
0.010509816
0.010487513
0.010462253
0.010432638
0.010394843
0.010346819
0.010292165
0.010237978
0.010190046
0.010148729
0.01011342
0.010084134
0.010060075
0.010043177
0.01002786
0.010027615
0.010017518
0.010063733
0.01002369
0.010082444
0.066067482
0.03223627
0.01888202
0.016724475
0.014229662
0.013715189
0.01276251
0.012482297
0.012087639
0.011856064
0.011655818
0.011506166
0.011386125
0.011291082
0.011213253
0.011149392
0.011096038
0.011051171
0.011012995
0.01098026
0.010951952
0.010927297
0.010905662
0.010886546
0.010869539
0.010854309
0.010840577
0.010828113
0.01081672
0.010806232
0.010796506
0.01078742
0.010778869
0.010770759
0.010763008
0.010755541
0.01074829
0.010741192
0.010734189
0.010727225
0.010720246
0.010713204
0.01070605
0.010698737
0.010691217
0.010683444
0.010675372
0.01066695
0.010658128
0.010648854
0.010639072
0.010628722
0.01061774
0.010606055
0.010593587
0.010580243
0.010565911
0.010550442
0.010533644
0.010515302
0.010495161
0.010472865
0.010447881
0.010419288
0.010385155
0.010340545
0.010287581
0.010233808
0.010186153
0.01014512
0.010110153
0.010081073
0.010057531
0.010040284
0.010026575
0.010024642
0.010016409
0.010055229
0.010022582
0.01007576
0.059824659
0.031198345
0.018396105
0.016467116
0.014033638
0.01354209
0.012654196
0.012350834
0.011999237
0.011769643
0.011585023
0.011446781
0.011336025
0.011248268
0.01117647
0.01111755
0.011068349
0.011026973
0.01099177
0.010961574
0.010935447
0.010912666
0.010892647
0.01087492
0.010859104
0.010844888
0.010832014
0.010820265
0.010809459
0.010799441
0.010790076
0.010781253
0.010772874
0.010764852
0.010757112
0.010749586
0.010742213
0.010734938
0.010727706
0.010720469
0.010713179
0.010705793
0.010698266
0.010690558
0.010682625
0.010674426
0.010665917
0.010657055
0.01064779
0.010638075
0.010627855
0.010617075
0.01060567
0.010593574
0.010580708
0.010566982
0.010552288
0.010536489
0.010519403
0.010500825
0.010480515
0.010458153
0.010433281
0.010405176
0.010372494
0.010332117
0.010281492
0.010228454
0.010181301
0.01014076
0.01010628
0.010077594
0.010054554
0.010037286
0.010024787
0.010021316
0.010015302
0.010047577
0.010021478
0.01006862
0.054349207
0.030068013
0.017930705
0.016179253
0.013843156
0.01334843
0.012546882
0.012223674
0.011905767
0.011689249
0.011519499
0.011392093
0.011290192
0.011209387
0.011143348
0.011089145
0.011043906
0.011005856
0.010973481
0.010945691
0.010921622
0.010900601
0.010882086
0.01086564
0.010850909
0.010837603
0.010825482
0.010814346
0.010804023
0.010794371
0.010785266
0.010776604
0.010768296
0.010760264
0.010752439
0.010744763
0.010737179
0.01072964
0.010722099
0.010714513
0.010706841
0.010699043
0.010691083
0.010682922
0.010674524
0.010665851
0.010656863
0.010647519
0.010637775
0.010627585
0.010616897
0.010605656
0.010593803
0.01058127
0.010567982
0.010553851
0.010538774
0.010522621
0.010505221
0.010486379
0.010465869
0.010443397
0.010418559
0.010390757
0.010359012
0.01032145
0.01027393
0.010221962
0.01017554
0.010135688
0.010101849
0.010073721
0.010051203
0.010034168
0.01002259
0.010017802
0.010014077
0.010040229
0.010020094
0.010062137
0.049541953
0.029033308
0.017477488
0.01586035
0.013659662
0.013135435
0.012439035
0.012104857
0.011814085
0.011614955
0.011459307
0.011342189
0.011248713
0.011174529
0.011113974
0.011064264
0.011022791
0.010987897
0.010958194
0.010932669
0.010910523
0.010891135
0.010874
0.010858714
0.010844947
0.010832432
0.010820946
0.010810301
0.010800343
0.01079094
0.010781978
0.010773363
0.010765015
0.010756865
0.010748852
0.010740925
0.010733038
0.010725147
0.010717214
0.010709203
0.010701078
0.010692805
0.010684354
0.010675689
0.010666779
0.01065759
0.010648085
0.010638227
0.010627975
0.010617282
0.010606102
0.01059438
0.010582059
0.010569072
0.010555346
0.010540795
0.010525321
0.010508798
0.010491068
0.010471944
0.010451214
0.010428606
0.010403754
0.010376144
0.010344987
0.010308893
0.010264943
0.0102144
0.010168932
0.010129961
0.01009692
0.010069497
0.010047558
0.01003095
0.010020081
0.010014549
0.010012703
0.010033283
0.010018586
0.010055486
0.045313007
0.02807134
0.017040275
0.01550976
0.01348403
0.012935512
0.012328176
0.011994871
0.011729598
0.011546833
0.011404521
0.011297162
0.01121168
0.011143789
0.011088439
0.011042991
0.011005083
0.010973164
0.010945966
0.010922551
0.010902182
0.010884282
0.010868387
0.010854121
0.010841181
0.010829318
0.010818327
0.010808039
0.01079831
0.010789021
0.010780072
0.010771377
0.010762867
0.010754482
0.010746172
0.010737891
0.010729603
0.010721272
0.010712867
0.010704358
0.010695715
0.01068691
0.010677916
0.010668703
0.010659243
0.010649505
0.010639456
0.010629059
0.010618277
0.010607066
0.010595379
0.010583164
0.010570363
0.010556913
0.010542741
0.010527764
0.010511885
0.010494986
0.010476918
0.010457504
0.010436543
0.010413785
0.010388896
0.010361425
0.01033072
0.01029575
0.0102546
0.010205866
0.010161563
0.010123654
0.010091568
0.010064979
0.010043702
0.010027665
0.010017346
0.010011536
0.010011183
0.010026894
0.01001695
0.010048918
0.041585202
0.027160983
0.016619918
0.015126133
0.013314827
0.012749106
0.012211211
0.011893692
0.011652303
0.011484956
0.011355219
0.01125711
0.011179192
0.011117265
0.011066837
0.011025413
0.010990855
0.010961718
0.010936845
0.010915368
0.010896608
0.010880031
0.010865213
0.010851806
0.010839531
0.01082816
0.010817507
0.010807417
0.010797764
0.01078844
0.010779359
0.010770447
0.010761645
0.010752904
0.010744182
0.010735444
0.010726661
0.010717807
0.010708854
0.010699781
0.010690563
0.010681178
0.0106716
0.010661805
0.010651767
0.010641458
0.010630846
0.010619898
0.010608576
0.010596839
0.01058464
0.010571928
0.010558647
0.010544733
0.010530115
0.010514713
0.010498431
0.010481157
0.010462753
0.010443048
0.010421857
0.010398946
0.010374011
0.01034665
0.010316307
0.010282174
0.010242974
0.010196482
0.010153541
0.010116864
0.010085878
0.010060241
0.010039723
0.010024356
0.010014483
0.010008756
0.010009548
0.010021284
0.010015391
0.010042626
0.03829159
0.026279797
0.01621836
0.01470967
0.013150088
0.012576932
0.012091351
0.011801294
0.01158221
0.011429397
0.01131149
0.011222134
0.01115135
0.011095059
0.011049258
0.011011608
0.010980171
0.010953605
0.010930852
0.010911116
0.010893772
0.010878329
0.010864398
0.010851661
0.010839863
0.0108288
0.010818302
0.010808234
0.010798485
0.010788963
0.010779595
0.01077032
0.010761092
0.010751872
0.010742627
0.010733334
0.010723969
0.010714514
0.010704951
0.01069526
0.010685423
0.010675421
0.010665233
0.010654835
0.010644204
0.010633313
0.010622134
0.010610633
0.010598772
0.010586512
0.010573806
0.010560604
0.010546849
0.01053248
0.010517426
0.010501607
0.010484932
0.010467294
0.010448561
0.010428575
0.010407162
0.010384106
0.010359129
0.010331871
0.010301846
0.010268376
0.010230446
0.010186396
0.010144993
0.0101097
0.010079946
0.010055365
0.010035706
0.010021076
0.010011596
0.01000619
0.010007811
0.010016566
0.010013954
0.010037355
0.0353735
0.025403888
0.015837305
0.014329455
0.012986755
0.012419562
0.011982134
0.011717633
0.011519335
0.011380226
0.011273425
0.011192336
0.011128255
0.011077262
0.011035782
0.011001637
0.010973068
0.010948835
0.010927974
0.010909752
0.010893599
0.010879065
0.010865797
0.01085351
0.010841973
0.010831005
0.010820459
0.010810217
0.010800185
0.010790291
0.010780476
0.010770692
0.010760905
0.010751089
0.01074122
0.010731283
0.010721262
0.010711147
0.010700923
0.010690577
0.010680093
0.010669455
0.010658644
0.010647638
0.010636414
0.010624947
0.010613208
0.010601164
0.010588777
0.010576008
0.01056281
0.010549134
0.010534923
0.010520115
0.010504642
0.010488424
0.010471375
0.010453389
0.010434345
0.010414094
0.010392475
0.010369289
0.010344285
0.010317139
0.010287426
0.010254571
0.010217766
0.010175777
0.010136062
0.010102285
0.010073877
0.010050441
0.010031736
0.01001788
0.010008778
0.010003822
0.010005939
0.010012601
0.010012611
0.010032812
0.032780609
0.024508405
0.015475867
0.013983306
0.012820458
0.01227657
0.011883358
0.011642696
0.01146373
0.011337535
0.011241129
0.011167823
0.011110006
0.011063957
0.011026477
0.010995539
0.010969553
0.010947377
0.010928134
0.010911156
0.010895926
0.010882037
0.010869173
0.010857081
0.010845558
0.010834449
0.01082363
0.010813005
0.010802499
0.010792057
0.010781636
0.010771204
0.010760739
0.010750224
0.010739647
0.010728998
0.010718269
0.010707454
0.010696541
0.010685522
0.010674383
0.010663109
0.010651681
0.010640078
0.010628277
0.010616252
0.010603974
0.01059141
0.010578521
0.010565267
0.010551603
0.010537478
0.010522835
0.010507614
0.010491746
0.010475156
0.010457756
0.010439449
0.010420118
0.010399626
0.010377824
0.01035453
0.01032952
0.010302503
0.010273108
0.010240844
0.010205053
0.01016481
0.010126903
0.010094751
0.010067777
0.010045565
0.01002789
0.010014827
0.010006115
0.010001657
0.010003929
0.010008778
0.010011334
0.010029067
0.03046933
0.023565656
0.015132911
0.013669507
0.012644978
0.012147527
0.01179485
0.011576464
0.011415453
0.011301409
0.011214702
0.011148686
0.011096697
0.01105521
0.011021366
0.010993293
0.010969554
0.010949106
0.010931158
0.010915103
0.01090048
0.010886927
0.010874166
0.010861981
0.010850201
0.010838698
0.010827373
0.010816153
0.010804985
0.010793829
0.010782661
0.010771463
0.010760222
0.010748932
0.010737589
0.010726187
0.010714724
0.010703194
0.010691591
0.010679905
0.010668125
0.010656235
0.010644215
0.010632042
0.010619694
0.010607144
0.010594361
0.010581311
0.010567955
0.010554251
0.010540153
0.010525612
0.010510571
0.010494969
0.01047874
0.010461807
0.01044409
0.010425492
0.010405906
0.010385203
0.010363247
0.010339875
0.010314885
0.010288023
0.010258962
0.010227281
0.01019243
0.010153694
0.010117682
0.010087232
0.010061758
0.010040829
0.010024241
0.01001198
0.010003689
0.0099997102
0.010001887
0.010005448
0.010009957
0.010025875
0.028402359
0.022545561
0.014806588
0.013387339
0.012481349
0.012032029
0.011716483
0.011518932
0.011374575
0.01127193
0.011194259
0.011135024
0.011088378
0.011051017
0.011020388
0.010994773
0.010972882
0.010953768
0.010936726
0.010921216
0.010906833
0.010893264
0.010880275
0.010867687
0.010855365
0.010843211
0.010831153
0.010819141
0.010807143
0.010795137
0.010783111
0.010771061
0.010758983
0.010746876
0.010734742
0.01072258
0.010710387
0.010698159
0.01068589
0.010673569
0.010661184
0.010648718
0.010636148
0.01062345
0.0106106
0.01059757
0.010584326
0.010570834
0.010557053
0.010542942
0.010528453
0.010513536
0.010498136
0.010482193
0.010465639
0.010448404
0.010430406
0.010411556
0.010391751
0.010370874
0.010348799
0.010325381
0.010300443
0.010273763
0.01024506
0.01021397
0.010180023
0.010142632
0.010108564
0.010079861
0.010055926
0.010036322
0.010020849
0.010009392
0.010001578
0.0099980207
0.0099998508
0.010002492
0.010008317
0.010022979
0.026548363
0.021416026
0.014493785
0.013135073
0.012334986
0.011929734
0.011648193
0.011470099
0.011341158
0.011249212
0.01117988
0.011126857
0.011085004
0.011051257
0.011023341
0.010999695
0.01097917
0.010960921
0.010944331
0.010928931
0.010914376
0.01090041
0.010886844
0.01087354
0.010860401
0.010847358
0.010834369
0.010821405
0.01080845
0.0107955
0.010782552
0.01076961
0.010756677
0.010743756
0.010730849
0.010717954
0.01070507
0.010692191
0.010679306
0.010666404
0.010653471
0.010640486
0.010627424
0.010614259
0.010600964
0.010587508
0.010573857
0.010559974
0.01054582
0.01053135
0.010516517
0.01050127
0.010485557
0.010469315
0.010452482
0.010434986
0.010416751
0.010397691
0.010377711
0.0103567
0.010334547
0.01031112
0.010286266
0.010259796
0.010231475
0.010200995
0.010167951
0.010131823
0.010099715
0.010072766
0.010050379
0.010032118
0.010017763
0.010007101
0.0099998241
0.0099966411
0.0099979524
0.0099998515
0.01000654
0.010020322
0.024882071
0.020144258
0.014188545
0.012910966
0.012205185
0.011840393
0.01158998
0.011429986
0.011315326
0.011233307
0.011171554
0.011124083
0.011086375
0.011055625
0.011029814
0.011007545
0.010987814
0.010969884
0.010953229
0.010937462
0.010922303
0.010907554
0.010893074
0.010878769
0.010864577
0.010850459
0.010836395
0.010822377
0.010808401
0.010794473
0.010780597
0.01076678
0.010753026
0.010739337
0.010725714
0.010712153
0.010698648
0.01068519
0.010671766
0.010658358
0.01064495
0.010631518
0.010618033
0.010604467
0.010590792
0.010576973
0.010562975
0.01054876
0.010534287
0.010519511
0.010504386
0.010488861
0.010472882
0.010456391
0.010439326
0.010421618
0.010403193
0.010383971
0.010363861
0.010342764
0.010320576
0.010297181
0.010272445
0.010246211
0.010218288
0.010188432
0.010156313
0.010121462
0.01009129
0.010066064
0.010045204
0.010028275
0.010015017
0.010005136
0.0099984335
0.0099955769
0.0099963349
0.0099977319
0.010004906
0.010017736
0.023384824
0.018910886
0.013879699
0.012713662
0.012091338
0.011763594
0.011541643
0.011398679
0.011297133
0.011224163
0.01116911
0.01112639
0.011092036
0.011063523
0.011039082
0.011017493
0.010997897
0.010979683
0.01096242
0.010945804
0.010929626
0.010913745
0.010898071
0.010882547
0.010867143
0.010851844
0.010836646
0.010821552
0.010806567
0.010791699
0.010776953
0.010762333
0.010747841
0.010733476
0.010719231
0.010705101
0.010691072
0.010677131
0.010663259
0.010649435
0.010635638
0.01062184
0.01060801
0.010594118
0.010580132
0.010566017
0.010551736
0.01053725
0.010522516
0.010507492
0.010492128
0.010476377
0.010460186
0.010443497
0.01042625
0.01040838
0.010389817
0.010370484
0.010350297
0.010329164
0.01030699
0.010283671
0.010259089
0.010233114
0.010205592
0.010176344
0.010145151
0.010111724
0.010083433
0.010059867
0.010040473
0.010024829
0.010012623
0.010003507
0.0099973739
0.0099947602
0.009995038
0.0099962011
0.010003277
0.010015083
0.022039704
0.017864345
0.013568
0.012542349
0.011993289
0.011699017
0.011503201
0.011376274
0.011286494
0.01122148
0.01117205
0.011133081
0.011101116
0.011073928
0.011050004
0.011028319
0.011008165
0.010989058
0.010970669
0.010952779
0.010935246
0.010917983
0.01090094
0.010884092
0.010867428
0.010850948
0.010834656
0.010818557
0.010802655
0.010786955
0.010771456
0.010756158
0.010741054
0.010726137
0.010711395
0.010696813
0.010682374
0.010668057
0.01065384
0.010639697
0.010625604
0.010611527
0.010597433
0.01058329
0.010569066
0.010554724
0.010540224
0.010525528
0.010510594
0.010495378
0.010479833
0.01046391
0.010447559
0.010430725
0.01041335
0.010395372
0.010376724
0.010357334
0.010337125
0.01031601
0.010293904
0.010270712
0.010246328
0.010220638
0.010193513
0.010164808
0.010134363
0.010102758
0.010076267
0.010054272
0.010036252
0.010021802
0.010010576
0.010002195
0.0099965907
0.009994124
0.0099940631
0.0099951606
0.010001498
0.010012201
0.020825944
0.016974101
0.01329158
0.012392876
0.011909305
0.011646317
0.011474671
0.011362278
0.01128275
0.011224376
0.011179282
0.011142872
0.011112177
0.011085296
0.01106099
0.011038428
0.011017063
0.010996537
0.010976618
0.010957165
0.010938091
0.010919347
0.010900911
0.010882774
0.010864933
0.010847388
0.010830142
0.010813192
0.010796536
0.01078017
0.010764084
0.010748267
0.010732707
0.010717385
0.010702284
0.010687381
0.010672654
0.010658076
0.010643619
0.010629257
0.010614959
0.010600689
0.010586411
0.010572095
0.010557704
0.010543201
0.010528548
0.010513705
0.010498629
0.010483279
0.010467608
0.010451569
0.010435114
0.010418189
0.010400739
0.010382707
0.010364029
0.010344639
0.010324463
0.010303425
0.010281445
0.010258437
0.010234307
0.010208951
0.010182256
0.010154095
0.010124328
0.010094681
0.010069892
0.010049366
0.010032612
0.010019239
0.010008884
0.010001179
0.0099960635
0.0099937036
0.0099932727
0.0099939803
0.0099994411
0.010008732
0.019724685
0.016193578
0.013046848
0.012259669
0.011838071
0.011605768
0.011455542
0.011355881
0.011284732
0.011231362
0.011189063
0.011153835
0.011123193
0.011095596
0.011070063
0.011045961
0.011022895
0.011000617
0.010978976
0.010957882
0.010937284
0.01091715
0.010897466
0.010878221
0.010859407
0.010841016
0.010823036
0.010805455
0.010788259
0.01077143
0.010754949
0.010738795
0.010722945
0.010707374
0.010692056
0.010676965
0.010662071
0.010647343
0.010632752
0.010618267
0.010603853
0.010589471
0.010575087
0.01056067
0.010546181
0.010531584
0.01051684
0.010501909
0.010486751
0.010471324
0.010455583
0.010439483
0.010422978
0.010406016
0.010388547
0.010370516
0.010351863
0.010332528
0.010312444
0.01029154
0.010269744
0.01024698
0.010223163
0.010198202
0.010171997
0.010144438
0.010115406
0.010087581
0.010064373
0.01004521
0.010029618
0.010017211
0.010007616
0.010000497
0.0099958026
0.0099935167
0.0099927583
0.0099931066
0.0099975998
0.010004869
0.018724584
0.015493303
0.012833454
0.012144851
0.011780869
0.011576473
0.011444524
0.01135527
0.011290251
0.011239955
0.01119876
0.011163312
0.011131609
0.011102447
0.011075087
0.011049069
0.011024114
0.011000051
0.010976772
0.010954211
0.010932322
0.010911072
0.010890433
0.010870381
0.010850891
0.010831939
0.010813497
0.010795539
0.010778037
0.010760962
0.010744284
0.010727974
0.010711999
0.010696329
0.010680933
0.010665778
0.010650831
0.010636059
0.01062143
0.010606911
0.010592463
0.010578046
0.01056363
0.01054918
0.01053466
0.010520031
0.010505257
0.010490298
0.010475114
0.010459666
0.01044391
0.010427804
0.010411302
0.010394359
0.010376925
0.010358948
0.010340376
0.010321152
0.010301215
0.0102805
0.010258945
0.010236479
0.01021303
0.010188516
0.010162853
0.010135946
0.010107692
0.010081513
0.010059737
0.01004181
0.010027272
0.010015733
0.010006818
0.010000226
0.0099958877
0.0099936512
0.0099927154
0.0099929886
0.0099967211
0.010002549
0.017818642
0.014846524
0.012649256
0.012049404
0.011735795
0.011555889
0.0114387
0.011357097
0.011295785
0.011246609
0.011204978
0.011168185
0.011134671
0.011103516
0.011074166
0.011046275
0.011019628
0.010994079
0.01096953
0.010945902
0.010923135
0.010901174
0.010879971
0.010859479
0.010839653
0.010820451
0.010801832
0.010783754
0.010766178
0.010749065
0.010732378
0.010716079
0.010700132
0.010684502
0.010669152
0.010654047
0.010639151
0.01062443
0.010609852
0.010595379
0.010580972
0.010566594
0.010552214
0.010537797
0.010523307
0.010508708
0.010493962
0.010479032
0.010463879
0.010448464
0.010432749
0.010416691
0.010400248
0.010383376
0.01036603
0.010348164
0.010329726
0.010310666
0.010290928
0.010270456
0.010249192
0.010227074
0.01020404
0.010180019
0.010154937
0.010128715
0.010101267
0.01007652
0.01005599
0.010039139
0.010025518
0.010014735
0.010006419
0.010000295
0.0099962593
0.009994061
0.0099930373
0.0099933076
0.0099964087
0.010001007
0.01700685
0.014292238
0.012492888
0.011970495
0.011699801
0.011539992
0.011433583
0.011356687
0.011296787
0.011247132
0.011204046
0.011165393
0.01112995
0.011096975
0.011066008
0.011036744
0.01100897
0.010982526
0.010957287
0.010933148
0.01091002
0.010887823
0.010866483
0.010845935
0.010826116
0.01080697
0.010788443
0.010770485
0.010753047
0.010736086
0.010719558
0.010703421
0.010687637
0.010672167
0.010656974
0.010642019
0.010627266
0.010612683
0.010598235
0.010583883
0.010569586
0.010555314
0.010541036
0.010526715
0.010512316
0.010497804
0.010483144
0.010468298
0.010453232
0.010437907
0.010422285
0.010406329
0.010389998
0.010373251
0.010356047
0.010338341
0.010320089
0.010301244
0.010281755
0.010261572
0.010240644
0.010218917
0.010196335
0.010172838
0.010148363
0.010122843
0.010096207
0.010072648
0.010053148
0.010037187
0.010024321
0.010014156
0.010006336
0.010000604
0.0099968107
0.009994653
0.0099936146
0.0099938986
0.0099964664
0.010000061
0.016296282
0.013840397
0.012362584
0.011903942
0.011667363
0.011522676
0.011423219
0.011348633
0.011288727
0.011237984
0.011193423
0.0111533
0.011116581
0.011082582
0.011050845
0.011021041
0.010992923
0.0109663
0.010941014
0.010916933
0.010893942
0.010871942
0.010850845
0.010830569
0.010811043
0.0107922
0.010773981
0.01075633
0.010739196
0.010722531
0.01070629
0.01069043
0.010674911
0.010659695
0.010644742
0.010630016
0.010615481
0.010601106
0.010586853
0.010572681
0.010558557
0.010544451
0.01053033
0.01051616
0.010501907
0.010487537
0.010473016
0.01045831
0.010443383
0.010428201
0.010412726
0.010396924
0.010380757
0.010364186
0.010347173
0.010329678
0.010311659
0.010293074
0.010273878
0.010254025
0.010233469
0.010212164
0.010190061
0.010167108
0.010143249
0.010118428
0.010092583
0.010069936
0.010051227
0.010035943
0.010023647
0.010013948
0.010006501
0.010001059
0.0099974341
0.0099953047
0.0099942837
0.0099945706
0.0099966919
0.0099994998
0.015608262
0.013443456
0.01224303
0.011836677
0.01162643
0.011493591
0.01139939
0.011326811
0.011267371
0.011216443
0.01117144
0.011130902
0.01109404
0.011060128
0.011028655
0.010999245
0.01097161
0.010945526
0.010920811
0.010897317
0.01087492
0.010853515
0.010833006
0.010813306
0.010794338
0.010776033
0.010758329
0.010741171
0.010724505
0.010708285
0.010692467
0.010677008
0.010661869
0.010647012
0.010632399
0.010617996
0.010603769
0.010589686
0.010575707
0.010561795
0.01054792
0.010534055
0.010520165
0.01050622
0.010492184
0.010478027
0.010463715
0.010449216
0.010434495
0.010419521
0.010404258
0.010388673
0.01037273
0.010356395
0.010339631
0.0103224
0.010304665
0.010286387
0.010267526
0.010248039
0.010227887
0.010207029
0.010185421
0.010163021
0.010139782
0.010115656
0.010090594
0.010068533
0.01005033
0.010035477
0.010023537
0.01001412
0.010006896
0.010001615
0.0099980551
0.0099959041
0.0099948898
0.0099951868
0.0099969926
0.0099992785
0.014469768
0.012819151
0.011983763
0.011678223
0.011511174
0.011402122
0.011322774
0.011260479
0.011208895
0.011164497
0.011125245
0.011089782
0.011057097
0.011026672
0.010998137
0.010971213
0.010945688
0.010921394
0.010898193
0.01087597
0.010854628
0.010834152
0.010814522
0.01079565
0.010777459
0.01075988
0.010742854
0.010726326
0.010710248
0.010694576
0.010679267
0.010664283
0.010649587
0.010635145
0.010620921
0.010606885
0.010593009
0.010579257
0.010565592
0.010551982
0.010538402
0.010524819
0.010511205
0.010497526
0.010483753
0.010469854
0.010455797
0.010441551
0.010427085
0.010412366
0.010397363
0.010382042
0.010366371
0.010350315
0.010333841
0.010316914
0.010299497
0.010281555
0.010263049
0.010243942
0.010224195
0.010203773
0.010182635
0.010160742
0.010138054
0.010114528
0.010090121
0.010068346
0.010050386
0.010035731
0.010023938
0.010014622
0.010007457
0.010002181
0.0099985475
0.0099962823
0.0099951978
0.0099953422
0.0099966379
0.0099983735
0.014025752
0.012611482
0.011851988
0.011576409
0.011426622
0.011329014
0.011257648
0.011201286
0.011154198
0.011113309
0.011076849
0.011043746
0.011013312
0.010985084
0.010958727
0.010933983
0.010910646
0.01088855
0.010867552
0.01084753
0.010828377
0.01080994
0.010792086
0.010774769
0.010757948
0.010741581
0.010725632
0.010710065
0.010694848
0.010679947
0.010665334
0.010650978
0.010636852
0.010622926
0.010609174
0.010595571
0.01058212
0.010568784
0.010555525
0.010542317
0.010529131
0.010515936
0.010502701
0.010489398
0.010475994
0.01046246
0.010448766
0.010434882
0.010420777
0.01040642
0.010391781
0.010376827
0.010361528
0.010345851
0.010329762
0.010313229
0.010296218
0.010278693
0.010260618
0.010241956
0.010222672
0.01020273
0.010182093
0.010160722
0.01013858
0.010115626
0.010091818
0.010069766
0.010051599
0.010036789
0.010024874
0.010015458
0.010008205
0.010002832
0.0099990798
0.0099967034
0.0099955384
0.0099955158
0.0099964643
0.0099979935
0.013604337
0.012401417
0.01168423
0.01144387
0.011314983
0.011233281
0.011173714
0.011126677
0.011087086
0.011052389
0.011021135
0.01099248
0.010965884
0.010940985
0.010917519
0.010895289
0.010874142
0.010853952
0.01083462
0.010816061
0.010798201
0.010780978
0.010764336
0.01074823
0.010732618
0.010717459
0.010702715
0.010688348
0.010674324
0.010660609
0.01064717
0.010633976
0.010620994
0.010608195
0.010595551
0.010583034
0.010570581
0.010558162
0.010545757
0.010533346
0.010520906
0.010508412
0.01049584
0.010483165
0.010470361
0.010457402
0.010444262
0.010430914
0.01041733
0.010403484
0.010389345
0.010374886
0.010360078
0.010344889
0.010329289
0.010313247
0.01029673
0.010279706
0.010262139
0.010243994
0.010225237
0.010205833
0.010185747
0.010164942
0.01014338
0.010121023
0.010097831
0.010074872
0.010055933
0.010040461
0.010027978
0.010018072
0.010010393
0.010004636
0.010000534
0.0099978546
0.0099964196
0.009996082
0.0099966656
0.0099979854
55.980989
101.60428
59.900523
40.247385
27.773629
19.340991
13.654473
9.7695315
7.0528256
5.1105742
3.7000599
2.6769667
1.9282122
1.3862614
0.9874347
0.69975457
0.49116779
0.34266396
0.23819518
0.1651503
0.11450424
0.079757108
0.056199491
0.04042702
0.030011075
0.0232232
0.018863322
0.016097918
0.0143637
0.013285791
0.01261854
0.01220401
0.011942693
0.011773119
0.011658088
0.011575538
0.011512627
0.011461984
0.011419404
0.011382533
0.011349935
0.011320728
0.011294401
0.011270461
0.011248553
0.011228352
0.011209327
0.011189382
0.011160379
0.011119002
0.011068188
0.011012924
0.010957263
0.010903293
0.010852686
0.010807467
0.010768715
0.010735165
0.01070468
0.010676773
0.010647172
0.010617777
0.010580282