/*--------------------------------*- C++ -*----------------------------------*\
  =========                 |
  \\      /  F ield         | OpenFOAM: The Open Source CFD Toolbox
   \\    /   O peration     | Website:  https://openfoam.org
    \\  /    A nd           | Version:  6
     \\/     M anipulation  |
\*---------------------------------------------------------------------------*/
FoamFile
{
    version     2.0;
    format      ascii;
    class       volScalarField;
    location    "500";
    object      nut;
}
// * * * * * * * * * * * * * * * * * * * * * * * * * * * * * * * * * * * * * //

dimensions      [0 2 -1 0 0 0 0];

internalField   nonuniform List<scalar> 
16000
(
4.8801116e-06
2.1078069e-05
2.3468667e-05
3.2931859e-05
2.8179115e-05
3.6098345e-05
3.5214777e-05
3.9738615e-05
4.0648874e-05
4.0835019e-05
4.1324505e-05
4.0063433e-05
4.0151158e-05
3.9111e-05
3.9106658e-05
3.8635401e-05
3.8804527e-05
3.8850502e-05
3.9265894e-05
3.9722069e-05
4.0426097e-05
4.1251839e-05
4.2286062e-05
4.3491343e-05
4.4912424e-05
4.6552686e-05
4.8448274e-05
5.0625811e-05
5.3128829e-05
5.6004945e-05
5.9316325e-05
6.3137712e-05
6.7561787e-05
7.2701511e-05
7.8695405e-05
8.5713769e-05
9.3966159e-05
0.00010371098
0.00011526648
0.00012902317
0.00014546134
0.00016517439
0.00018889272
0.00021751412
0.00025214127
0.00029412601
0.00034511776
0.00040712001
0.00048255048
0.00057430197
0.00068579895
0.00082105677
0.00098478556
0.0010400842
0.0010411244
0.0010412925
0.0010408466
0.0010400681
0.0010391251
0.0010380002
0.0010366172
0.0010349387
0.0010329443
0.0010305653
0.0010277748
0.001024655
0.001021424
0.0010183784
0.0010156358
0.0010132751
0.0010111272
0.0010094559
0.0010077208
0.0010067043
0.001005314
0.0010058504
0.0010046178
0.0010087229
0.0010039443
0.0010076404
4.0768661e-06
2.0849003e-05
2.1493382e-05
3.0103576e-05
2.5994242e-05
3.256037e-05
3.2410644e-05
3.557099e-05
3.7127848e-05
3.6476153e-05
3.7352338e-05
3.5746333e-05
3.5994831e-05
3.4839246e-05
3.4915418e-05
3.4437217e-05
3.461324e-05
3.4636364e-05
3.5013757e-05
3.5415995e-05
3.6045354e-05
3.678101e-05
3.7703395e-05
3.8777933e-05
4.0044338e-05
4.1505728e-05
4.3193716e-05
4.5132101e-05
4.7359051e-05
4.9916675e-05
5.2859468e-05
5.6253047e-05
6.0178941e-05
6.4736461e-05
7.0047877e-05
7.6262997e-05
8.3565379e-05
9.2180481e-05
0.00010238623
0.0001145248
0.00012901501
0.00014637297
0.00016723348
0.00019237582
0.00022275528
0.00025954227
0.00030416486
0.00035835896
0.00042422486
0.00050428695
0.00060155683
0.00071959638
0.00086261142
0.0010355631
0.0010399975
0.0010403039
0.0010399171
0.0010391516
0.0010382243
0.0010371843
0.0010359857
0.0010344681
0.0010326259
0.0010303833
0.001027697
0.0010246225
0.0010213852
0.0010182972
0.001015534
0.0010131299
0.0010109911
0.0010092492
0.0010076096
0.0010065782
0.0010051946
0.0010053737
0.0010042844
0.0010079815
0.0010037492
0.0010074607
3.4885836e-06
2.0620601e-05
1.9910721e-05
2.7680578e-05
2.4251442e-05
2.9533202e-05
3.0276199e-05
3.1867466e-05
3.4115343e-05
3.2462844e-05
3.3698015e-05
3.1729691e-05
3.2120478e-05
3.093317e-05
3.1076054e-05
3.0609291e-05
3.0792242e-05
3.0808625e-05
3.1157133e-05
3.1522476e-05
3.2093157e-05
3.2759384e-05
3.3592481e-05
3.456282e-05
3.5704614e-05
3.7021804e-05
3.8541936e-05
4.0286876e-05
4.2290436e-05
4.4590435e-05
4.7235405e-05
5.028403e-05
5.3808936e-05
5.7898475e-05
6.2661565e-05
6.8231795e-05
7.4773132e-05
8.2486297e-05
9.1617222e-05
0.00010246884
0.0001154128
0.00013090564
0.00014950717
0.00017190403
0.0001989365
0.00023163232
0.00027124451
0.00031929537
0.0003776279
0.00044846175
0.00053445513
0.00063877023
0.00076515425
0.00091806076
0.0010388646
0.0010393241
0.001039004
0.0010382475
0.0010373157
0.0010362809
0.0010351221
0.0010337892
0.0010321305
0.0010300548
0.0010275032
0.0010245031
0.0010212768
0.0010181624
0.0010153809
0.0010129533
0.0010108203
0.0010090439
0.0010074514
0.0010064142
0.0010050798
0.0010050314
0.0010040476
0.0010073079
0.0010035278
0.0010068433
3.1017734e-06
2.0322791e-05
1.8561907e-05
2.5410786e-05
2.2615516e-05
2.6762924e-05
2.8211656e-05
2.8541341e-05
3.1193866e-05
2.8865595e-05
3.0256106e-05
2.813147e-05
2.8592644e-05
2.7459563e-05
2.7622267e-05
2.7197517e-05
2.7373278e-05
2.7397153e-05
2.7717546e-05
2.8056859e-05
2.8577242e-05
2.9186651e-05
2.9944217e-05
3.0826984e-05
3.1863386e-05
3.3058716e-05
3.4436885e-05
3.6018372e-05
3.7833413e-05
3.9916384e-05
4.2310952e-05
4.5070147e-05
4.8259471e-05
5.1958776e-05
5.6266151e-05
6.1301869e-05
6.721369e-05
7.4183118e-05
8.2432381e-05
9.2233141e-05
0.00010391882
0.00011790039
0.00013468031
0.00015487351
0.00017923236
0.00020867629
0.00024432538
0.00028754029
0.00033996931
0.00040360058
0.00048082225
0.00057448821
0.00068799422
0.00082538527
0.00099149129
0.0010383467
0.0010381045
0.0010373578
0.0010364166
0.0010353765
0.0010342223
0.0010329249
0.0010314244
0.0010295511
0.0010271706
0.0010242782
0.0010210867
0.0010179614
0.0010151714
0.001012734
0.0010106069
0.0010088132
0.0010072589
0.0010061537
0.001004957
0.0010047896
0.0010038401
0.0010065674
0.0010033266
0.0010064046
2.7812828e-06
1.9921917e-05
1.7457422e-05
2.3307186e-05
2.1113899e-05
2.4231499e-05
2.6273776e-05
2.5522728e-05
2.8386412e-05
2.5589069e-05
2.7005192e-05
2.4906616e-05
2.5367765e-05
2.4333575e-05
2.4490716e-05
2.4124073e-05
2.4287286e-05
2.4326607e-05
2.4622285e-05
2.4943207e-05
2.5421385e-05
2.5983973e-05
2.6677843e-05
2.7486696e-05
2.843366e-05
2.952541e-05
3.078279e-05
3.2225134e-05
3.3879745e-05
3.577816e-05
3.7960021e-05
4.0473681e-05
4.33788e-05
4.6748085e-05
5.0670852e-05
5.5256752e-05
6.0640176e-05
6.6986076e-05
7.4497529e-05
8.3422698e-05
9.4063455e-05
0.00010679323
0.00012206958
0.00014045073
0.00016261897
0.00018940883
0.00022183596
0.00026113454
0.0003088008
0.00036664166
0.00043683303
0.00052198439
0.00062521464
0.00075024705
0.00090154425
0.0010373638
0.0010372146
0.00103648
0.0010355264
0.0010344764
0.0010333178
0.0010320275
0.0010305674
0.0010288593
0.00102669
0.0010239427
0.0010208129
0.0010176926
0.0010149049
0.0010124705
0.0010103554
0.0010085595
0.0010070363
0.0010058911
0.0010048061
0.0010045316
0.0010036572
0.0010058746
0.0010031539
0.0010057831
2.5120366e-06
1.8023335e-05
1.6508047e-05
2.1325136e-05
1.9739121e-05
2.1888596e-05
2.4436516e-05
2.2764014e-05
2.5687136e-05
2.2643571e-05
2.3978773e-05
2.2030543e-05
2.2445502e-05
2.1537366e-05
2.1673993e-05
2.1373219e-05
2.1522199e-05
2.1581006e-05
2.1856029e-05
2.2164052e-05
2.2607547e-05
2.313186e-05
2.3772778e-05
2.451995e-05
2.5392069e-05
2.6396959e-05
2.7552993e-05
2.8878548e-05
3.0398568e-05
3.2142263e-05
3.4145992e-05
3.6454271e-05
3.9121997e-05
4.221608e-05
4.5818702e-05
5.0030747e-05
5.4976079e-05
6.0806428e-05
6.7708421e-05
7.5911715e-05
8.5693958e-05
9.7397978e-05
0.00011144471
0.00012834819
0.00014873447
0.00017337053
0.00020318938
0.00023932445
0.00028315117
0.00033633167
0.0004008713
0.00047918142
0.00057415386
0.00068925048
0.00082862811
0.0009972766
0.0010363294
0.0010356118
0.0010346433
0.0010335806
0.0010324134
0.0010311215
0.0010296747
0.001028021
0.0010260522
0.0010234924
0.0010204549
0.0010173564
0.0010145828
0.0010121632
0.0010100662
0.0010082808
0.0010067856
0.0010056199
0.0010046245
0.0010042546
0.0010034847
0.0010052885
0.0010029861
0.0010053171
2.269504e-06
1.6269304e-05
1.5485455e-05
1.9447769e-05
1.8492417e-05
1.9723864e-05
2.2689964e-05
2.0242802e-05
2.310376e-05
2.0036231e-05
2.1216978e-05
1.9471711e-05
1.9813266e-05
1.9040633e-05
1.9149218e-05
1.891388e-05
1.9048765e-05
1.912711e-05
1.9384943e-05
1.9683079e-05
2.0097795e-05
2.0590111e-05
2.1186631e-05
2.188182e-05
2.2690891e-05
2.3622465e-05
2.4692992e-05
2.592e-05
2.7326511e-05
2.8939829e-05
3.0793606e-05
3.292915e-05
3.5397489e-05
3.8260742e-05
4.1595221e-05
4.5494711e-05
5.0074358e-05
5.5475263e-05
6.1870779e-05
6.9475117e-05
7.8546529e-05
8.9403556e-05
0.00010243719
0.00011812599
0.00013705112
0.00015992502
0.00018761493
0.00022117348
0.00026187954
0.00031127929
0.00037124075
0.00044401503
0.00053230878
0.00063937188
0.00076911078
0.00092623164
0.0010354435
0.0010347503
0.0010337652
0.0010326875
0.001031509
0.0010302115
0.0010287687
0.0010271398
0.001025249
0.0010229216
0.0010200122
0.001016953
0.001014206
0.0010118124
0.0010097414
0.0010079769
0.0010065089
0.0010053413
0.0010044132
0.0010039568
0.001003312
0.0010047508
0.0010028214
0.0010048328
2.0490675e-06
1.578827e-05
1.4397071e-05
1.7677842e-05
1.7350087e-05
1.771695e-05
2.0985477e-05
1.7991884e-05
2.0615614e-05
1.7719755e-05
1.8703059e-05
1.7189819e-05
1.7447223e-05
1.6809225e-05
1.6889482e-05
1.6715656e-05
1.6839162e-05
1.6936093e-05
1.7180805e-05
1.7471574e-05
1.7863175e-05
1.8329169e-05
1.8889092e-05
1.9541048e-05
2.0297609e-05
2.1167981e-05
2.2167089e-05
2.3311709e-05
2.4623339e-05
2.6127686e-05
2.785625e-05
2.9847633e-05
3.2149737e-05
3.4820769e-05
3.7932225e-05
4.1572124e-05
4.5848542e-05
5.0893926e-05
5.6870886e-05
6.3981255e-05
7.2467251e-05
8.2628112e-05
9.4831004e-05
0.00010952528
0.00012725629
0.00014869239
0.00017464798
0.00020611062
0.00024428132
0.00029061251
0.00034686086
0.00041514665
0.00049802446
0.00059856898
0.00072048097
0.00086822772
0.0010345503
0.0010338931
0.0010328903
0.0010317959
0.0010306043
0.0010292985
0.0010278553
0.0010262408
0.0010243995
0.0010222258
0.0010194868
0.0010164852
0.0010137772
0.0010114206
0.001009384
0.0010076497
0.0010062099
0.0010050545
0.0010041779
0.0010036477
0.0010031326
0.0010042314
0.0010026444
0.0010043916
1.8598032e-06
1.5260079e-05
1.3409512e-05
1.6005867e-05
1.6284255e-05
1.5832391e-05
1.9273785e-05
1.5974475e-05
1.8249885e-05
1.5645756e-05
1.6417807e-05
1.5145081e-05
1.5321207e-05
1.4809978e-05
1.4866824e-05
1.4748849e-05
1.4865301e-05
1.4979478e-05
1.5215326e-05
1.5500989e-05
1.5874631e-05
1.6319392e-05
1.6849581e-05
1.7466e-05
1.8179288e-05
1.899895e-05
1.9938834e-05
2.1015e-05
2.2247753e-05
2.3661494e-05
2.5285963e-05
2.7157547e-05
2.9321587e-05
3.1833117e-05
3.4759741e-05
3.8184733e-05
4.2210501e-05
4.6962591e-05
5.2594474e-05
5.9298609e-05
6.7304145e-05
7.6894636e-05
8.8417779e-05
0.00010230009
0.00011905758
0.00013932325
0.00016386898
0.00019362974
0.00022974393
0.00027358831
0.00032682927
0.00039148064
0.00046997265
0.00056523582
0.00068080342
0.00082094551
0.00099081412
0.0010330378
0.0010320166
0.0010309045
0.0010296985
0.0010283828
0.0010269365
0.0010253302
0.0010235189
0.001021424
0.001018881
0.0010159567
0.0010133
0.0010109909
0.0010089976
0.0010073014
0.0010058932
0.0010047613
0.0010039243
0.0010033531
0.0010029454
0.0010037364
0.0010024642
0.0010039472
1.6950632e-06
1.4673398e-05
1.2479166e-05
1.4404304e-05
1.5280255e-05
1.4127083e-05
1.7534858e-05
1.4157312e-05
1.6044084e-05
1.3782825e-05
1.4352181e-05
1.3310578e-05
1.3416539e-05
1.3019004e-05
1.305967e-05
1.2990762e-05
1.3104724e-05
1.3234621e-05
1.3465464e-05
1.3748021e-05
1.4108316e-05
1.4536394e-05
1.5042963e-05
1.5630669e-05
1.6308851e-05
1.7087112e-05
1.7978502e-05
1.899847e-05
2.0166364e-05
2.150555e-05
2.3044352e-05
2.4817323e-05
2.6867757e-05
2.924814e-05
3.2022937e-05
3.5271567e-05
3.9091968e-05
4.3604259e-05
4.8954e-05
5.5327111e-05
6.2941863e-05
7.2069073e-05
8.3040652e-05
9.6265837e-05
0.00011223632
0.00013155671
0.00015496509
0.00018335386
0.00021781139
0.00025965337
0.00031047329
0.0003721987
0.00044715849
0.00053816499
0.00064861443
0.00078261464
0.00094513138
0.0010321822
0.0010311428
0.0010300124
0.0010287913
0.0010274649
0.0010260141
0.0010244129
0.001022624
0.0010205888
0.0010181989
0.001015373
0.0010127793
0.0010105279
0.0010085864
0.0010069358
0.0010055638
0.0010044636
0.0010036577
0.0010030722
0.0010027512
0.0010032748
0.0010022808
0.0010035131
1.551828e-06
1.3998277e-05
1.1613664e-05
1.28648e-05
1.4316314e-05
1.2582027e-05
1.575993e-05
1.2516873e-05
1.4009728e-05
1.2107437e-05
1.2496447e-05
1.16647e-05
1.1715609e-05
1.1416256e-05
1.1448515e-05
1.1421773e-05
1.1537436e-05
1.168161e-05
1.1861288e-05
1.2134584e-05
1.2479535e-05
1.2890105e-05
1.3374012e-05
1.3934691e-05
1.4580274e-05
1.5320136e-05
1.6166518e-05
1.7134152e-05
1.8241423e-05
1.9510703e-05
2.0969038e-05
2.2649191e-05
2.4592631e-05
2.6849524e-05
2.9481528e-05
3.256462e-05
3.6192748e-05
4.0481679e-05
4.5873099e-05
5.197964e-05
5.9280368e-05
6.8036023e-05
7.8565608e-05
9.1265593e-05
0.0001066078
0.00012517396
0.00014767598
0.0001749717
0.00020811011
0.00024835808
0.0002972508
0.00035664651
0.00042879248
0.00051640554
0.00062277056
0.00075186353
0.00090849724
0.0010313245
0.0010302678
0.001029119
0.0010278827
0.0010265454
0.0010250894
0.0010234916
0.0010217201
0.0010197287
0.0010174445
0.001014741
0.0010122213
0.0010100369
0.0010081555
0.0010065571
0.001005227
0.0010041643
0.0010033841
0.0010028051
0.001002552
0.0010028597
0.0010021059
0.0010030996
1.4270185e-06
1.3220889e-05
1.0802941e-05
1.1380216e-05
1.3356755e-05
1.1178323e-05
1.3970466e-05
1.1030577e-05
1.2151982e-05
1.0597995e-05
1.0837401e-05
1.0188339e-05
1.0200864e-05
9.9842598e-06
9.9684346e-06
9.9602173e-06
1.0071245e-05
1.0223182e-05
1.0449125e-05
1.0728861e-05
1.1072391e-05
1.1477256e-05
1.1949975e-05
1.2494995e-05
1.3119983e-05
1.3834378e-05
1.465003e-05
1.5581289e-05
1.6645935e-05
1.7865716e-05
1.9266924e-05
2.0880946e-05
2.2748048e-05
2.4916818e-05
2.7446936e-05
3.041189e-05
3.3902699e-05
3.8032966e-05
4.2938685e-05
4.8788511e-05
5.5788899e-05
6.419209e-05
7.4882762e-05
8.7171337e-05
0.00010202206
0.00011999808
0.00014179203
0.00016823352
0.00020034136
0.00023934407
0.00028673075
0.000344305
0.00041424942
0.00049920497
0.000602368
0.00072760955
0.00087962036
0.001030463
0.0010293911
0.0010282243
0.0010269732
0.0010256251
0.0010241642
0.0010225694
0.0010208128
0.0010188555
0.0010166392
0.0010140693
0.0010116332
0.0010095244
0.0010077107
0.0010061705
0.0010048881
0.0010038669
0.0010031099
0.0010025513
0.0010023492
0.0010024978
0.0010019422
0.0010027481
1.3187669e-06
1.233579e-05
1.0047733e-05
1.0035408e-05
1.2370813e-05
9.8983558e-06
1.2237684e-05
9.6804708e-06
1.0473763e-05
9.2376704e-06
9.3616898e-06
8.8663281e-06
8.7876454e-06
8.6179078e-06
8.6428648e-06
8.6797809e-06
8.8092235e-06
8.9811807e-06
9.2159609e-06
9.5016491e-06
9.8451426e-06
1.0246299e-05
1.0710994e-05
1.1244365e-05
1.1853732e-05
1.2548574e-05
1.3340454e-05
1.4243384e-05
1.5274657e-05
1.6455537e-05
1.7811883e-05
1.9373835e-05
2.1180827e-05
2.3280272e-05
2.5730412e-05
2.8602812e-05
3.1985824e-05
3.5991586e-05
4.0752554e-05
4.6433677e-05
5.3236846e-05
6.1409162e-05
7.125511e-05
8.3140946e-05
9.7516137e-05
0.00011588063
0.0001371383
0.00016293174
0.00019425789
0.00023231585
0.00027855932
0.00033474978
0.00040301997
0.00048595231
0.00058667486
0.00070897821
0.00085746031
0.0010295964
0.0010285127
0.0010273287
0.0010260636
0.0010247057
0.0010232405
0.0010216492
0.0010199072
0.0010179813
0.001015825
0.0010133674
0.0010110235
0.0010089978
0.001007258
0.0010057812
0.0010045521
0.0010035749
0.0010028407
0.0010023104
0.0010021415
0.0010021816
0.0010017884
0.001002442
1.2250464e-06
1.1344139e-05
9.3413976e-06
8.8169777e-06
1.1325391e-05
8.7305755e-06
1.0591722e-05
8.4547354e-06
8.9749123e-06
8.0141625e-06
7.9790048e-06
7.5726245e-06
7.5357444e-06
7.4428124e-06
7.4917384e-06
7.5648727e-06
7.7113381e-06
7.9001884e-06
8.1436806e-06
8.4352934e-06
8.7801848e-06
9.1796517e-06
9.63927e-06
1.0164693e-05
1.0762953e-05
1.1443555e-05
1.2217863e-05
1.3099615e-05
1.410568e-05
1.5256931e-05
1.6515806e-05
1.8025763e-05
1.9772664e-05
2.1802767e-05
2.4172983e-05
2.6953181e-05
3.0402058e-05
3.431413e-05
3.8966686e-05
4.4522131e-05
5.1179056e-05
5.9179537e-05
6.8825056e-05
8.0474367e-05
9.456986e-05
0.00011165251
0.0001323742
0.00015889195
0.00018965242
0.00022702638
0.0002724413
0.00032762762
0.00039468121
0.00047614119
0.00057508525
0.00069524611
0.00084115564
0.0010183085
0.0010276336
0.0010264336
0.0010251557
0.0010237892
0.0010223209
0.0010207341
0.0010190069
0.0010171111
0.0010150086
0.001012646
0.001010401
0.0010084646
0.0010068041
0.0010053952
0.001004224
0.0010032921
0.0010025818
0.0010020832
0.0010019291
0.0010018773
0.0010016427
0.0010021848
1.1446595e-06
1.0257082e-05
8.6764785e-06
7.712159e-06
1.0189043e-05
7.6631628e-06
9.0588977e-06
7.3415815e-06
7.6490299e-06
6.7968469e-06
6.744873e-06
6.4715369e-06
6.4567837e-06
6.4240276e-06
6.4957669e-06
6.598398e-06
6.7607735e-06
6.9643542e-06
7.2166165e-06
7.5144562e-06
7.8621868e-06
8.2619552e-06
8.7192131e-06
9.2182654e-06
9.8038696e-06
1.0469042e-05
1.1224754e-05
1.2084283e-05
1.3063903e-05
1.4183737e-05
1.5468325e-05
1.6947821e-05
1.8659325e-05
2.0648563e-05
2.2971902e-05
2.569887e-05
2.8915206e-05
3.272659e-05
3.7263122e-05
4.2685013e-05
4.918815e-05
5.7441851e-05
6.6950673e-05
7.8439356e-05
9.2343843e-05
0.00010920109
0.00012965437
0.00015449176
0.00018634512
0.00022326169
0.00026812158
0.00032263391
0.00038886924
0.00046933688
0.00056708009
0.00068579361
0.00082996673
0.0010050485
0.0010267552
0.001025541
0.0010242519
0.0010228784
0.0010214085
0.0010198274
0.0010181162
0.0010162501
0.0010141974
0.0010119165
0.0010097755
0.0010079329
0.0010063555
0.0010050182
0.0010039083
0.0010030227
0.0010023386
0.0010018711
0.0010017183
0.0010016049
0.001001496
0.0010019624
1.0771603e-06
9.0876382e-06
8.045865e-06
6.7103987e-06
9.0012457e-06
6.6865911e-06
7.6642797e-06
6.2814342e-06
6.3208848e-06
5.741522e-06
5.6928244e-06
5.5214984e-06
5.5304294e-06
5.5451137e-06
5.6384347e-06
5.7655981e-06
5.9429578e-06
6.1598351e-06
6.4210738e-06
6.7256494e-06
7.0614445e-06
7.4589534e-06
7.9120427e-06
8.4263817e-06
9.0092291e-06
9.6694287e-06
1.0417928e-05
1.126791e-05
1.2235402e-05
1.3340368e-05
1.4607125e-05
1.6065571e-05
1.7752545e-05
1.971348e-05
2.2004429e-05
2.4694556e-05
2.7869139e-05
3.1633203e-05
3.6116085e-05
4.1477482e-05
4.7913652e-05
5.5661439e-05
6.501168e-05
7.6317523e-05
9.0754263e-05
0.00010748082
0.00012777702
0.00015242916
0.00018238085
0.00022083055
0.00026537217
0.00031949657
0.00038525938
0.00046515219
0.00056219784
0.00068007035
0.00082323743
0.00099712722
0.0010258802
0.0010246538
0.0010233555
0.0010219767
0.0010205069
0.0010189333
0.0010172392
0.0010154035
0.0010133988
0.0010111908
0.0010091567
0.0010074106
0.0010059187
0.0010046556
0.001003609
0.0010027702
0.0010021159
0.0010016768
0.0010015118
0.0010013577
0.0010013392
0.0010017603
1.0232663e-06
7.8487915e-06
7.4326776e-06
5.8013964e-06
7.7828323e-06
5.7853739e-06
6.5661641e-06
5.2484845e-06
5.2282362e-06
4.8349803e-06
4.7992543e-06
4.7057498e-06
4.7389804e-06
4.7917036e-06
4.9053545e-06
5.0534825e-06
5.2451088e-06
5.4743822e-06
5.730018e-06
6.0383282e-06
6.3922368e-06
6.7950483e-06
7.2515501e-06
7.76762e-06
8.3505783e-06
9.0092497e-06
9.7545811e-06
1.0599747e-05
1.1560512e-05
1.2656801e-05
1.3912819e-05
1.5358368e-05
1.7030217e-05
1.8973757e-05
2.1245033e-05
2.3913233e-05
2.7063639e-05
3.0801112e-05
3.5254696e-05
4.0583669e-05
4.6985199e-05
5.4695139e-05
6.4005363e-05
7.5269027e-05
8.8915153e-05
0.0001054658
0.00012663409
0.00015121546
0.00018108505
0.00021738285
0.00026397912
0.00031796023
0.00038354679
0.00046322382
0.00056000558
0.00067756095
0.00082035453
0.00099381639
0.0010250121
0.0010237756
0.0010224703
0.0010210884
0.0010196207
0.0010180561
0.0010163808
0.0010145766
0.00101262
0.0010104804
0.0010085543
0.0010069054
0.0010054998
0.0010043123
0.0010033294
0.0010025373
0.0010019165
0.0010015037
0.0010013173
0.0010011329
0.0010011792
0.0010015752
9.8639542e-07
6.5596251e-06
6.8090831e-06
4.9825312e-06
6.5865388e-06
5.1584509e-06
5.4533125e-06
4.3536373e-06
4.3171413e-06
4.0588513e-06
4.0434832e-06
4.0102746e-06
4.0675427e-06
4.1515353e-06
4.284303e-06
4.4508141e-06
4.6432807e-06
4.8811413e-06
5.1584517e-06
5.4764089e-06
5.8380803e-06
6.2472043e-06
6.7087167e-06
7.2286194e-06
7.8143008e-06
8.474496e-06
9.2201719e-06
1.0042823e-05
1.0995199e-05
1.2080482e-05
1.3322598e-05
1.4751083e-05
1.640247e-05
1.8321937e-05
2.0565379e-05
2.3201877e-05
2.6316608e-05
3.0014258e-05
3.4423465e-05
3.9963944e-05
4.6359487e-05
5.4064986e-05
6.3375294e-05
7.4643529e-05
8.8298685e-05
0.00010486404
0.00012497498
0.00015072499
0.00018062724
0.00021696756
0.00026112456
0.00031777113
0.00038342808
0.00046319026
0.00056007239
0.00067775181
0.00082070635
0.00099438775
0.0010241554
0.0010229115
0.0010216017
0.0010202189
0.0010187553
0.0010172013
0.0010155457
0.001013774
0.0010118669
0.0010097969
0.0010079777
0.0010064246
0.0010051044
0.0010039922
0.0010030722
0.0010023264
0.0010017416
0.0010013527
0.0010011432
0.001000942
0.0010010316
0.0010013972
9.6934121e-07
5.7309317e-06
6.170905e-06
4.8078693e-06
6.1826922e-06
4.1730618e-06
4.1454779e-06
3.5958178e-06
3.5577837e-06
3.4022811e-06
3.4095162e-06
3.4240232e-06
3.5042921e-06
3.6143857e-06
3.7552303e-06
3.9343738e-06
4.1501936e-06
4.4013514e-06
4.6896628e-06
5.0171454e-06
5.387108e-06
5.803576e-06
6.2715909e-06
6.7972006e-06
7.3769072e-06
8.0377018e-06
8.7823123e-06
9.6236167e-06
1.0577404e-05
1.1663104e-05
1.2904712e-05
1.4331899e-05
1.5981422e-05
1.7898788e-05
2.0140362e-05
2.2775839e-05
2.5891134e-05
2.959198e-05
3.4008638e-05
3.9300743e-05
4.5662213e-05
5.3719493e-05
6.3062398e-05
7.4374239e-05
8.8084697e-05
0.00010471919
0.00012491564
0.00014944862
0.00018085304
0.00021734737
0.00026168756
0.00031556223
0.00038458663
0.0004646739
0.00056194749
0.00068010456
0.0008236501
0.0009980736
0.0010233157
0.0010220674
0.0010207558
0.0010193748
0.0010179173
0.0010163754
0.0010147399
0.001013
0.0010111426
0.0010091507
0.0010074357
0.001005975
0.0010047372
0.0010036978
0.0010028386
0.0010021384
0.0010015897
0.0010012203
0.0010009921
0.0010007891
0.0010008887
0.0010012185
9.7079173e-07
5.8717572e-06
5.4954572e-06
5.2865386e-06
5.3940926e-06
3.2794575e-06
3.3431071e-06
2.956737e-06
2.9304876e-06
2.8539885e-06
2.8848581e-06
2.9371993e-06
3.0389666e-06
3.1610934e-06
3.3247677e-06
3.5209607e-06
3.7505343e-06
4.0136866e-06
4.312532e-06
4.649622e-06
5.0284595e-06
5.4532473e-06
5.9225947e-06
6.4532065e-06
7.0478002e-06
7.715029e-06
8.4654133e-06
9.3118156e-06
1.0270039e-05
1.1359584e-05
1.2604588e-05
1.4034966e-05
1.5687807e-05
1.7609098e-05
1.9855839e-05
2.2498486e-05
2.5623831e-05
2.9338827e-05
3.3775278e-05
3.9094106e-05
4.5490884e-05
5.3205771e-05
6.3003838e-05
7.43884e-05
8.8188648e-05
0.00010493295
0.00012526249
0.00014995563
0.00018159471
0.00021832395
0.00026294402
0.00031715244
0.00038667677
0.00046726141
0.00056513679
0.00068402803
0.00082847775
0.0010040255
0.0010224995
0.0010212498
0.0010199397
0.0010185635
0.0010171147
0.0010155865
0.001013971
0.0010122595
0.0010104423
0.0010085508
0.0010069359
0.001005563
0.0010044025
0.0010034313
0.0010026289
0.0010019731
0.0010014584
0.0010011033
0.0010008643
0.0010006687
0.0010007419
0.0010010299
8.3702908e-07
6.1372845e-06
4.7658231e-06
3.6260131e-06
3.4723585e-06
2.7044289e-06
2.6548496e-06
2.4404697e-06
2.4214725e-06
2.4038137e-06
2.4579195e-06
2.5398014e-06
2.6525136e-06
2.8001889e-06
2.9805868e-06
3.191187e-06
3.4330824e-06
3.7074308e-06
4.0166213e-06
4.3635361e-06
4.7518028e-06
5.1811485e-06
5.6640898e-06
6.2034653e-06
6.8064102e-06
7.481542e-06
8.2393499e-06
9.0926954e-06
1.0057432e-05
1.1153178e-05
1.2404276e-05
1.3840953e-05
1.5500733e-05
1.7430191e-05
1.9687064e-05
2.234263e-05
2.5484723e-05
2.9221838e-05
3.3687436e-05
3.9043179e-05
4.5486008e-05
5.3654377e-05
6.313115e-05
7.4606207e-05
8.8517095e-05
0.00010539582
0.00012588775
0.00015077615
0.00018266303
0.00021967279
0.00026462822
0.00031923822
0.00038930599
0.00047048329
0.00056907791
0.00068884817
0.00083438056
0.001011272
0.0010217141
0.0010204664
0.0010191611
0.0010177929
0.0010163562
0.0010148446
0.0010132513
0.0010115685
0.0010097877
0.0010080048
0.0010064846
0.0010051941
0.0010041053
0.0010031958
0.0010024446
0.0010018299
0.0010013471
0.001001004
0.0010007524
0.0010005456
0.0010005837
0.0010008112
6.4636411e-07
5.2219485e-06
3.7447196e-06
2.6110246e-06
2.6760395e-06
2.176023e-06
2.1256456e-06
2.0061815e-06
2.0121569e-06
2.0366275e-06
2.1142625e-06
2.2143216e-06
2.3506052e-06
2.5160666e-06
2.710777e-06
2.9340496e-06
3.1873322e-06
3.4723908e-06
3.7918198e-06
4.1486911e-06
4.5440549e-06
4.9863755e-06
5.4789145e-06
6.0276063e-06
6.6395407e-06
7.3232954e-06
8.0893406e-06
8.9505542e-06
9.9228664e-06
1.1026054e-05
1.2284708e-05
1.3729411e-05
1.5398179e-05
1.7338238e-05
1.9608057e-05
2.2279717e-05
2.5442219e-05
2.9205756e-05
3.3705548e-05
3.9103485e-05
4.5913389e-05
5.3815181e-05
6.3370139e-05
7.4940454e-05
8.8967207e-05
0.00010598607
0.00012664705
0.00015173831
0.00018384593
0.00022114092
0.00026643797
0.00032145814
0.00039203003
0.0004738072
0.00057313209
0.00069379755
0.00084043536
0.0010187009
0.0010209673
0.0010197251
0.001018428
0.0010170714
0.0010156502
0.0010141589
0.0010125914
0.0010109408
0.0010092
0.0010075182
0.0010060865
0.0010048726
0.0010038498
0.0010029961
0.0010022898
0.0010017114
0.0010012568
0.0010009239
0.0010006617
0.001000445
0.001000442
0.0010005731
5.0001528e-07
2.8086376e-06
2.9494282e-06
2.1090752e-06
2.0491227e-06
1.7475109e-06
1.7107598e-06
1.6588383e-06
1.689577e-06
1.7470208e-06
1.8454149e-06
1.9659356e-06
2.1191847e-06
2.2991551e-06
2.5062016e-06
2.740797e-06
3.0046836e-06
3.2999802e-06
3.6293904e-06
3.9960579e-06
4.4036679e-06
4.8540975e-06
5.3561617e-06
5.9141162e-06
6.5350064e-06
7.2273771e-06
8.0016938e-06
8.8708707e-06
9.850934e-06
1.0961832e-05
1.2228414e-05
1.3681636e-05
1.5360028e-05
1.7311452e-05
1.959503e-05
2.2283626e-05
2.5467311e-05
2.9417019e-05
3.3984317e-05
3.9463637e-05
4.6058378e-05
5.4018322e-05
6.364437e-05
7.5300761e-05
8.9431408e-05
0.00010657506
0.00012738647
0.00015399778
0.00018491105
0.00022244924
0.00026803762
0.00032340841
0.00039434812
0.00047663032
0.00057657315
0.00069800048
0.000845585
0.0010214539
0.0010202685
0.0010190349
0.0010177494
0.0010164077
0.0010150054
0.0010135375
0.0010119989
0.0010103836
0.0010086854
0.0010070954
0.0010057438
0.0010045997
0.0010036371
0.0010028339
0.0010021683
0.0010016227
0.0010011926
0.0010008683
0.0010006037
0.0010003922
0.0010003585
0.001000424
4.0109521e-07
2.0713459e-06
2.2416451e-06
1.6519402e-06
1.5833959e-06
1.4097115e-06
1.3915521e-06
1.3875971e-06
1.4416953e-06
1.5250817e-06
1.6416276e-06
1.780664e-06
1.9478841e-06
2.1401179e-06
2.3581105e-06
2.6030069e-06
2.8767374e-06
3.1815957e-06
3.5203258e-06
3.8960851e-06
4.3125259e-06
4.7738833e-06
5.2851259e-06
5.8521542e-06
6.482063e-06
7.1834811e-06
7.9670033e-06
8.8457343e-06
9.8359619e-06
1.0957979e-05
1.2237074e-05
1.3704765e-05
1.5400293e-05
1.7372309e-05
1.9680832e-05
2.2400036e-05
2.5621765e-05
2.945851e-05
3.4046018e-05
3.9550242e-05
4.6177055e-05
5.4177171e-05
6.3852556e-05
7.5568208e-05
8.9768988e-05
0.00010789807
0.00012895976
0.00015452264
0.00018555618
0.00022323704
0.00026899548
0.00032763573
0.0003956234
0.000478191
0.00057848941
0.00070036438
0.00084851812
0.0010208028
0.0010196269
0.0010184052
0.0010171343
0.0010158106
0.00101443
0.0010129884
0.0010114812
0.0010099034
0.0010082497
0.0010067396
0.001005458
0.001004375
0.0010034651
0.001002706
0.0010020765
0.0010015606
0.0010011517
0.001000835
0.0010005724
0.0010003695
0.0010003111
0.0010003211
3.0761439e-07
1.6008246e-06
1.6673629e-06
1.3010183e-06
1.2320635e-06
1.1431599e-06
1.1454442e-06
1.176848e-06
1.2518649e-06
1.3556569e-06
1.4871877e-06
1.6413631e-06
1.8195861e-06
2.0216413e-06
2.2485864e-06
2.5019357e-06
2.7837173e-06
3.0963031e-06
3.4424444e-06
3.8252955e-06
4.2484882e-06
4.7162247e-06
5.2334231e-06
5.8059278e-06
6.4407783e-06
7.1465532e-06
7.9338099e-06
8.8156374e-06
9.8083358e-06
1.0932237e-05
1.2212716e-05
1.3681438e-05
1.5377813e-05
1.7350607e-05
1.96601e-05
2.2381188e-05
2.5606055e-05
2.9446583e-05
3.403806e-05
3.9547959e-05
4.6182918e-05
5.4591311e-05
6.4350571e-05
7.6163623e-05
9.0477113e-05
0.00010783321
0.0001288898
0.00015444546
0.00018547001
0.0002231382
0.00027133126
0.00032727491
0.00039520771
0.00047771736
0.00057795908
0.00069978584
0.00084791045
0.0010202165
0.0010190534
0.0010178464
0.0010165929
0.0010152897
0.0010139333
0.00101252
0.0010110458
0.0010095067
0.0010078982
0.0010064546
0.0010052312
0.0010041988
0.0010033325
0.00100261
0.0010020108
0.00100152
0.0010011287
0.0010008194
0.0010005621
0.0010003676
0.0010002888
0.0010002541
1.9810348e-07
1.2492938e-06
1.2103683e-06
1.0361812e-06
9.7453955e-07
9.422789e-07
9.6679274e-07
1.026417e-06
1.1209465e-06
1.2420423e-06
1.3869752e-06
1.5537646e-06
1.7425584e-06
1.9540967e-06
2.1897992e-06
2.4509692e-06
2.7405113e-06
3.0604899e-06
3.413668e-06
3.8032209e-06
4.2327963e-06
4.7065694e-06
5.2293991e-06
5.8070757e-06
6.4465797e-06
7.1564284e-06
7.9471241e-06
8.8317054e-06
9.826428e-06
1.0951592e-05
1.2232568e-05
1.3701025e-05
1.5396282e-05
1.7366914e-05
1.9747285e-05
2.2482599e-05
2.572389e-05
2.9582224e-05
3.4193614e-05
3.972749e-05
4.6390178e-05
5.4429223e-05
6.4145569e-05
7.5905815e-05
9.0153079e-05
0.00010742605
0.00012837814
0.00015517552
0.00018626193
0.00022398998
0.0002697879
0.0003253928
0.00039291931
0.00047494413
0.00057461038
0.00069575755
0.00084308411
0.0010197054
0.0010185593
0.0010173695
0.0010161358
0.0010148552
0.0010135247
0.0010121411
0.0010107009
0.0010092005
0.0010076362
0.0010062439
0.0010050653
0.0010040719
0.0010032389
0.0010025442
0.0010019682
0.0010014966
0.0010011183
0.001000815
0.0010005641
0.0010003763
0.0010002804
0.0010002111
2.4912362e-07
9.9982707e-07
8.8354527e-07
8.3007054e-07
7.9663057e-07
7.9799942e-07
8.4083707e-07
9.1869395e-07
1.0254237e-06
1.1557601e-06
1.307111e-06
1.4787984e-06
1.6712557e-06
1.885563e-06
2.1232339e-06
2.3861053e-06
2.6763309e-06
2.9963758e-06
3.3490538e-06
3.7375511e-06
4.1654392e-06
4.6365966e-06
5.15567e-06
5.7285109e-06
6.3620711e-06
7.0648242e-06
7.8472029e-06
8.7221511e-06
9.7057984e-06
1.0818298e-05
1.2084851e-05
1.3536872e-05
1.5213287e-05
1.7162297e-05
1.9443837e-05
2.2131829e-05
2.5316027e-05
2.9105189e-05
3.3634582e-05
3.9071453e-05
4.561682e-05
5.3513377e-05
6.354633e-05
7.518662e-05
8.9285667e-05
0.0001063761
0.00012710444
0.00015225567
0.00018278335
0.00021984643
0.00026485436
0.0003195226
0.00038594076
0.00046665647
0.00056477913
0.00068410915
0.00082929913
0.0010060436
0.0010181586
0.0010169886
0.0010157766
0.0010145204
0.001013217
0.0010118639
0.0010104581
0.0010089966
0.0010074762
0.0010061172
0.0010049676
0.0010039993
0.0010031875
0.0010025102
0.0010019487
0.0010014886
0.0010011171