/*--------------------------------*- C++ -*----------------------------------*\
  =========                 |
  \\      /  F ield         | OpenFOAM: The Open Source CFD Toolbox
   \\    /   O peration     | Website:  https://openfoam.org
    \\  /    A nd           | Version:  6
     \\/     M anipulation  |
\*---------------------------------------------------------------------------*/
FoamFile
{
    version     2.0;
    format      ascii;
    class       volScalarField;
    location    "500";
    object      omega;
}
// * * * * * * * * * * * * * * * * * * * * * * * * * * * * * * * * * * * * * //

dimensions      [0 0 -1 0 0 0 0];

internalField   nonuniform List<scalar> 
16000
(
1410.6289
1504.7722
776.73122
497.55702
335.42951
257.59763
192.87853
159.71811
129.16467
110.42128
93.524058
81.416057
70.871633
62.553409
55.433969
49.57904
44.59225
40.377728
36.751542
33.629442
30.915355
28.548126
26.47045
24.64012
23.020734
21.58344
20.303789
19.161681
18.140161
17.225045
16.404367
15.668023
15.00735
14.414855
13.884025
13.409136
12.985097
12.607334
12.271691
11.974339
11.711744
11.480686
11.278149
11.101304
10.94751
10.814318
10.699445
10.600788
10.516449
10.444743
10.384244
10.333851
10.293002
10.262293
10.241428
10.228239
10.219983
10.213641
10.207115
10.199285
10.189543
10.177604
10.163316
10.146159
10.125936
10.103296
10.07994
10.058164
10.038894
10.02277
10.008523
9.9982427
9.9877919
9.9833175
9.9764296
9.9851477
9.980913
10.019415
9.9905358
10.031022
1320.0459
1545.9197
778.73192
504.91073
337.32451
261.36923
194.47716
161.78564
130.33274
111.54041
94.251073
81.980929
71.24633
62.796915
55.62039
49.729909
44.710633
40.472855
36.827642
33.690935
30.965375
28.589337
26.504896
24.669381
23.046058
21.605797
20.323943
19.180212
18.157497
17.241472
16.420069
15.683109
15.021886
14.428865
13.897505
13.422072
12.997466
12.619116
12.282875
11.984918
11.721695
11.489997
11.286822
11.109342
10.954921
10.82112
10.705658
10.606429
10.521524
10.449238
10.388099
10.336905
10.294821
10.261633
10.238448
10.223731
10.214774
10.208282
10.201879
10.194714
10.186402
10.175713
10.162608
10.146509
10.127093
10.104804
10.081397
10.059294
10.039865
10.023407
10.009232
9.9984067
9.9887029
9.9841234
9.9772967
9.9832567
9.9801636
10.015552
9.9909857
10.031782
1089.2694
1586.0256
778.51904
511.4382
338.51605
264.63876
195.72436
163.51828
131.27166
112.39959
94.783138
82.322924
71.433821
62.935535
55.715067
49.796964
44.75408
40.499756
36.842121
33.696309
30.964368
28.583987
26.496863
24.659829
23.035899
21.595701
20.314415
19.1716
18.15003
17.235264
16.415138
15.679415
15.01936
14.427407
13.897
13.422397
12.9985
12.620739
12.284985
11.987427
11.724499
11.493003
11.289953
11.112534
10.95811
10.824259
10.708708
10.609353
10.524286
10.451787
10.390363
10.338764
10.296033
10.261657
10.23599
10.219534
10.209726
10.202997
10.196563
10.18945
10.181457
10.172203
10.160527
10.145727
10.127359
10.105648
10.082329
10.060025
10.040459
10.023823
10.009699
9.9986139
9.9892845
9.9846722
9.9782405
9.9824508
9.9802037
10.012236
9.9912259
10.029048
1115.5404
1621.0354
776.60142
517.08391
339.11459
267.32988
196.67933
164.84641
131.98826
112.9409
95.100687
82.441237
71.491852
62.962884
55.713478
49.77582
44.719088
40.455335
36.792397
33.643368
30.910493
28.530552
26.445085
24.610432
22.989432
21.552503
20.274704
19.135474
18.117503
17.206255
16.389485
15.656917
14.999801
14.41055
13.882604
13.410225
12.988321
12.612332
12.278148
11.98199
11.720269
11.489805
11.287634
11.110954
10.957137
10.823779
10.708625
10.609577
10.524732
10.452369
10.390984
10.339299
10.296292
10.261271
10.234083
10.215659
10.204838
10.197805
10.191305
10.184165
10.176221
10.167256
10.156814
10.143591
10.126556
10.105686
10.082643
10.060261
10.040637
10.023935
10.009865
9.9986559
9.9896341
9.9845058
9.97916
9.9824624
9.9805018
10.00841
9.991605
10.02755
1139.5716
1648.3032
773.35163
521.7383
339.14479
269.36159
197.34766
165.7094
132.47022
113.11587
95.173064
82.414578
71.430519
62.878401
55.614731
49.665902
44.604958
40.339086
36.677972
33.531738
30.803417
28.428761
26.349351
24.521037
22.906544
21.476134
20.204778
19.071835
18.059942
17.154496
16.343187
15.615709
14.963319
14.37842
13.854453
13.385696
12.967076
12.594042
12.262511
11.968751
11.709147
11.480539
11.279991
11.104724
10.952114
10.819784
10.705501
10.60718
10.522933
10.45104
10.389995
10.33851
10.295528
10.260271
10.232357
10.21213
10.200102
10.192692
10.186101
10.178903
10.170942
10.162048
10.151934
10.140004
10.124616
10.10488
10.082323
10.059991
10.040395
10.023728
10.009764
9.9985506
9.9897837
9.9843575
9.9798951
9.9823787
9.9810153
10.004958
9.9921758
10.024471
1161.3326
1664.1689
769.265
525.27341
338.64867
270.63152
197.74305
166.02704
132.70004
112.99064
95.021245
82.240274
71.247064
62.679861
55.416603
49.465487
44.410079
40.149706
36.497698
33.360467
30.642332
28.277959
26.209118
24.391205
22.786893
21.366329
20.104446
18.980551
17.977266
17.079951
16.276246
15.555823
14.909969
14.33109
13.812637
13.348914
12.934873
12.565981
12.238182
11.947819
11.691239
11.465307
11.26712
11.093934
10.943123
10.812348
10.699404
10.602222
10.518936
10.447837
10.387422
10.336402
10.293704
10.2585
10.230272
10.208985
10.195515
10.187642
10.180942
10.173665
10.165658
10.156771
10.146778
10.135287
10.121468
10.103198
10.081368
10.059217
10.039745
10.023206
10.009397
9.9982798
9.9897453
9.9841735
9.9804209
9.9821715
9.9816253
10.002332
9.9927427
10.022469
1180.842
1665.81
764.67114
527.51169
337.68053
271.01626
197.88025
165.70653
132.6399
112.66759
94.721367
81.918701
70.9407
62.367303
55.118659
49.174545
44.134274
39.887181
36.251575
33.129674
30.42739
28.078363
26.024644
24.221251
22.630829
21.223477
19.974122
18.862057
17.869926
16.983082
16.189133
15.477732
14.840224
14.269025
13.75761
13.300313
12.892131
12.528548
12.205529
11.919536
11.666862
11.444398
11.249282
11.078816
10.930374
10.801654
10.690491
10.594837
10.512857
10.442854
10.383339
10.333026
10.29084
10.255926
10.227694
10.205928
10.191081
10.18264
10.175814
10.168443
10.160371
10.151462
10.141522
10.130243
10.117048
10.100595
10.079773
10.057941
10.038691
10.022371
10.008781
9.9978418
9.9895332
9.983959
9.9807404
9.9818202
9.9822411
10.000069
9.9932827
10.020195
1198.1837
1659.8964
759.25514
528.25359
336.31693
270.38385
197.77736
165.03536
132.22444
112.15168
94.274378
81.452228
70.511704
61.941735
54.721064
48.793568
43.777753
39.551828
35.939873
32.83968
30.158939
27.830353
25.796351
24.011631
22.43884
21.048095
19.814349
18.716916
17.738494
16.86447
16.082432
15.382017
14.754654
14.192785
13.689911
13.240412
12.839341
12.48221
12.164981
11.884296
11.636379
11.418143
11.226771
11.059638
10.914101
10.787907
10.678942
10.585178
10.504822
10.436198
10.377831
10.328448
10.286977
10.252552
10.22454
10.202597
10.186817
10.177668
10.170704
10.16323
10.15508
10.146131
10.136211
10.125067
10.112277
10.097036
10.077551
10.056184
10.037255
10.021239
10.007934
9.9972459
9.9891721
9.9837045
9.9808916
9.9813925
9.9828049
9.9979234
9.9936664
10.018141
1213.5021
1655.2587
752.70939
527.33126
334.64806
268.63084
197.413
164.10404
131.55212
111.45176
93.682321
80.844972
69.961402
61.405291
54.224878
48.32382
43.341451
39.144557
35.563455
32.491351
29.837839
27.534802
25.525112
23.763244
22.211842
20.841111
19.626061
18.546059
17.583895
16.725029
15.957048
15.26956
14.654114
14.103189
13.610324
13.16995
12.777195
12.427621
12.117131
11.842644
11.600284
11.386989
11.199984
11.036749
10.894614
10.771375
10.664988
10.573442
10.494999
10.428006
10.371011
10.322757
10.282181
10.248417
10.220809
10.198946
10.182759
10.172714
10.1656
10.158015
10.14978
10.140781
10.130863
10.119807
10.107274
10.092667
10.074722
10.053972
10.03546
10.019833
10.006882
9.9965081
9.9886932
9.9834164
9.9809134
9.9810815
9.9832978
9.9959342
9.9939588
10.015951
1226.9651
1651.526
745.27165
524.52288
332.75182
266.48895
196.72216
162.93923
130.72575
110.5759
92.946088
80.100727
69.290849
60.759864
53.631122
47.76656
42.826388
38.666403
35.123346
32.085757
29.465181
27.19283
25.212074
23.47726
21.951021
20.603722
19.410462
18.350687
17.40731
16.565914
15.814115
15.141458
14.539658
14.001246
13.519807
13.089825
12.706527
12.365566
12.062682
11.795218
11.559156
11.351458
11.169377
11.010554
10.872267
10.752364
10.648893
10.559852
10.483575
10.418436
10.363007
10.316055
10.276531
10.243573
10.216515
10.194902
10.178563
10.167764
10.160492
10.152793
10.14447
10.135416
10.125491
10.114501
10.102169
10.088049
10.071313
10.051347
10.033344
10.018184
10.005655
9.9956514
9.9881302
9.983105
9.9808389
9.9808726
9.9837163
9.9941647
9.9941554
10.01374
1238.7778
1648.2483
737.03605
519.49193
330.64919
264.00578
195.59129
161.55879
129.74591
109.53238
92.066667
79.223335
68.50134
60.007469
52.941091
47.123256
42.233904
38.118657
34.620917
31.624312
29.042423
26.805918
24.858743
23.15523
21.657939
20.337495
19.169117
18.132346
17.210249
16.38859
15.655063
14.999084
14.412595
13.888198
13.419529
13.001126
12.62833
12.296995
12.00247
11.742772
11.513672
11.312161
11.135478
10.98152
10.847472
10.731224
10.630958
10.544662
10.470761
10.407661
10.353964
10.308461
10.270119
10.23809
10.211702
10.190472
10.174145
10.162812
10.155372
10.147561
10.13915
10.13004
10.120104
10.10917
10.096999
10.083245
10.067354
10.048359
10.03095
10.016331
10.004288
9.994704
9.9875176
9.9827849
9.980707
9.9807585
9.9840686
9.9927075
9.994344
10.011594
1249.1904
1644.8134
728.18639
511.84466
328.33831
261.24501
194.03377
159.9828
128.61307
108.3301
91.045535
78.216682
67.594461
59.150127
52.156224
46.395488
41.565587
37.502819
34.051238
31.101889
28.564662
26.369536
24.461043
22.793571
21.329487
20.039756
18.899743
17.889099
16.991062
16.191647
15.478725
14.841457
14.272103
13.76336
13.308932
12.903399
12.5422
12.221646
11.937446
11.686156
11.464589
11.26979
11.098874
10.95016
10.82068
10.708338
10.611515
10.528149
10.456788
10.395874
10.344039
10.3001
10.263048
10.232045
10.206426
10.185689
10.169519
10.157855
10.150235
10.142316
10.133821
10.12466
10.114715
10.103834
10.091807
10.078344
10.063005
10.045069
10.028331
10.014319
10.002818
9.9936988
9.9868894
9.9824753
9.980558
9.9807259
9.9843554
9.9916088
9.9945417
10.009847
1258.4814
1640.35
718.89847
503.69459
325.75132
258.267
192.38222
158.22727
127.32433
106.97518
89.882644
77.082842
66.570871
58.188874
51.265711
45.569651
40.807482
36.807082
33.415375
30.521361
28.035888
25.888281
24.02386
22.397326
20.970691
19.715427
18.607109
17.625522
16.754083
15.979134
15.288936
14.672149
14.121486
13.629774
13.190814
12.79921
12.450363
12.141137
11.867116
11.624959
11.411563
11.22411
11.060196
10.917027
10.792385
10.684115
10.590921
10.510611
10.441904
10.383278
10.333398
10.29111
10.255426
10.225526
10.200751
10.180595
10.164703
10.1529
10.145081
10.137061
10.12849
10.119285
10.109338
10.098514
10.086629
10.073438
10.058589
10.041547
10.025545
10.012198
10.001287
9.9926711
9.9862773
9.9821953
9.9804275
9.9807622
9.9845575
9.9908046
9.9947368
10.008372
1266.9527
1633.7295
709.31288
495.09755
322.73491
255.11112
190.62939
156.3098
125.87817
105.47397
88.578987
75.823906
65.405622
57.095494
50.262782
44.646735
39.964763
36.037883
32.715613
29.885235
27.458868
25.365031
23.550082
21.969466
20.58451
19.367416
18.294057
17.344379
16.501947
15.753456
15.088026
14.493331
13.962755
13.489285
13.066873
12.69019
12.354311
12.057045
11.793731
11.561149
11.356271
11.176261
11.019083
10.881823
10.762393
10.658985
10.569561
10.492365
10.426369
10.370087
10.322215
10.281631
10.247369
10.218623
10.194745
10.175234
10.159718
10.147965
10.139916
10.131805
10.123168
10.113928
10.103989
10.09323
10.08149
10.068559
10.054154
10.037871
10.022657
10.010021
9.9997381
9.9916574
9.9857108
9.9819656
9.9803475
9.9808647
9.9846685
9.9900233
9.9949147
10.007204
1274.9065
1623.2659
699.56443
486.09907
318.97569
251.81291
188.75966
154.24504
124.27194
103.82999
87.09043
74.382808
64.087567
55.872542
49.147507
43.627729
39.039284
35.197596
31.95485
29.196645
26.837083
24.803409
23.043249
21.513636
20.174536
18.999208
17.963949
17.048915
16.237756
15.517312
14.876286
14.305183
13.795986
13.341876
12.937016
12.576367
12.255546
11.970713
11.718477
11.495786
11.299734
11.127257
10.976998
10.845764
10.731493
10.632665
10.547251
10.473748
10.410457
10.356524
10.31067
10.271809
10.238995
10.211433
10.188483
10.169655
10.154573
10.142977
10.134748
10.12656
10.117869
10.108607
10.098687
10.088004
10.076416
10.063744
10.049749
10.034122
10.019734
10.007841
9.998215
9.9906937
9.9852162
9.981808
9.9803494
9.9810346
9.9847302
9.9894167
9.9950036
10.006239
1282.6216
1606.4361
689.76163
476.7468
315.17577
248.40329
186.74743
152.04306
122.50205
101.9476
85.385347
72.761671
62.612972
54.518458
47.920137
42.514089
38.033653
34.289432
31.137022
28.45967
26.175063
24.208111
22.507728
21.030436
19.741047
18.610844
17.616682
16.738999
15.961495
15.271505
14.658002
14.111744
13.624946
13.191003
12.80427
12.459877
12.153587
11.881687
11.640919
11.428434
11.241684
11.077887
10.93464
10.809535
10.700364
10.606103
10.524575
10.454557
10.394457
10.342821
10.29895
10.261793
10.230423
10.204053
10.182044
10.163918
10.1493
10.137913
10.129594
10.121344
10.112615
10.103344
10.093457
10.082861
10.071436
10.059025
10.045426
10.030384
10.016843
10.005713
9.9967587
9.9898128
9.9848142
9.9817404
9.9804612
9.9812841
9.9847559
9.98893
9.994932
10.005366
1290.3284
1579.3715
679.97206
467.01307
311.52767
244.91194
184.56094
149.63683
120.39754
99.807133
83.451417
70.952965
60.977882
53.032041
46.581935
41.308481
36.952042
33.318039
30.267746
27.679678
25.472561
23.578691
21.944359
20.526707
19.291208
18.209447
17.259139
16.421239
15.679231
15.021172
14.436372
13.915892
13.452222
13.039009
12.670838
12.343039
12.051542
11.792762
11.563529
11.361107
11.183395
11.027589
10.891513
10.772831
10.669531
10.579814
10.501993
10.435284
10.378159
10.329226
10.287249
10.251733
10.221773
10.196584
10.175511
10.158092
10.143955
10.132814
10.124476
10.116182
10.10743
10.098166
10.088326
10.07783
10.066577
10.054435
10.041231
10.026739
10.014052
10.003687
9.9954065
9.9890418
9.9845204
9.9817738
9.9806958
9.9816315
9.9847993
9.9885356
9.9947547
10.004564
1298.177
1535.9037
670.09231
456.80385
307.92539
241.35465
182.40237
146.86336
117.94396
97.387334
81.273867
68.947582
59.178463
51.413122
45.136029
40.015465
35.801086
32.289903
29.344981
26.856498
24.738864
22.925181
21.362608
20.009129
18.831314
17.800731
16.896366
16.100362
15.395214
14.770121
14.214788
13.720632
13.280465
12.888227
12.538761
12.227634
11.950979
11.705364
11.48768
11.295025
11.126185
10.978103
10.848979
10.736446
10.638529
10.553547
10.479951
10.416314
10.361964
10.315546
10.275779
10.241787
10.213162
10.189127
10.168971
10.152249
10.138597
10.127725
10.119423
10.111104
10.102348
10.093109
10.08333
10.072943
10.061869
10.050003
10.037203
10.023266
10.011421
10.001807
9.9941898
9.9883998
9.9843435
9.9819146
9.9810508
9.9820745
9.9849198
9.9883226
9.9945957
10.003759
1306.0294
1480.1209
659.53594
445.93637
304.20201
238.34548
180.12767
143.64627
115.10144
94.655161
78.833255
66.734897
57.211466
49.663388
43.588759
38.642039
34.575491
31.20292
28.3818
26.003419
23.983569
22.256619
20.770901
19.485254
18.368532
17.391149
16.533595
15.778297
15.110818
14.519259
13.993771
13.526173
13.109632
12.738405
12.407626
12.113124
11.851273
11.618875
11.413066
11.23125
11.07105
10.930209
10.807737
10.701135
10.608379
10.527884
10.458202
10.39802
10.346164
10.302113
10.264372
10.232137
10.204708
10.18178
10.162508
10.146462
10.133288
10.122699
10.114471
10.106148
10.09741
10.088214
10.07851
10.068242
10.057348
10.04575
10.033353
10.020034
10.009008
10.000116
9.9931339
9.9878954
9.9842822
9.9821607
9.9815063
9.9825786
9.9851317
9.9883192
9.9943942
10.002895
1313.6679
1428.2685
648.65841
438.68268
302.29252
234.47389
176.65004
139.91792
111.81863
91.579212
76.112109
64.309614
55.079889
47.790272
41.932923
37.184513
33.294211
30.076741
27.3919
25.133135
23.218312
21.583605
20.179113
18.963135
17.906569
16.984033
16.174929
15.462456
14.832855
14.274813
13.778994
13.337664
12.944381
12.593748
12.281201
12.002841
11.755283
11.535538
11.340921
11.168993
11.017577
10.88466
10.768341
10.667387
10.579531
10.503274
10.437241
10.380188
10.331001
10.28917
10.253306
10.222645
10.196523
10.174642
10.156208
10.140807
10.128095
10.117789
10.109662
10.101358
10.092659
10.083527
10.073916
10.06378
10.053062
10.041702
10.029631
10.017103
10.00686
9.9986497
9.9922605
9.9875319
9.9843274
9.9824986
9.9820328
9.98311
9.9854327
9.9884811
9.9940837
10.0019
1320.6491
1401.0993
640.02566
439.67811
302.02604
229.01915
172.53431
135.57551
108.03924
88.13512
73.103059
61.677858
52.798333
45.790743
40.19329
35.671462
31.97773
28.930107
26.392164
24.26067
22.456347
20.917509
19.59344
18.449671
17.456193
16.588864
15.828145
15.15814
14.565864
14.040666
13.573776
13.157946
12.787151
12.456352
12.1613
11.898369
11.664426
11.456703
11.272701
11.110058
10.966725
10.840864
10.731286
10.635631
10.552367
10.480081
10.417471
10.363357
10.316683
10.276921
10.242807
10.213615
10.188714
10.167808
10.150155
10.135358
10.123084
10.113054
10.105042
10.09678
10.088145
10.079101
10.069607
10.05962
10.049093
10.037971
10.026194
10.014517
10.005013
9.9974386
9.9915936
9.9873215
9.9844767
9.982912
9.9826162
9.98368
9.9857597
9.9885301
9.9936075
10.00062
1325.5788
1401.7958
632.38626
435.17046
297.39977
222.98845
167.47147
130.66286
103.7444
84.32698
69.820987
58.863275
50.36737
43.703143
38.401875
34.131915
30.652011
27.785881
25.402435
23.403052
21.712529
20.268544
19.028162
17.956668
17.025759
16.212728
15.499242
14.870419
14.314126
13.820432
13.381173
12.98961
12.640149
12.328111
12.049551
11.801107
11.579881
11.383358
11.209357
11.055451
10.919623
10.800948
10.697008
10.606238
10.527198
10.458562
10.399108
10.347702
10.303387
10.265516
10.233005
10.205164
10.181387
10.161371
10.144433
10.130192
10.118324
10.108556
10.10066
10.092465
10.083918
10.074986
10.065633
10.055822
10.04551
10.034651
10.023193
10.012306
10.003487
9.9965014
9.9911539
9.9872879
9.9847522
9.9834116
9.9832558
9.9842924
9.98615
9.9886613
9.9931829
9.9991388
1326.1961
1418.056
622.96534
424.62178
291.28476
215.77795
161.40526
125.04473
98.915381
80.154362
66.28539
55.873379
47.843654
41.571829
36.598345
32.600703
29.34738
26.670178
24.444705
22.57776
20.998556
19.6527
18.494687
17.493665
16.623244
15.862298
15.193805
14.603967
14.081556
13.617389
13.203931
12.834966
12.505333
12.210713
11.947445
11.712386
11.502785
11.316203
11.151498
11.005881
10.877526
10.764735
10.665918
10.579564
10.50432
10.43895
10.382345
10.333309
10.291287
10.255102
10.22402
10.197392
10.174649
10.155426
10.139127
10.125387
10.113892
10.104374
10.096573
10.088467
10.080031
10.071233
10.062045
10.052431
10.042356
10.03178
10.020658
10.010485
10.002286
9.995832
9.9909335
9.9874304
9.985168
9.9840244
9.9839808
9.9849814
9.9866869
9.9890707
9.9931383
9.9983096
1319.6008
1378.2256
613.61939
412.9961
283.16884
207.26606
154.31377
118.75839
93.628171
75.710586
62.594781
52.805846
45.301718
39.458579
34.834148
31.120899
28.100243
25.614294
23.546674
21.810473
20.339868
19.084367
18.00477
17.070312
16.25661
15.54418
14.917337
14.363386
13.872001
13.434751
13.044723
12.696221
12.384523
12.105678
11.856343
11.633633
11.435016
11.258282
11.101439
10.962657
10.840242
10.732635
10.6384
10.555978
10.484064
10.421453
10.367524
10.320859
10.280564
10.24583
10.215962
10.190351
10.168608
10.150066
10.134317
10.121009
10.109838
10.100546
10.092837
10.084842
10.076537
10.067895
10.05889
10.049492
10.03967
10.02939
10.018616
10.009063
10.001402
9.9954092
9.9908992
9.9877085
9.9856837
9.9847131
9.9847597
9.9857226
9.9873206
9.9896169
9.9932997
9.9977969
1302.6875
1323.2602
604.183
398.85955
273.22931
197.61022
146.35483
111.97655
88.070266
71.1699
58.902726
49.788531
42.84202
37.442941
33.17308
29.743938
26.951774
24.651265
22.735047
21.123185
19.755298
18.585156
17.576912
16.70244
15.939447
15.270103
14.680044
14.157631
13.69339
13.27958
12.909849
12.578967
12.282602
12.017138
11.779525
11.567156
11.377562
11.208686
11.058656
10.925736
10.808308
10.704866
10.61469
10.535819
10.467015
10.407152
10.355202
10.310235
10.271416
10.237913
10.209046
10.184449
10.163384
10.145397
10.130094
10.117136
10.106227
10.097116
10.089516
10.081651
10.073495
10.065026
10.056219
10.047049
10.03749
10.027514
10.01709
10.00805
10.000832
9.9952182
9.991025
9.9880873
9.9862561
9.9854261
9.9855395
9.9864704
9.9879999
9.9902257
9.9935801
9.9975211
1270.3509
1267.9908
595.71894
382.1062
261.06717
186.61555
137.46205
104.72383
82.318504
66.614495
55.282952
46.882494
40.500343
35.546993
31.630609
28.483591
25.911395
23.787
22.012784
20.516223
19.242615
18.150103
17.206211
16.385431
15.667514
15.036231
14.478483
13.98363
13.542992
13.149462
12.797196
12.481368
12.197965
11.943619
11.715467
11.511925
11.330044
11.167914
11.023786
10.89604
10.783179
10.683803
10.596593
10.520313
10.453701
10.395675
10.345242
10.301494
10.263951
10.23155
10.203646
10.179668
10.159113
10.141542
10.126572
10.113871
10.103151
10.094164
10.086677
10.078958
10.070966
10.062681
10.054083
10.045149
10.035857
10.026182
10.016099
10.007451
10.00057
9.9952435
9.9912866
9.9885352
9.9868454
9.9861145
9.9862661
9.9871656
9.988649
9.9908107
9.9938896
9.9973891
1219.9745
1201.0175
585.142
362.9145
246.20995
174.73385
128.51368
97.986512
77.29009
62.814658
52.357531
44.586193
38.676293
34.081791
30.441306
27.508444
25.11093
23.125696
21.463127
20.056811
18.856706
17.824497
16.930392
16.150954
15.46757
14.865303
14.332071
13.858047
13.435199
13.056942
12.717856
12.413463
12.140041
11.894465
11.674082
11.47652
11.299767
11.142013
11.001594
10.876973
10.766721
10.66949
10.583998
10.509623
10.444652
10.388045
10.338846
10.296185
10.259271
10.227398
10.199934
10.17632
10.156065
10.138736
10.123957
10.1114
10.100781
10.091854
10.084406
10.076848
10.069031
10.06094
10.052556
10.043862
10.034837
10.025462
10.015715
10.007317
10.00065
9.9955024
9.9916887
9.9890453
9.9874332
9.9867485
9.9868988
9.9877523
9.9891948
9.9913083
9.9941857
9.9973807
1161.4378
1122.4447
557.95934
337.72885
224.35738
157.56084
115.94962
88.847347
70.636703
57.92768
48.738652
41.882339
36.621518
32.497444
29.204137
26.53149
24.331734
22.498683
20.954557
19.641357
18.515131
17.541919
16.69526
15.954377
15.302578
14.726382
14.214815
13.758893
13.35124
12.985776
12.657476
12.362174
12.096389
11.85719
11.642876
11.450484
11.278126
11.124104
10.986857
10.864943
10.757007
10.661761
10.577981
10.504515
10.440279
10.384268
10.33555
10.293277
10.256676
10.225055
10.197793
10.174342
10.154215
10.136986
10.122283
10.109781
10.099198
10.090289
10.082843
10.075448
10.067807
10.059903
10.051721
10.043244
10.034455
10.025337
10.015871
10.007592
10.001025
9.9959547
9.9921949
9.9895824
9.9879801
9.987278
9.9873729
9.9881487
9.9895278
9.991536
9.994144
9.9970443
1122.4835
1163.6575
569.41836
341.41249
224.95871
156.94188
115.06262
88.174844
70.217067
57.698258
48.632461
41.852544
36.645731
32.557525
29.28631
26.625719
24.430898
22.597875
21.050514
19.73202
18.599276
17.619181
16.765872
16.018695
15.361069
14.779543
14.263137
13.802846
13.391263
13.022274
12.690824
12.392716
12.124447
11.883067
11.666075
11.471304
11.296734
11.140625
11.001422
10.877688
10.768068
10.671273
10.586083
10.511344
10.44597
10.388949
10.339343
10.296294
10.259021
10.22682
10.199062
10.175186
10.154698
10.137163
10.122199
10.109476
10.098703
10.08963
10.082039
10.074834
10.06739
10.059692
10.051724
10.04347
10.034916
10.026042
10.016834
10.008429
10.001765
9.9966198
9.992798
9.990132
9.98848
9.9877227
9.9877504
9.9884605
9.989785
9.9916979
9.9941284
9.9969095
1155.748
1229.7907
590.78859
356.76421
234.48912
163.59294
119.66373
91.486039
72.65905
59.551433
50.067848
42.982875
37.547102
33.28348
29.875847
27.108121
24.828535
22.928077
21.32683
19.965141
18.797718
17.789616
16.913429
16.147395
15.474084
14.879398
14.351855
13.882052
13.462255
13.086093
12.748296
12.444493
12.171041
11.924885
11.703441
11.504483
11.326139
11.16664
11.024379
10.897883
10.785763
10.686712
10.599495
10.522941
10.455952
10.3975
10.346636
10.302484
10.264251
10.231218
10.202743
10.178251
10.157238
10.139258
10.123918
10.11088
10.099844
10.090555
10.082788
10.075803
10.068584
10.061115
10.053383
10.045373
10.037068
10.028453
10.019511
10.010708
10.003705
9.9982662
9.9941916
9.9913068
9.9894631
9.9885328
9.9884029
9.9889763
9.9901787
9.9919503
9.9942182
9.9969059
30577.297
33453.14
19128.616
13170.895
9496.5606
6890.0572
5013.7251
3669.9421
2706.5067
2013.0217
1505.4833
1133.942
856.70475
653.83925
496.21317
378.82836
286.82218
217.88662
166.81562
129.29577
101.4369
80.955645
65.808822
54.583739
46.212669
39.879767
35.031327
31.239367
28.224876
25.764702
23.707527
21.95924
20.453026
19.141535
17.990673
16.9755
16.077223
15.281209
14.575742
13.951327
13.399768
12.91381
12.487134
12.114051
11.789325
11.508117
11.265971
11.058973
10.883379
10.736043
10.614706
10.51597
10.435567
10.371296
10.321619
10.285141
10.2597
10.241821
10.227978
10.216299
10.204257
10.192415
10.177201
10.162296
10.140152
10.121569
10.090593
10.071135
10.035671
10.021339
9.9946988
9.9890717
9.9639093
9.9715268
9.9449265
9.973544
9.9466244
9.9944524
9.9586128
9.9952892
33687.206
28678.226
21791.037
16406.686
12080.266
8749.7398
6317.6072
4570.4903
3325.9418
2437.0252
1797.0524
1331.6436
991.07666
739.98985
554.31693
416.65206
314.45051
238.72013
182.59342
141.0458
110.171
87.375552
70.507706
58.046299
48.784933
41.805284
36.486802
32.350837
29.091663
26.458891
24.269843
22.418644
20.831381
19.454893
18.251123
17.192325
16.257742
15.431306
14.700231
14.054246
13.484495
12.983219
12.543658
12.159795
11.826077
11.537416
11.289087
11.07701
10.897232
10.74638
10.62228
10.520591
10.437744
10.371466
10.320462
10.283619
10.258115
10.240412
10.22685
10.215519
10.20378
10.192281
10.177302
10.162715
10.140682
10.122341
10.091338
10.071908
10.036787
10.022663
9.9956484
9.9903114
9.9648777
9.972663
9.9460542
9.9744295
9.9479234
9.9955162
9.9598336
9.9967319
37103.575
20381.261
13027.321
8176.9533
4428.2263
2104.9646
956.35621
464.5586
268.33788
184.85858
145.16101
120.59144
104.2068
90.951304
80.590207
72.150699
64.709298
58.782468
53.233357
48.772407
44.513045
41.010022
37.713255
34.936243
32.390855
30.060157
27.973141
26.058085
24.344999
22.780996
21.354333
20.068272
18.910764
17.868515
16.930573
16.087362
15.330425
14.652074
14.045562
13.50512
13.024936
12.599761
12.224949
11.896066
11.60896
11.359674
11.144459
10.960249
10.80373
10.672313
10.564448
10.474962
10.401745
10.343302
10.299716
10.269121
10.248241
10.233671
10.221856
10.21165
10.200247
10.189232
10.173933
10.159788
10.136922
10.119455
10.087213
10.06962
10.033661
10.022153
9.9939155
9.9907775
9.9639687
9.9738887
9.9456963
9.976224
9.9480731
9.9973823
9.9602986
9.9982632
34346.821
23824.896
13772.096
7449.2089
3311.7565
1267.9791
506.78514
266.50585
189.46048
151.78621
129.84902
111.42046
98.374728
86.458406
77.255861
69.559058
62.52972
57.115155
51.726093
47.580678
43.391249
40.123349
36.833256
34.25246
31.673819
29.494516
27.404826
25.568067
23.876871
22.351712
20.977594
19.739434
18.624264
17.619665
16.715
15.901104
15.169933
14.5142
13.927582
13.404463
12.939342
12.527288
12.163859
11.844853
11.566262
11.324288
11.115318
10.936453
10.78446
10.656893
10.551634
10.463822
10.392
10.335317
10.293645
10.264599
10.244883
10.231143
10.219887
10.210071
10.198933
10.188106
10.172941
10.158874
10.136089
10.118637
10.086526
10.069281
10.033801
10.022954
9.9943274
9.9919476
9.9646327
9.9752912
9.9466588
9.9777381
9.9491194
9.9991277
9.9613262
9.9998645
36381.3
23340.143
13253.243
6938.1531
2986.1663
1104.4029
448.40173
248.42473
182.39876
146.90697
125.85031
107.85339
95.329993
83.84697
75.381004
67.576436
61.212035
55.479304
50.637566
46.297838
42.531684
39.125894
36.144441
33.429533
31.015887
28.817614
26.835718
25.034429
23.409033
21.943116
20.622112
19.431012
18.356706
17.387745
16.514179
15.727471
15.020105
14.385244
13.816946
13.309849
12.858719
12.458903
12.106146
11.796403
11.525825
11.290746
11.087682
10.913882
10.766186
10.642279
10.53926
10.452981
10.382488
10.327957
10.28813
10.260527
10.241906
10.228907
10.218182
10.208678
10.197816
10.187088
10.172112
10.158003
10.135412
10.117801
10.086042
10.068753
10.033897
10.02292
9.9947341
9.9920937
9.965383
9.9757421
9.9475957
9.9786186
9.950142
10.000546
9.962336
10.001308
36967.409
22937.023
12791.604
6335.8184
2472.1514
845.6056
361.77288
221.9263
173.43532
141.14465
122.06468
104.32687
92.482714
81.215207
73.199783
65.579082
59.489098
53.921182
49.277666
45.083523
41.447003
38.186334
35.293802
32.692247
30.353461
28.238866
26.319018
24.578477
23.007034
21.589616
20.31169
19.158646
18.118097
17.179077
16.332094
15.569006
14.882609
14.266365
13.714569
13.222003
12.783659
12.395096
12.052199
11.751055
11.48794
11.259305
11.06177
10.892727
10.74907
10.6286
10.527373
10.442499
10.373873
10.321409
10.283288
10.257008
10.239378
10.227042
10.216776
10.207537
10.1969
10.186244
10.171415
10.157252
10.134818
10.117049
10.085679
10.068395
10.034143
10.023395
9.9953163
9.9929487
9.9661721
9.9766878
9.9485764
9.9796834
9.9511901
10.002037
9.9633572
10.002765
37936.475
22592.888
12281.182
5766.3268
2128.3482
708.90932
323.06027
211.09771
168.62351
138.05476
119.39932
101.97617
90.401029
79.248838
71.50392
63.989004
58.115457
52.678101
48.186471
44.099795
40.575109
37.396897
34.590659
32.05753
29.787396
27.730852
25.86581
24.174829
22.648906
21.272654
20.031787
18.911936
17.901085
16.988618
16.165345
15.423431
14.755922
14.156529
13.619723
13.140409
12.713794
12.335598
12.001819
11.708656
11.452488
11.229869
11.037509
10.872929
10.733066
10.615524
10.51589
10.432538
10.366188
10.315659
10.2791
10.254021
10.237279
10.225522
10.21565
10.206622
10.196168
10.185545
10.170839
10.156591
10.134307
10.116349
10.085411
10.068098
10.03435
10.023465
9.995778
9.9930162
9.9669909
9.977389
9.9495497
9.9806464
9.952241
10.003487
9.9643786
10.004198
38729.075
22144.706
11709.586
5190.2236
1787.0529