/*--------------------------------*- C++ -*----------------------------------*\
  =========                 |
  \\      /  F ield         | OpenFOAM: The Open Source CFD Toolbox
   \\    /   O peration     | Website:  https://openfoam.org
    \\  /    A nd           | Version:  6
     \\/     M anipulation  |
\*---------------------------------------------------------------------------*/
FoamFile
{
    version     2.0;
    format      ascii;
    class       volScalarField;
    location    "500";
    object      p;
}
// * * * * * * * * * * * * * * * * * * * * * * * * * * * * * * * * * * * * * //

dimensions      [1 -1 -2 0 0 0 0];

internalField   nonuniform List<scalar> 
16000
(
98984.895
99043.795
99047.86
99104.684
99116.979
99168.914
99190.481
99238.011
99267.514
99312.432
99347.942
99392.015
99431.868
99476.34
99519.354
99564.902
99610.286
99657.151
99704.348
99752.471
99801.023
99850.154
99899.612
99949.367
99999.248
100049.15
100098.92
100148.42
100197.49
100245.98
100293.73
100340.57
100386.35
100430.91
100474.08
100515.73
100555.7
100593.87
100630.1
100664.29
100696.33
100726.15
100753.66
100778.8
100801.55
100821.87
100839.74
100855.17
100868.17
100878.76
100886.98
100892.87
100896.49
100897.91
100897.17
100894.36
100889.56
100882.83
100874.25
100863.92
100851.9
100838.3
100823.11
100806.58
100788.44
100769.4
100748.27
100727.44
100702.56
100681.72
100650.09
100634.43
100587.97
100593.24
100504.26
100570.29
100374.12
100596.55
100182.51
100650.14
99032.068
99095.188
99099.222
99160.604
99173.214
99229.374
99251.982
99303.211
99334.467
99382.64
99420.409
99467.458
99509.852
99557.143
99602.801
99651.061
99699.069
99748.524
99798.232
99848.777
99899.642
99950.956
100002.45
100054.07
100105.63
100157
100208
100258.49
100308.28
100357.21
100405.1
100451.78
100497.09
100540.85
100582.91
100623.12
100661.34
100697.46
100731.35
100762.93
100792.12
100818.85
100843.08
100864.78
100883.95
100900.58
100914.69
100926.31
100935.49
100942.29
100946.76
100948.98
100949.02
100946.96
100942.9
100936.9
100929.07
100919.48
100908.23
100895.38
100881.03
100865.25
100848.1
100829.69
100809.98
100789.23
100767.06
100744.35
100719.44
100695.66
100666.56
100644.45
100605.5
100596.06
100527.74
100563.27
100406.46
100578.85
100213.23
100637.31
99100.332
99168.606
99172.653
99238.975
99252.323
99312.786
99336.969
99391.884
99425.38
99476.809
99517.221
99567.284
99612.489
99662.657
99711.133
99762.152
99812.871
99864.93
99917.154
99970.073
100023.18
100076.55
100129.91
100183.18
100236.15
100288.67
100340.54
100391.59
100441.62
100490.46
100537.91
100583.8
100627.94
100670.19
100710.37
100748.36
100784.03
100817.26
100847.97
100876.09
100901.57
100924.38
100944.51
100961.95
100976.74
100988.92
100998.53
101005.65
101010.35
101012.72
101012.85
101010.83
101006.76
101000.75
100992.9
100983.3
100972.05
100959.25
100944.97
100929.31
100912.35
100894.15
100874.78
100854.31
100832.76
100810.25
100786.65
100762.3
100736.56
100710.77
100682.12
100656.33
100621.4
100602.38
100547
100561.85
100433.07
100565.68
100240.38
100626.99
99191.41
99265.245
99269.314
99341.107
99355.279
99420.51
99446.469
99505.444
99541.47
99596.468
99639.834
99693.19
99741.497
99794.79
99846.325
99900.303
99953.909
100008.7
100063.53
100118.87
100174.2
100229.56
100284.66
100339.39
100393.51
100446.85
100499.18
100550.32
100600.06
100648.19
100694.53
100738.88
100781.08
100820.95
100858.37
100893.19
100925.33
100954.69
100981.22
101004.87
101025.63
101043.51
101058.54
101070.77
101080.25
101087.07
101091.33
101093.12
101092.55
101089.76
101084.85
101077.95
101069.17
101058.65
101046.49
101032.81
101017.72
101001.3
100983.65
100964.85
100944.99
100924.12
100902.31
100879.61
100856.05
100831.69
100806.49
100780.59
100753.73
100726.42
100697.5
100669.39
100636.41
100611.6
100564.14
100563.99
100457.1
100558.38
100267.49
100627.61
99304.593
99384.716
99388.973
99466.959
99482.261
99552.808
99580.974
99644.414
99683.438
99742.335
99789.085
99846.022
99897.781
99954.439
100009.29
100066.4
100123.04
100180.65
100238.12
100295.83
100353.29
100410.47
100467.07
100522.94
100577.81
100631.49
100683.74
100734.34
100783.07
100829.73
100874.1
100916.01
100955.29
100991.8
101025.4
101056.01
101083.53
101107.93
101129.19
101147.3
101162.3
101174.25
101183.2
101189.27
101192.56
101193.19
101191.3
101187.03
101180.53
101171.94
101161.42
101149.11
101135.16
101119.69
101102.84
101084.73
101065.46
101045.15
101023.87
101001.71
100978.75
100955.03
100930.62
100905.56
100879.87
100853.58
100826.69
100799.23
100771.09
100742.45
100712.81
100683.12
100650.85
100622.23
100580.22
100568.44
100479.1
100555.32
100293.16
100631.18
99442.111
99529.476
99534.044
99618.936
99635.599
99711.966
99742.731
99810.988
99853.448
99916.533
99967.063
100027.84
100083.36
100143.6
100201.97
100262.35
100322.13
100382.58
100442.66
100502.65
100562.05
100620.78
100678.53
100735.09
100790.19
100843.59
100895.04
100944.3
100991.14
101035.36
101076.74
101115.13
101150.36
101182.32
101210.91
101236.07
101257.77
101276
101290.8
101302.21
101310.33
101315.26
101317.13
101316.08
101312.28
101305.89
101297.09
101286.06
101272.98
101258.02
101241.37
101223.19
101203.64
101182.86
101160.99
101138.15
101114.47
101090.03
101064.93
101039.25
101013.04
100986.36
100959.25
100931.74
100903.85
100875.6
100846.96
100817.95
100788.5
100758.64
100728.17
100697.32
100665.16
100634.1
100595.73
100575.15
100500.28
100555.43
100319.12
100638.29
99605.842
99701.624
99706.416
99798.912
99817.12
99899.742
99933.504
100006.88
100053.22
100120.76
100175.47
100240.32
100299.91
100363.92
100426
100489.75
100552.7
100615.96
100678.52
100740.57
100801.61
100861.49
100919.87
100976.51
101031.1
101083.39
101133.1
101180
101223.84
101264.42
101301.56
101335.11
101364.96
101391
101413.21
101431.56
101446.08
101456.84
101463.91
101467.42
101467.51
101464.36
101458.14
101449.06
101437.33
101423.16
101406.76
101388.37
101368.17
101346.38
101323.19
101298.79
101273.33
101246.98
101219.87
101192.13
101163.88
101135.19
101106.17
101076.87
101047.35
101017.65
100987.8
100957.83
100927.73
100897.5
100867.13
100836.6
100805.85
100774.86
100743.5
100711.78
100679.4
100646.84
100610.99
100583.99
100521.14
100557.51
100345.22
100648.53
99796.191
99901.463
99906.425
100007.42
100027.56
100117.02
100154.37
100233.29
100284.12
100356.48
100415.87
100485.13
100549.14
100617.15
100683.12
100750.33
100816.45
100882.4
100947.22
101010.99
101073.2
101133.63
101191.92
101247.79
101300.9
101350.99
101397.77
101440.99
101480.45
101515.95
101547.34
101574.51
101597.4
101615.97
101630.25
101640.28
101646.17
101648.05
101646.08
101640.45
101631.38
101619.09
101603.84
101585.88
101565.46
101542.84
101518.28
101492.02
101464.29
101435.31
101405.3
101374.43
101342.88
101310.81
101278.36
101245.63
101212.74
101179.78
101146.81
101113.9
101081.07
101048.37
101015.81
100983.4
100951.13
100918.98
100886.92
100854.93
100822.94
100790.91
100758.72
100726.33
100693.61
100660.26
100626.06
100594.61
100541.94
100561.62
100372.83
100661.3
100013.34
100129.52
100134.92
100245.54
100268.2
100365.24
100406.96
100491.96
100548.03
100625.66
100690.3
100764.32
100833.11
100905.34
100975.34
101046
101115.17
101183.55
101250.23
101315.17
101377.84
101437.96
101495.15
101549.07
101599.41
101645.87
101688.18
101726.11
101759.47
101788.13
101811.97
101830.97
101845.12
101854.47
101859.12
101859.22
101854.95
101846.53
101834.2
101818.22
101798.9
101776.51
101751.38
101723.8
101694.07
101662.49
101629.33
101594.85
101559.32
101522.95
101485.96
101448.54
101410.85
101373.04
101335.24
101297.56
101260.1
101222.92
101186.08
101149.63
101113.58
101077.97
101042.79
101008.03
100973.68
100939.7
100906.06
100872.7
100839.58
100806.61
100773.7
100740.79
100707.75
100674.12
100640.92
100606.62
100562.64
100567.53
100402.1
100675.35
100259.32
100388.1
100394.16
100515.61
100541.47
100646.85
100693.79
100785.42
100847.49
100930.84
101001.3
101080.41
101154.29
101230.85
101304.89
101378.85
101450.75
101521.08
101588.94
101654.19
101716.27
101774.86
101829.54
101879.97
101925.83
101966.82
102002.72
102033.34
102058.55
102078.27
102092.5
102101.28
102104.7
102102.93
102096.17
102084.66
102068.69
102048.56
102024.6
101997.18
101966.64
101933.34
101897.63
101859.87
101820.38
101779.48
101737.47
101694.62
101651.18
101607.38
101563.43
101519.5
101475.75
101432.32
101389.32
101346.83
101304.94
101263.7
101223.16
101183.33
101144.23
101105.86
101068.21
101031.26
100994.97
100959.3
100924.21
100889.63
100855.5
100821.74
100788.25
100754.98
100721.71
100688.19
100655.59
100619.87
100583.11
100575.23
100433.09
100689.66
100536.29
100679.53
100686.45
100820.04
100849.88
100964.39
101017.55
101116.4
101185.32
101274.87
101351.67
101436.18
101515.33
101596.24
101674.13
101750.99
101825.02
101896.46
101964.44
102028.71
102088.71
102144.05
102194.33
102239.2
102278.36
102311.57
102338.67
102359.55
102374.16
102382.55
102384.82
102381.13
102371.71
102356.83
102336.83
102312.06
102282.91
102249.79
102213.12
102173.31
102130.78
102085.95
102039.21
101990.93
101941.45
101891.12
101840.21
101789.02
101737.77
101686.68
101635.95
101585.73
101536.15
101487.34
101439.38
101392.35
101346.29
101301.25
101257.25
101214.29
101172.37
101131.46
101091.56
101052.61
101014.58
100977.41
100941.04
100905.41
100870.44
100836.05
100802.15
100768.67
100735.34
100702.22
100669.97
100634.01
100603.01
100584.39
100464.51
100703.07
100845.57
101005.73
101014.01
101161.3
101196.26
101320.83
101381.44
101488.17
101564.85
101661.08
101744.73
101834.81
101919.25
102004.24
102085.48
102164.48
102239.58
102310.8
102377.3
102438.73
102494.52
102544.28
102587.62
102624.24
102653.91
102676.49
102691.91
102700.19
102701.42
102695.8
102683.57
102665.05
102640.62
102610.69
102575.72
102536.19
102492.59
102445.41
102395.16
102342.3
102287.31
102230.62
102172.65
102113.78
102054.36
101994.7
101935.11
101875.81
101817.05
101759.01
101701.84
101645.69
101590.66
101536.85
101484.31
101433.09
101383.22
101334.72
101287.58
101241.8
101197.35
101154.2
101112.3
101071.61
101032.07
100993.62
100956.19
100919.72
100884.11
100849.28
100815.15
100781.63
100748.45
100715.94
100683.94
100648.71
100622.09
100594.56
100495.76
100715.78
101190.77
101370.5
101380.72
101543.35
101584.72
101720.26
101789.63
101904.86
101990.17
102093.45
102184.2
102279.79
102369.17
102457.6
102541.17
102620.97
102695.44
102764.41
102827.08
102883.01
102931.69
102972.76
103005.89
103030.89
103047.66
103056.2
103056.6
103049.06
103033.87
103011.41
102982.09
102946.42
102904.93
102858.18
102806.76
102751.25
102692.24
102630.29
102565.96
102499.75
102432.15
102363.62
102294.55
102225.33
102156.29
102087.71
102019.85
101952.94
101887.15
101822.66
101759.57
101698.01
101638.03
101579.7
101523.05
101468.1
101414.86
101363.31
101313.44
101265.21
101218.58
101173.51
101129.93
101087.79
101047.02
101007.55
100969.3
100932.21
100896.18
100861.12
100826.97
100793.59
100760.8
100729.03
100697.34
100663.65
100640.29
100605.71
100526.37
100727.89
101575.31
101777.75
101790.66
101970.43
102019.8
102167.23
102246.79
102371.1
102465.75
102576.27
102674.08
102774.69
102868.14
102958.69
103042.84
103121.27
103192.5
103256.25
103311.74
103358.57
103396.29
103424.65
103443.49
103452.78
103452.62
103443.23
103424.94
103398.18
103363.45
103321.35
103272.52
103217.61
103157.33
103092.37
103023.43
102951.18
102876.26
102799.29
102720.82
102641.38
102561.46
102481.47
102401.81
102322.8
102244.74
102167.88
102092.44
102018.58
101946.46
101876.18
101807.83
101741.48
101677.17
101614.91
101554.71
101496.57
101440.45
101386.34
101334.18
101283.92
101235.51
101188.88
101143.96
101100.69
101058.99
101018.79
100979.99
100942.53
100906.31
100871.25
100837.28
100804.24
100772.08
100741.17
100709.99
100678.47
100657.33
100617.56
100556.07
100738.97
102003.29
102232.19
102248.89
102447.68
102506.97
102667.12
102758.43
102892.3
102996.7
103114.23
103218.48
103322.92
103418.67
103509.06
103590.94
103664.64
103728.81
103783.12
103826.89
103859.82
103881.67
103892.39
103892.05
103880.92
103859.37
103827.91
103787.15
103737.81
103680.63
103616.45
103546.07
103470.36
103390.11
103306.15
103219.22
103130.05
103039.3
102947.58
102855.44
102763.38
102671.83
102581.17
102491.74
102403.82
102317.63
102233.38
102151.22
102071.28
101993.65
101918.4
101845.56
101775.17
101707.21
101641.69
101578.57
101517.81
101459.38
101403.21
101349.24
101297.4
101247.63
101199.84
101153.96
101109.91
101067.6
101026.95
100987.89
100950.32
100914.15
100879.33
100845.76
100813.28
100781.97
100751.98
100721.59
100692.65
100672.76
100629.86
100584.91
100748.07
102479.92
102739.61
102761.55
102981.12
103052.59
103226.16
103330.7
103474.45
103588.45
103711.96
103821.01
103926.94
104021.94
104108.44
104183.69
104247.74
104299.49
104338.62
104364.74
104377.78
104377.8
104365.1
104340.13
104303.5
104255.96
104198.38
104131.68
104056.85
103974.9
103886.84
103793.66
103696.33
103595.73
103492.72
103388.08
103282.51
103176.65
103071.06
102966.24
102862.62
102760.56
102660.38
102562.33
102466.62
102373.42
102282.86
102195.04
102110.01
102027.82
101948.49
101872.02
101798.37
101727.53
101659.45
101594.07
101531.32
101471.14
101413.45
101358.18
101305.23
101254.54
101206
101159.53
101115.04
101072.45
101031.67
100992.62
100955.21
100919.36
100885
100852.03
100820.34
100790.08
100761.09
100731.85
100705.71
100686.32
100642.46
100612.47
100754.73
103010.68
103306.26
103335.68
103578.02
103665.1
103852.87
103970.92
104123.22
104245.8
104373.12
104483.83
104587.26
104676.6
104753.54
104815.8
104863.36
104895.45
104912.06
104913.2
104899.22
104870.67
104828.31
104773.08
104706.04
104628.34
104541.2
104445.87
104343.56
104235.5
104122.82
104006.6
103887.83
103767.44
103646.24
103524.96
103404.23
103284.62
103166.6
103050.58
102936.88
102825.79
102717.53
102612.26
102510.11
102411.18
102315.53
102223.18
102134.16
102048.43
101965.98
101886.75
101810.7
101737.74
101667.82
101600.85
101536.74
101475.4
101416.74
101360.66
101307.08
101255.89
101207
101160.32
101115.75
101073.21
101032.6
100993.84
100956.86
100921.56
100887.89
100855.73
100825.02
100795.96
100768.06
100740.35
100717.01
100697.39
100654.54
100638.01
100758.96
103603.42
103941.35
103982.34
104248.47
104353.68
104554.43
104685.51
104844.99
104972.91
105099.86
105206.81
105301.19
105377.3
105436.39
105476.79
105498.73
105502.05
105487.25
105454.98
105406.24
105342.19
105264.17
105173.65
105072.15
104961.21
104842.36
104717.04
104586.67
104452.51
104315.76
104177.48
104038.62
103899.99
103762.34
103626.27
103492.3
103360.87
103232.33
103106.97
102985.01
102866.62
102751.92
102640.98
102533.86
102430.58
102331.12
102235.46
102143.54
102055.32
101970.71
101889.63
101811.99
101737.7
101666.65
101598.75
101533.89
101471.95
101412.84
101356.46
101302.69
101251.43
101202.59
101156.05
101111.74
101069.56
101029.41
100991.22
100954.9
100920.39
100887.61
100856.45
100826.93
100799.16
100772.46
100746.63
100725.81
100705.43
100665.45
100660.35
100760.39
104280.51
104665.26
104721.2
105008.19
105127.61
105337.33
105480.89
105643.98
105771.78
105890.81
105984.95
106060.08
106111.92
106141.69
106148.7
106133.8
106097.74
106041.83
105967.56
105876.69
105771.08
105652.66
105523.39
105385.14
105239.73
105088.85
104934.03
104776.68
104618.04
104459.2
104301.09
104144.52
103990.15
103838.56
103690.19
103545.42
103404.51
103267.69
103135.12
103006.89
102883.07
102763.68
102648.7
102538.12
102431.87
102329.9
102232.1
102138.4
102048.69
101962.85
101880.78
101802.36
101727.46
101655.97
101587.77
101522.73
101460.74
101401.68
101345.45
101291.92
101240.98
101192.55
101146.51
101102.76
101061.23
101021.81
100984.43
100949.01
100915.49
100883.78
100853.8
100825.61
100799.21
100773.86
100750.07
100731.26
100710.25
100674.88
100678.55
100758.66
105048.09
105477.52
105544.52
105847.18
105993.69
106223.09
106367.18
106522.76
106638.62
106736.45
106803.71
106845.02
106857.91
106844.12
106804.3
106740.34
106654.16
106548.08
106424.52
106286
106134.99
105973.88
105804.91
105630.15
105451.44
105270.45
105088.61
104907.17
104727.17
104549.49
104374.86
104203.86
104036.95
103874.48
103716.73
103563.89
103416.08
103273.38
103135.8
103003.36
102876
102753.65
102636.23
102523.64
102415.78
102312.52
102213.73
102119.27
102029.02
101942.84
101860.58
101782.1
101707.28
101635.97
101568.04
101503.36
101441.81
101383.26
101327.59
101274.68
101224.44
101176.74
101131.5
101088.6
101047.98
101009.53
100973.18
100938.86
100906.51
100876.04
100847.39
100820.65
100795.69
100771.84
100750.12
100733.07
100712.62
100681.92
100691.32
100753.24
105907.26
106382.15
106476.2
106816.38
106971.19
107187.59
107329.69
107463.19
107551.95
107611.53
107633.89
107623.58
107580.48
107507.64
107407.48
107283.26
107138.16
106975.53
106798.56
106610.3
106413.56
106210.87
106004.46
105796.3
105588.03
105381.05
105176.53
104975.39
104778.39
104586.11
104399
104217.39
104041.51
103871.5
103707.45
103549.38
103397.26
103251.04
103110.65
102975.96
102846.86
102723.2
102604.83
102491.6
102383.35
102279.93
102181.17
102086.91
101996.98
101911.23
101829.51
101751.65
101677.5
101606.93
101539.8
101475.95
101415.27
101357.62
101302.89
101250.96
101201.72
101155.05
101110.87
101069.08
101029.59
100992.31
100957.18
100924.13
100893.09
100863.99
100836.8
100811.59
100788.13
100765.92
100746.32
100731.05
100711.51
100684.24
100698.4
100745.33
106897.21
107429.64
107550.86
107885.63
108046.41
108241.77
108356.65
108445.88
108481.98
108478.97
108433.17
108350.54
108233.72
108087.56
107916.29
107724.43
107516.18
107295.47
107065.85
106830.42
106591.87
106352.49
106114.17
105878.44
105646.55
105419.46
105197.92
104982.49
104773.56
104571.4
104376.16
104187.94
104006.73
103832.49
103665.14
103504.55
103350.59
103203.08
103061.86
102926.75
102797.54
102674.03
102556.05
102443.39
102335.86
102233.28
102135.45
102042.21
101953.36
101868.73
101788.17
101711.5
101638.56
101569.22
101503.31
101440.71
101381.28
101324.89
101271.42
101220.75
101172.78
101127.4
101084.51
101044.02
101005.85
100969.92
100936.15
100904.49
100874.87
100847.23
100821.56
100797.91
100775.98
100755.47
100737.93
100724.04
100705.48
100682.54
100698.89
100733.23
108055.36
108620.2
108756.93
109071.09
109207.19
109349.24
109403.41
109415.65
109368.45
109275.84
109139.18
108966.47
108763.12
108535.58
108289.37
108029.68
107760.96
107487.07
107211.23
106936.05
106663.67
106395.72
106133.49
105877.92
105629.7
105389.3
105157.02
104933.02
104717.36
104510.01
104310.88
104119.84
103936.71
103761.28
103593.36
103432.7
103279.06
103132.21
102991.93
102857.96
102730.05
102607.97
102491.52
102380.46
102274.59
102173.7
102077.58
101986.05
101898.91
101816
101737.13
101662.13
101590.86
101523.15
101458.85
101397.84
101339.98
101285.14
101233.2
101184.04
101137.57
101093.67
101052.26
101013.24
100976.54
100942.07
100909.78
100879.61
100851.49
100825.36
100801.26
100779.15
100758.74
100739.99
100724.33
100711.49
100694.34
100676.26
100692.34
100715.22
109381.47
109934.39
110054.29
110309.32
110383.21
110431.66
110386.2
110286.79
110127.01
109922.6
109679.79
109408.5
109115.97
108809.27
108494.03
108175.04
107856.08
107540.13
107229.48
106925.82
106630.36
106343.96
106067.15
105800.26
105543.42
105296.62
105059.78
104832.72
104615.21
104407.02
104207.84
104017.38
103835.35
103661.42
103495.3
103336.68
103185.25
103040.76
102902.91
102771.42
102646.01
102526.45
102412.51
102303.93
102200.51
102102.03
102008.28
101919.07
101834.19
101753.48
101676.76
101603.86
101534.62
101468.9
101406.55
101347.42
101291.4
101238.35
101188.17
101140.73
101095.94
101053.7
101013.91
100976.49
100941.37
100908.48
100877.74
100849.12
100822.53
100797.95
100775.39
100754.8
100735.9
100718.87
100704.87
100692.93
100677.56
100664
100678.23
100691.77
110764.24
111301.46
111377.55
111519.47
111479.15
111383.29
111195.63
110953.18
110660.62
110334.97
109985.46
109622.05
109251.75
108880.46
108512.47
108151.02
107798.42
107456.22
107125.44
106806.69
106500.24
106206.15
105924.31
105654.5
105396.41
105149.68
104913.94
104688.77
104473.77
104268.52
104072.62
103885.67
103707.29
103537.12
103374.8
103219.97
103072.32
102931.56
102797.37
102669.44
102547.52
102431.35
102320.7
102215.32
102114.99
102019.5
101928.63
101842.21
101760.03
101681.91
101607.7
101537.22
101470.33
101406.86
101346.69
101289.68
101235.71
101184.65
101136.39
101090.82
101047.85
101007.38
100969.32
100933.6
100900.13
100868.85
100839.71
100812.64
100787.6
100764.54
100743.49
100724.35
100706.92
100691.49
100678.87
100667.75
100654.37
100644.59
100656.02
100662.46
112291.67
112678.64
112640.55
112573.62
112351.35
112064.46
111708.81
111315.97
110896.7
110465.59
110030.94
109599.88
109177
108765.6
108367.71
107984.54
107616.71
107264.4
106927.49
106605.68
106298.55
106005.59
105726.25
105459.94
105206.09
104964.12
104733.48
104513.63
104304.06
104104.29
103913.84
103732.28
103559.19
103394.19
103236.89
103086.95
102944.04
102807.86
102678.08
102554.39
102436.56
102324.34
102217.47
102115.73
102018.91
101926.78
101839.15
101755.82
101676.63
101601.39
101529.93
101462.11
101397.77
101336.77
101278.97
101224.25
101172.48
101123.55
101077.35
101033.78
100992.74
100954.13
100917.89
100883.92
100852.17
100822.55
100795.03
100769.53
100746.02
100724.47
100704.87
100687.11
100671.09
100657.14
100645.7
100635.38
100623.98
100617.17
100625.62
100627.11
113711.52
113707.17
113467.19
113134.77
112708.42
112238.77
111740.49
111234.46
110730.39
110236.82
109758.18
109297.35
108855.73
108433.95
108031.96
107649.37
107285.5
106939.61
106610.83
106298.34
106001.28
105718.81
105450.11
105194.42
104951.03
104719.3
104498.61
104288.38
104088.09
103897.23
103715.34
103541.98
103376.74
103219.23
103069.08
102925.96
102789.56
102659.57
102535.65
102417.57
102305.07
102197.93
102095.9
101998.78
101906.34
101818.4
101734.77
101655.26
101579.71
101507.94
101439.82
101375.17
101313.88
101255.79
101200.78
101148.73
101099.53
101053.05
101009.21
100967.91
100929.04
100892.53
100858.29
100826.25
100796.34
100768.5
100742.68
100718.82
100696.87
100676.83
100658.65
100642.24
100627.56
100614.91
100604.43
100594.86
100585.21
100580.72
100587.04
100584.17
114251.6
113936.4
113492.95
112972.04
112417.51
111855.72
111300.58
110761.78
110243.59
109748.54
109277.3
108829.83
108405.36
108002.81
107620.99
107258.71
106914.81
106588.17
106277.74
105982.53
105701.66
105434.36
105179.9
104937.55
104706.67
104486.63
104276.89
104076.9
103886.19
103704.29
103530.78
103365.26
103207.35
103056.7
102912.97
102775.87
102645.12
102520.42
102401.53
102288.2
102180.23
102077.36
101979.41
101886.15
101797.39
101712.96
101632.67
101556.35
101483.85
101415
101349.65
101287.68
101228.94
101173.3
101120.65
101070.86
101023.82
100979.43
100937.6
100898.21
100861.2
100826.46
100793.93
100763.53
100735.2
100708.87
100684.48
100662
100641.37
100622.56
100605.55
100590.25
100576.67
100564.97
100555.16
100546.45
100538.57
100534.55
100536.74
100534.4
113013.97
112739.67
112333.89
111847.18
111341.55
110832.73
110334.88
109853.45
109391.31
108949.55
108528.13
108126.61
107744.32
107380.45
107034.11
106704.41
106390.47
106091.45
105806.56
105535.02
105276.08
105029.09
104793.5
104568.77
104354.37
104149.8
103954.6
103768.32
103590.54
103420.89
103258.98
103104.48
102957.05
102816.38
102682.21
102554.28
102432.27
102315.92
102204.99
102099.26
101998.52
101902.55
101811.18
101724.2
101641.44
101562.74
101487.92
101416.84
101349.34
101285.29
101224.54
101166.96
101112.44
101060.84
101012.05
100965.96
100922.47
100881.48
100842.9
100806.62
100772.58
100740.68
100710.85
100683.03
100657.14
100633.12
100610.93
100590.51
100571.81
100554.81
100539.46
100525.72
100513.59
100503.13
100494.28
100486.74
100480.52
100476.8
100476.28
100475.06
108605.77
109526.05
109639.56
109645.58
109471.3
109232.2
108941.54
108628.87
108303.95
107976.61
107651.46
107332.16
107020.68
106718.35
106425.9
106143.73
105871.98
105610.61
105359.51
105118.48
104887.27
104665.55
104452.97
104249.21
104053.93
103866.83
103687.61
103515.97
103351.62
103194.31
103043.76
102899.72
102761.94
102630.21
102504.33
102384.05
102269.1
102159.29
102054.44
101954.37
101858.9
101767.85
101681.07
101598.39
101519.67
101444.75
101373.5
101305.77
101241.43
101180.36
101122.43
101067.52
101015.52
100966.32
100919.8
100875.87
100834.43
100795.39
100758.65
100724.14
100691.76
100661.44
100633.1
100606.68
100582.11
100559.34
100538.3
100518.94
100501.22
100485.09
100470.53
100457.48
100445.95
100435.91
100427.34
100420.15
100414.39
100410.26
100407.86
100406.79
110524.74
110568.94
110445.14
110190.87
109819.9
109380.94
108900.66
108400
107889.48
107376.41
106874.6
106382.61
105911.69
105457.03
105022.74
104621.4
104248.48
103914.7
103614.45
103345.87
103108.11
102896.98
102710.71
102546.12
102400.67
102270.71
102153.16
102045.83
101948.47
101864.7
101789.65
101720.2
101655.67
101595.09
101537.84
101483.41
101431.48
101381.85
101334.34
101288.82
101245.24
101203.51
101163.58
101125.44
101089.03
101054.29
101021.17
100989.6
100959.53
100930.9
100903.63
100877.67
100852.89
100829.31
100806.68
100785.18
100764.27
100744.57
100724.83
100706.76
100687.4
100671.08
100650.86
100637.01
100613.87
100604.39
100574.7
100573.38
100531.03
100545.63
100479.07
100523.31
100416.08
100509.81
100335.78
100510.88
100233.46
100531.61
100103.15
100582.58
97027.435
97230.608
97626.396
98053.895
98512.337
98999.89
99414.821
99771.478
100106.33
100405.97
100664.43
100890.2
101084.54
101250.15
101390.58
101507
101603.37
101679.41
101737.71
101779.12
101806.87
101821.43
101825.59
101818.6
101802.75
101779.2
101750.06
101717.86
101681.39
101642.87
101602.71
101561.05
101517.72
101473.77
101429.88
101386.46
101343.85
101302.29
101261.95
101222.93
101185.26
101148.97
101114.09
101080.6
101048.49
101017.73
100988.29
100960.14
100933.22
100907.52
100882.94
100859.48
100836.99
100815.53
100794.84
100775.12
100755.83
100737.6
100719.22
100702.32
100684.13
100668.64
100649.55
100636.09
100614.19
100604.51
100576.35
100574.29
100534.27
100546.82
100484.48
100524.43
100421.9
100511.45
100341.95
100513.26
100237.42
100537.21
100103.71
100590.68
104110.43
104145.03
104143.75
104114.96
104057.03
103977.13
103881.13
103772.98
103656.3
103535.55
103411.51
103287.06
103162.39
103039.52
102918.2
102801.8
102687.33
102581.43
102478.07
102384.37
102289.1
102205.07
102117.88
102043.46
101971.2
101907.1
101848.97
101792.89
101742.16
101680.71
101623.11
101568.84
101516.99
101467.61
101420.43
101375.25
101331.91
101290.29
101250.27
101211.82
101174.88
101139.42
101105.41
101072.79
101041.56
101011.66
100983.07
100955.76
100929.67
100904.76
100880.96
100858.26
100836.5
100815.74
100795.69
100776.6
100757.87
100740.18
100722.25
100705.79
100687.94
100672.78
100653.92
100640.66
100618.94
100609.23
100581.27
100578.95
100538.67
100550.9
100489.13
100527.6
100427.23
100513.6
100347.27
100514.68
100242.5
100538.77
100107.35
100593.46
101603.35
101605.62
101613.54
101628.6
101647.81
101667.8
101688.79
101711.32
101733.5
101755.94
101776.83
101796.85
101814.18
101829
101839.93
101847.52
101850.36
101849.41
101843.47
101833.69
101819.97
101802.91
101782.61
101757.55
101727.99
101694.66
101659.34
101621.22
101582.85
101544.73
101505.84
101467
101428.24
101389.71
101351.61
101314.08
101277.26
101241.27
101206.21
101172.15
101139.16
101107.27
101076.51
101046.9
101018.43
100991.1
100964.9
100939.8
100915.77
100892.78
100870.77
100849.72
100829.5
100810.16
100791.43
100773.54
100755.91
100739.22
100722.18
100706.55
100689.38
100674.9
100656.5
100643.81
100622.32
100613.12
100585.25
100583.32
100543.04
100555.57
100493.32
100532.41
100430.96
100518.29
100350.49
100519.37
100245.37
100543.06
100109.44
100597.32
101996.45
102004.2
102005.26
102003.78
102000.43
101994.93
101987.89
101980.47
101971.61
101962.01
101950.37
101938.71
101924.57
101910.2
101893.6
101874.94
101855.6
101832.42
101809.57
101782.29
101756.06
101725.07
101695.66
101661.9
101629.83
101595.02
101561.21
101526.63
101492.15
101457.53
101423.03
101388.72
101354.72
101321.1
101287.95
101255.32
101223.29
101191.91
101161.23
101131.32
101102.22
101073.96
101046.59
101020.13
100994.59
100970
100946.33
100923.6
100901.76
100880.82
100860.7
100841.41
100822.8
100804.95
100787.59
100770.94
100754.45
100738.78
100722.65
100707.82
100691.36
100677.48
100659.6
100647.31
100626.2
100617.22
100589.65
100587.73
100547.5
100559.93
100497.9
100536.57
100435.62
100522.17
100354.9
100522.77
100249.16
100546.41
100112.09
100600.47
101469.85
101475.18
101480.28
101487.54
101494.45
101501.53
101506.59
101513.01
101516.78
101521.71
101523.59
101525.62
101525.08
101524.65
101521.73
101518.35
101513.02
101507.08
101499.25
101490.68
101480.24
101469.19
101456.06
101442
101425.91
101408.67
101389.76
101369.64
101348.31
101326.05
101302.92
101279.09
101254.7
101229.9
101204.82
101179.6
101154.37
101129.26
101104.36
101079.79
101055.63
101031.95
101008.82
100986.3
100964.43
100943.23
100922.72
100902.91
100883.78
100865.34
100847.54
100830.38
100813.74
100797.68
100781.96
100766.8
100751.66
100737.19
100722.15
100708.25
100692.64
100679.45
100662.22
100650.39
100629.75
100621.02
100593.8
100591.9
100552.06
100564.23
100502.3
100540.75
100439.83
100526.11
100358.7
100526.47
100252.6
100549.79
100114.56
100603.48
101282.8
101289.75
101294.95
101300.85
101307.05
101313.02
101317.72
101322.87
101325.47
101329.74
101330.84
101334.34
101334.43
101336.39
101335.91
101335.21
101332.31
101329.52
101324.99
101319.94
101313.47
101306.1
101297.5
101287.85
101277.09
101265.27
101252.42
101238.63
101223.9
101208.34
101192
101174.96
101157.32
101139.16
101120.58
101101.67
101082.52
101063.24
101043.9
101024.62
101005.47
100986.52
100967.85
100949.5
100931.54
100914
100896.9
100880.26
100864.09
100848.38
100833.1
100818.26
100803.76
100789.66
100775.72
100762.16
100748.48
100735.3
100721.43
100708.52
100693.82
100681.33
100664.81
100653.42
100633.33
100624.78
100598.01
100596.02
100556.54
100568.38
100506.92
100544.77
100444.32
100529.88
100363.07
100529.86
100256.25
100552.94
100117.1
100606.23
101019.63
101026.65
101032.3
101039.03
101045.97
101053.09
101059.32
101067.21