/*--------------------------------*- C++ -*----------------------------------*\
  =========                 |
  \\      /  F ield         | OpenFOAM: The Open Source CFD Toolbox
   \\    /   O peration     | Website:  https://openfoam.org
    \\  /    A nd           | Version:  6
     \\/     M anipulation  |
\*---------------------------------------------------------------------------*/
FoamFile
{
    version     2.0;
    format      ascii;
    class       surfaceScalarField;
    location    "500";
    object      phi;
}
// * * * * * * * * * * * * * * * * * * * * * * * * * * * * * * * * * * * * * //

dimensions      [1 0 -1 0 0 0 0];

internalField   nonuniform List<scalar> 
31760
(
-0.00058364399
-0.038545038
0.039128679
-0.001297966
-0.042794011
0.043508329
-0.0020296683
-0.043888468
0.044620168
-0.0028161842
-0.046463813
0.047250325
-0.0036223684
-0.048296679
0.049102862
-0.0044836266
-0.050762699
0.051623954
-0.005373565
-0.052989028
0.053878966
-0.0063161324
-0.055553619
0.056496183
-0.0072960234
-0.058080651
0.059060541
-0.0083283501
-0.060828324
0.061860648
-0.0094057716
-0.063634087
0.064711509
-0.010537499
-0.066614153
0.067745878
-0.011720512
-0.069702421
0.070885433
-0.012960913
-0.072951839
0.074192237
-0.01425859
-0.076338796
0.077636473
-0.015617858
-0.079889294
0.08124856
-0.01703991
-0.083598904
0.085020957
-0.018528064
-0.087482152
0.088970305
-0.020084324
-0.091543162
0.093099422
-0.02171177
-0.095792477
0.097419922
-0.023412656
-0.10023785
0.10193874
-0.025190072
-0.10488925
0.10666667
-0.027046011
-0.10975635
0.11161229
-0.028983375
-0.11484968
0.11678704
-0.031004497
-0.12018002
0.12220114
-0.03311147
-0.12575954
0.12786651
-0.035306631
-0.13159985
0.13379501
-0.037592289
-0.13771441
0.14000006
-0.039970071
-0.14411677
0.14649455
-0.042441368
-0.15082167
0.15329297
-0.045007904
-0.15784412
0.16041065
-0.047670477
-0.16520081
0.16786338
-0.050430174
-0.17290828
0.17566798
-0.053286909
-0.18098511
0.18384184
-0.056240648
-0.18945051
0.19240425
-0.059291028
-0.19832445
0.20137483
-0.062437189
-0.20762808
0.21077424
-0.065677023
-0.21738451
0.22062434
-0.069008673
-0.22761713
0.23094878
-0.072429091
-0.23835095
0.24177137
-0.075934946
-0.24961231
0.25311816
-0.079521613
-0.26142914
0.26501581
-0.0831842
-0.27383023
0.27749281
-0.086916219
-0.28684697
0.29057899
-0.09071083
-0.3005109
0.30430551
-0.094559987
-0.31485651
0.31870567
-0.098453925
-0.32991913
0.33381307
-0.10238227
-0.34573649
0.34966483
-0.10633298
-0.3623477
0.36629841
-0.11029187
-0.37979459
0.38375348
-0.11424385
-0.39812004
0.40207201
-0.118171
-0.41736994
0.42129709
-0.12205356
-0.43759207
0.44147463
-0.12586888
-0.45883678
0.4626521
-0.12959223
-0.48115643
0.48487978
-0.13319502
-0.50460674
0.50820953
-0.13664562
-0.52924591
0.53269652
-0.13990774
-0.55513524
0.55839736
-0.14294144
-0.58233769
0.58537139
-0.14570127
-0.61092061
0.61368044
-0.1481363
-0.64095489
0.64338992
-0.15018929
-0.67251319
0.67456617
-0.15179725
-0.70567435
0.70728232
-0.15288631
-0.74051692
0.74160599
-0.1533803
-0.77712803
0.77762201
-0.15318119
-0.8155894
0.81539029
-0.15220262
-0.85600181
0.85502323
-0.15030347
-0.89842879
0.89652964
-0.14741294
-0.94301856
0.94012803
-0.14329379
-0.98975785
0.98563869
-0.13796531
-1.0389535
1.0336251
-0.13097524
-1.0903133
1.0833232
-0.12259519
-1.1446886
1.1363086
-0.11184299
-1.200786
1.1900338
-0.099666502
-1.2612646
1.2490881
-0.084072906
-1.3214068
1.3058132
-0.067196415
-1.3894503
1.3725738
-0.04569238
-1.4518504
1.4303464
-0.022584379
-1.5290082
1.5059002
-1.5945292
1.5659326
-0.00056344372
-0.037981596
-0.0012366546
-0.042120803
-0.0019292227
-0.043195901
-0.0026723765
-0.045720662
-0.0034381003
-0.047530956
-0.0042526113
-0.049948191
-0.0050976145
-0.052144026
-0.0059914212
-0.054659815
-0.0069232426
-0.05714883
-0.0079047426
-0.059846827
-0.0089308613
-0.062607969
-0.010009291
-0.065535726
-0.011138206
-0.068573506
-0.012323273
-0.071766773
-0.013564146
-0.075097923
-0.014865339
-0.078588103
-0.016228044
-0.082236199
-0.017655792
-0.086054407
-0.019150557
-0.090048397
-0.020715322
-0.094227714
-0.02235245
-0.09860072
-0.024064561
-0.10317714
-0.025854587
-0.10796633
-0.02772467
-0.1129796
-0.029677129
-0.11822756
-0.031714618
-0.12372205
-0.033839192
-0.12947528
-0.036052916
-0.13550068
-0.038357247
-0.14181244
-0.0407542
-0.14842472
-0.043244919
-0.1553534
-0.045830421
-0.16261531
-0.048511362
-0.17022734
-0.051287695
-0.17820878
-0.054159872
-0.18657833
-0.057126978
-0.19535734
-0.060187729
-0.20456733
-0.063340939
-0.2142313
-0.066584293
-0.22437378
-0.069914856
-0.23502039
-0.073329377
-0.24619779
-0.076823672
-0.25793484
-0.080392588
-0.27026131
-0.084030605
-0.28320896
-0.087730964
-0.29681055
-0.09148622
-0.31110126
-0.095287402
-0.32611795
-0.099124767
-0.34189913
-0.1029869
-0.35848557
-0.10686146
-0.37592003
-0.11073385
-0.39424765
-0.11458817
-0.41351562
-0.11840628
-0.43377396
-0.12216768
-0.45507538
-0.1258494
-0.47747472
-0.12942567
-0.50103048
-0.13286734
-0.52580424
-0.13614238
-0.55186019
-0.1392135
-0.57926658
-0.14203946
-0.60809465
-0.14457484
-0.63841951
-0.14676689
-0.67032114
-0.14855858
-0.70388266
-0.14988336
-0.73919215
-0.1506694
-0.77634198
-0.15083403
-0.81542478
-0.15028818
-0.85654766
-0.148921
-0.89979596
-0.14663885
-0.94530071
-0.14327178
-0.99312491
-0.13875767
-1.0434677
-0.13280466
-1.0962663
-0.12548602
-1.1520073
-0.11618927
-1.2100828
-0.10536756
-1.2720863
-0.091700791
-1.3350735
-0.076536899
-1.4046142
-0.057456249
-1.4709311
-0.036793379
-1.5496711
-1.6200174
-0.00053074771
-0.037450851
-0.0011794665
-0.041472087
-0.0018322148
-0.042543154
-0.00253932
-0.045013559
-0.0032639616
-0.046806316
-0.0040401587
-0.049171997
-0.0048433924
-0.051340793
-0.0056965321
-0.053806678
-0.0065853619
-0.056260001
-0.0075244219
-0.058907769
-0.0085064502
-0.061625941
-0.0095404273
-0.064501752
-0.010624169
-0.067489764
-0.011763042
-0.070627902
-0.012957844
-0.073903121
-0.014211914
-0.077334034
-0.0155275
-0.080920613
-0.016907131
-0.084674778
-0.018353788
-0.088601738
-0.019869822
-0.092711682
-0.021458067
-0.097012474
-0.023121343
-0.10151387
-0.024861434
-0.10622624
-0.026681732
-0.11115931
-0.028584413
-0.11632488
-0.030571604
-0.12173486
-0.03264545
-0.12740143
-0.034807849
-0.13333829
-0.037060825
-0.13955946
-0.039405776
-0.14607977
-0.041843548
-0.15291563
-0.044375678
-0.16008318
-0.047002097
-0.16760093
-0.049723612
-0.17548726
-0.052539601
-0.18376234
-0.055449556
-0.19244739
-0.058452303
-0.20156458
-0.061546114
-0.21113749
-0.064728996
-0.2211909
-0.06799864
-0.23175075
-0.071350987
-0.24284544
-0.074782625
-0.25450321
-0.078288859
-0.26675508
-0.081864471
-0.27963335
-0.085503143
-0.29317187
-0.089197771
-0.30740663
-0.092940597
-0.32237512
-0.096722548
-0.33811718
-0.10053363
-0.35467449
-0.10436225
-0.37209141
-0.10819556
-0.39041434
-0.11201914
-0.40969204
-0.11581647
-0.42997663
-0.11956944
-0.45132241
-0.12325751
-0.47378665
-0.12685729
-0.49743069
-0.13034292
-0.52231862
-0.13368508
-0.54851802
-0.13685082
-0.57610085
-0.13980323
-0.60514224
-0.14250052
-0.63572221
-0.14489652
-0.66792514
-0.14693859
-0.7018406
-0.14856845
-0.73756229
-0.14972028
-0.77519015
-0.15031793
-0.81482713
-0.15028551
-0.85658008
-0.14952161
-0.90055986
-0.14793215
-0.94689018
-0.14538655
-0.99567051
-0.1417924
-1.0470618
-0.13693905
-1.1011197
-0.13079941
-1.1581469
-0.12297454
-1.2179077
-0.11366622
-1.2813946
-0.10194517
-1.3467946
-0.088683079
-1.4178763
-0.072074471
-1.4875397
-0.053767014
-1.5679785
-1.6423225
-0.00050062097
-0.036950232
-0.0011300885
-0.040842622
-0.0017493229
-0.041923922
-0.0024260803
-0.044336805
-0.003116625
-0.046115773
-0.0038604484
-0.048428176
-0.0046291461
-0.050572097
-0.0054482967
-0.05298753
-0.0063020822
-0.055406216
-0.007206078
-0.058003776
-0.0081527599
-0.06067926
-0.009151185
-0.063503329
-0.010199115
-0.066441835
-0.011302423
-0.069524596
-0.012461266
-0.072744279
-0.013679832
-0.07611547
-0.014959721
-0.079640723
-0.016304394
-0.083330107
-0.017716069
-0.087190063
-0.019197894
-0.091229859
-0.020752198
-0.09545817
-0.02238159
-0.099884478
-0.024089077
-0.10451875
-0.025876989
-0.1093714
-0.02774751
-0.11445436
-0.029703249
-0.11977912
-0.031745947
-0.12535873
-0.033877864
-0.13120637
-0.036100419
-0.13733691
-0.038415176
-0.14376501
-0.040823136
-0.15050767
-0.043325077
-0.15758124
-0.045921752
-0.16500425
-0.048612819
-0.1727962
-0.051398056
-0.18097711
-0.054277091
-0.18956836
-0.057248571
-0.1985931
-0.060310851
-0.20807521
-0.063461953
-0.21803979
-0.066699286
-0.22851341
-0.070019968
-0.23952476
-0.073420177
-0.251103
-0.076895691
-0.26327956
-0.08044176
-0.27608728
-0.084052818
-0.28956082
-0.08772264
-0.30373681
-0.091444205
-0.31865356
-0.095209566
-0.33435181
-0.099009709
-0.35087434
-0.10283452
-0.3682666
-0.10667302
-0.38657584
-0.11051182
-0.40585324
-0.11433714
-0.42615131
-0.11813281
-0.44752675
-0.12188016
-0.4700393
-0.12555923
-0.49375162
-0.12914733
-0.51873052
-0.13261798
-0.54504738
-0.13594235
-0.57277647
-0.1390878
-0.6019968
-0.14201741
-0.6327926
-0.14468983
-0.66525272
-0.14705888
-0.69947155
-0.149072
-0.73554917
-0.1506711
-0.77359105
-0.15179035
-0.81370788
-0.15235592
-0.85601451
-0.15228328
-0.90063249
-0.15148553
-0.94768792
-0.14985119
-0.99730485
-0.14727863
-1.0496344
-0.1436142
-1.1047841
-0.13877937
-1.1629817
-0.13249364
-1.2241934
-0.12483558
-1.2890527
-0.11511751
-1.3565127
-0.10391077
-1.429083
-0.089837003
-1.5016134
-0.074158054
-1.5836575
-1.6614527
-0.00047317844
-0.036477056
-0.0010870787
-0.040228725
-0.0016777392
-0.041333263
-0.0023297811
-0.043684766
-0.0029921494
-0.045453406
-0.0037101338
-0.047710195
-0.0044513597
-0.049830872
-0.0052441858
-0.052194707
-0.0060712672
-0.054579135
-0.0069487592
-0.057126287
-0.0078694596
-0.059758559
-0.0088425045
-0.062530286
-0.0098657082
-0.065418631
-0.010944572
-0.068445734
-0.012079949
-0.071608901
-0.013275995
-0.074919426
-0.01453445
-0.078382267
-0.015858785
-0.082005774
-0.017251277
-0.08579757
-0.018714822
-0.089766315
-0.020252481
-0.093920511
-0.021866739
-0.098270222
-0.023560367
-0.10282512
-0.02533543
-0.10759634
-0.027194966
-0.11259482
-0.029140771
-0.11783332
-0.031175128
-0.12332438
-0.03329949
-0.12908201
-0.035515922
-0.13512048
-0.037825044
-0.14145589
-0.040228479
-0.14810423
-0.042726549
-0.15508317
-0.045319692
-0.16241111
-0.048007936
-0.17010795
-0.050790933
-0.17819411
-0.053667562
-0.18669173
-0.056637094
-0.19562357
-0.059698086
-0.20501422
-0.062848252
-0.21488963
-0.066085204
-0.22527646
-0.069406589
-0.23620338
-0.072808833
-0.24770075
-0.076288269
-0.25980013
-0.079840889
-0.27253466
-0.083461685
-0.28594002
-0.087145567
-0.30005293
-0.090886199
-0.31491293
-0.094676822
-0.33056119
-0.098509967
-0.3470412
-0.10237713
-0.36439943
-0.10626824
-0.38268473
-0.11017305
-0.40194843
-0.11407893
-0.42224543
-0.11797217
-0.44363351
-0.1218375
-0.46617397
-0.12565708
-0.48993204
-0.12941105
-0.51497655
-0.13307736
-0.54138107
-0.13663076
-0.56922307
-0.14004282
-0.59858473
-0.14328126
-0.62955416
-0.14631036
-0.66222361
-0.14908948
-0.69669243
-0.15157304
-0.73306561
-0.15370985
-0.77145424
-0.15544191
-0.81197582
-0.15670423
-0.85475219
-0.15742458
-0.89991214
-0.15752298
-0.94758953
-0.15690123
-0.9979266
-0.15547041
-1.0510652
-0.15310011
-1.1071544
-0.14970021
-1.1663816
-0.14506031
-1.2288333
-0.13918387
-1.2949291
-0.13157595
-1.3641206
-0.1225836
-1.4380754
-0.11112387
-1.5130731
-0.098183424
-1.5965979
-1.67732
-0.00045148759
-0.03602557
-0.001045946
-0.03963427
-0.0016149583
-0.040764252
-0.0022495972
-0.04305013
-0.0028917985
-0.044811206
-0.0035920961
-0.0470099
-0.0043148209
-0.049108147
-0.0050904867
-0.051419043
-0.0059007584
-0.053768864
-0.0067626324
-0.056264415
-0.0076684109
-0.058852781
-0.0086276354
-0.061571064
-0.0096385622
-0.064407704
-0.010706663
-0.067377635
-0.011833001
-0.070482563
-0.013021244
-0.073731185
-0.014274111
-0.077129399
-0.01559443
-0.080685457
-0.01698527
-0.084406729
-0.018449568
-0.088302019
-0.019989693
-0.092380386
-0.021609076
-0.096650842
-0.02330968
-0.10112451
-0.025094583
-0.10581143
-0.026965783
-0.11072362
-0.028925462
-0.11587364
-0.030975739
-0.1212741
-0.033118134
-0.12693962
-0.035354099
-0.13288451
-0.037684806
-0.13912519
-0.040111181
-0.14567786
-0.042633385
-0.15256097
-0.045251981
-0.15979251
-0.047966665
-0.16739327
-0.050777007
-0.17538377
-0.053682265
-0.18378647
-0.056681353
-0.19262448
-0.059772843
-0.20192273
-0.062954898
-0.21170757
-0.066225574
-0.22200579
-0.069582397
-0.23284655
-0.073022612
-0.24426054
-0.076543434
-0.25627931
-0.080140936
-0.26893716
-0.083811503
-0.28226945
-0.087550745
-0.29631369
-0.091353882
-0.31110979
-0.09521564
-0.32669943
-0.099129333
-0.34312751
-0.10308846
-0.3604403
-0.10708533
-0.37868786
-0.11111089
-0.39792287
-0.11515539
-0.41820093
-0.11920737
-0.43958153
-0.12325396
-0.46212738
-0.12728087
-0.48590512
-0.13127166
-0.51098576
-0.1352074
-0.53744533
-0.13906728
-0.56536319
-0.14282665
-0.59482536
-0.14645924
-0.62592158
-0.14993367
-0.65874918
-0.15321585
-0.69341025
-0.15626669
-0.73001477
-0.15904217
-0.76867876
-0.16149246
-0.80952553
-0.16356264
-0.85268201
-0.16518917
-0.89828561
-0.16629851
-0.94648019
-0.16681547
-0.99740964
-0.16664911
-1.0512315
-0.16570032
-1.1081032
-0.16387118
-1.1682108
-0.16100741
-1.2316971
-0.15707003
-1.2988665
-0.15169202
-1.3694986
-0.14508486
-1.4446825
-0.13637463
-1.5217834
-0.12636877
-1.6066038
-1.6898294
-0.00043647447
-0.035589098
-0.0010102199
-0.039060527
-0.0015648226
-0.040209651
-0.0021898448
-0.04242511
-0.0028202546
-0.044180797
-0.0035115532
-0.046318604
-0.0042253714
-0.04839433
-0.0049936817
-0.050650735
-0.0057981177
-0.052964428
-0.0066555183
-0.055407017
-0.0075589707
-0.057949328
-0.0085175531
-0.060612483
-0.0095299582
-0.063395299
-0.010601587
-0.066306008
-0.011734387
-0.069349762
-0.012931761
-0.072533813
-0.014196335
-0.075864824
-0.015531791
-0.079350002
-0.016940412
-0.082998109
-0.018425742
-0.08681669
-0.019990455
-0.090815674
-0.021637165
-0.095004133
-0.023368994
-0.099392685
-0.02518785
-0.10399258
-0.027096054
-0.10881542
-0.029096036
-0.11387366
-0.031189274
-0.11918086
-0.033377459
-0.12475143
-0.035661522
-0.13060045
-0.038042577
-0.13674413
-0.04052134
-0.14319909
-0.043098186
-0.14998413
-0.045772931
-0.15711777
-0.048545672
-0.16462053
-0.051415601
-0.17251384
-0.054382133
-0.18081994
-0.057444316
-0.1895623
-0.060600466
-0.19876658
-0.063849854
-0.20845819
-0.067190194
-0.21866545
-0.07061988
-0.22941687
-0.07413692
-0.2407435
-0.077738691
-0.25267754
-0.081423023
-0.26525282
-0.085187004
-0.27850547
-0.08902739
-0.2924733
-0.092940599
-0.30719658
-0.096922691
-0.32271734
-0.1009696
-0.3390806
-0.10507587
-0.35633403
-0.10923593
-0.3745278
-0.11344298
-0.39371582
-0.11768975
-0.41395416
-0.12196757
-0.43530371
-0.12626637
-0.45782858
-0.13057501
-0.48159648
-0.13488013
-0.50668064
-0.13916731
-0.53315815
-0.14341905
-0.56111145
-0.14761658
-0.59062783
-0.15173708
-0.62180107
-0.15575594
-0.65473033
-0.15964429
-0.68952189
-0.16337021
-0.72628885
-0.16689722
-0.76515175
-0.17018416
-0.80623859
-0.17318228
-0.84968389
-0.17583875
-0.89562914
-0.17809608
-0.94422286
-0.17988527
-0.99562046
-0.18113143
-1.0499854
-0.18174818
-1.1074864
-0.18165031
-1.1683087
-0.18071346
-1.2326339
-0.17888114
-1.3006988
-0.17588259
-1.3724971
-0.17184254
-1.4487226
-0.16604672
-1.5275792
-0.15915466
-1.6134958
-1.698852
-0.00042759604
-0.035161503
-0.00099386625
-0.038494259
-0.0015410153
-0.039662503
-0.0021638297
-0.041802298
-0.0027909362
-0.043553691
-0.0034818981
-0.045627644
-0.0041966912
-0.047679537
-0.004968153
-0.049879275
-0.0057781517
-0.052154429
-0.0066432509
-0.054541919
-0.0075575779
-0.057035001
-0.0085294666
-0.059640596
-0.0095589256
-0.062365839
-0.010651
-0.065213935
-0.011807525
-0.068193237
-0.013032667
-0.071308672
-0.014329096
-0.074568395
-0.015700044
-0.077979056
-0.017148933
-0.081549219
-0.018678358
-0.085287266
-0.020291647
-0.089202384
-0.021991289
-0.093304492
-0.023779868
-0.097604106
-0.025660003
-0.10211245
-0.027633611
-0.10684181
-0.029702384
-0.11180489
-0.031868072
-0.11701517
-0.034131825
-0.12248768
-0.03649489
-0.12823738
-0.038957778
-0.13428125
-0.041520941
-0.14063593
-0.044184512
-0.14732056
-0.046948518
-0.15435376
-0.049812378
-0.16175667
-0.052775969
-0.16955025
-0.055838622
-0.17775729
-0.058998931
-0.18640199
-0.062256694
-0.19550882
-0.065610466
-0.20510442
-0.069059396
-0.21521652
-0.072601848
-0.22587441
-0.076237002
-0.23710835
-0.079963496
-0.24895104
-0.083779795
-0.26143653
-0.087684207
-0.27460106
-0.091674877
-0.28848263
-0.095750326
-0.30312113
-0.09990808
-0.31855959
-0.10414519
-0.33484349
-0.10845906
-0.35202016
-0.11284595
-0.37014092
-0.11730175
-0.38926002
-0.12182151
-0.4094344
-0.12639924
-0.43072597
-0.13102859
-0.45319924
-0.13570073
-0.47692434
-0.14040698
-0.50197439
-0.14513608
-0.52842905
-0.1498756
-0.55637193
-0.15461042
-0.58589301
-0.15932417
-0.61708733
-0.16399692
-0.65005757
-0.16860662
-0.6849122
-0.17312781
-0.72176765
-0.17753143
-0.76074814
-0.1817846
-0.80198542
-0.18584882
-0.84561967
-0.18968206
-0.8917959
-0.19323328
-0.94067163
-0.19644967
-0.99240407
-0.19926639
-1.0471687
-0.20161287
-1.1051399
-0.20341873
-1.1665028
-0.20458724
-1.2314654
-0.2050526
-1.3002335
-0.20461701
-1.3729327
-0.20334539
-1.4499942
-0.20065443
-1.5302701
-0.1970848
-1.6170654
-1.7042084
-0.00042417782
-0.034737327
-0.00099533762
-0.037923101
-0.0015429255
-0.039114916
-0.002171865
-0.04117336
-0.0028052503
-0.042920306
-0.003505902
-0.044926994
-0.0042331038
-0.046952336
-0.0050194794
-0.049092902
-0.0058483994
-0.05132551
-0.006735351
-0.053654969
-0.0076758953
-0.056094457
-0.008677848
-0.058638645
-0.0097419125
-0.061301775
-0.010872936
-0.064082913
-0.012073478
-0.066992695
-0.013347606
-0.070034545
-0.014698188
-0.073217813
-0.016128813
-0.076548433
-0.017642391
-0.08003564
-0.019242291
-0.083687368
-0.02093128
-0.087513395
-0.022712026
-0.091523748
-0.024586807
-0.095729325
-0.026557758
-0.1001415
-0.028627123
-0.10477244
-0.030796184
-0.10963583
-0.033066166
-0.11474519
-0.035438247
-0.1201156
-0.037912987
-0.12576264
-0.040491124
-0.13170311
-0.043172308
-0.13795474
-0.045957057
-0.14453581
-0.048844726
-0.15146609
-0.051835373
-0.15876602
-0.054928581
-0.16645704
-0.058123407
-0.17456246
-0.061420106
-0.18310529
-0.064817747
-0.19211118
-0.068315868
-0.20160629
-0.071914281
-0.21161811
-0.07561295
-0.22217574
-0.079411156
-0.23331014
-0.083308775
-0.24505342
-0.087305857
-0.25743944
-0.09140251
-0.27050441
-0.095598213
-0.28428693
-0.099892833
-0.29882651
-0.10428595
-0.31416647
-0.10877717
-0.33035227
-0.11336545
-0.34743187
-0.11804978
-0.36545659
-0.12282861
-0.38448118
-0.12769955
-0.40456345
-0.13266001
-0.42576552
-0.13770598
-0.44815327
-0.14283357
-0.47179676
-0.14803658
-0.49677138
-0.15330865
-0.52315698
-0.1586414
-0.55103918
-0.16402511
-0.5805093
-0.16944795
-0.61166449
-0.17489664
-0.64460889
-0.1803554
-0.67945343
-0.18580546
-0.71631759
-0.19122599
-0.75532761
-0.19659193
-0.79661948
-0.2018757
-0.8403359
-0.20704152
-0.88663008
-0.21205536
-0.93565779
-0.2168699
-0.98758953
-0.22143776
-1.0426008
-0.22570472
-1.100873
-0.22960695
-1.1626006
-0.23307687
-1.2279955
-0.23605399
-1.2972563
-0.23839189
-1.3705948
-0.24011367
-1.4482724
-0.2407495
-1.5296343
-0.24073013
-1.6170848
-1.7056685
-0.00042768197
-0.034309646
-0.0010116852
-0.037339099
-0.00156931
-0.038557292
-0.0022146272
-0.040528045
-0.0028658454
-0.042269089
-0.0035881065
-0.044204734
-0.004341111
-0.046199332
-0.0051565874
-0.048277426
-0.0060198335
-0.050462263
-0.0069452022
-0.052729601
-0.0079297441
-0.055109915
-0.0089807029
-0.057587687
-0.01009976
-0.060182718
-0.011291531
-0.062891143
-0.012559327
-0.065724899
-0.013906666
-0.068687207
-0.015337203
-0.071787275
-0.016854205
-0.075031433
-0.018461099
-0.078428745
-0.020160638
-0.08198783
-0.021955419
-0.085718614
-0.023848189
-0.089630978
-0.025841073
-0.093736441
-0.027936006
-0.098046565
-0.030134118
-0.10257433
-0.032437054
-0.1073329
-0.034845701
-0.11233654
-0.037360616
-0.11760069
-0.039981832
-0.12314143
-0.042709944
-0.128975
-0.045544791
-0.1351199
-0.048486235
-0.14159436
-0.051533972
-0.14841835
-0.054688165
-0.15561183
-0.057948111
-0.16319709
-0.061314332
-0.17119624
-0.064786431
-0.17963319
-0.068364662
-0.18853295
-0.072049941
-0.19792101
-0.075842396
-0.20782565
-0.079742712
-0.21827543
-0.08375245
-0.2293004
-0.087872484
-0.24093339
-0.092104399
-0.25320753
-0.096449363
-0.26615944
-0.10090963
-0.27982667
-0.10548632
-0.29424982
-0.11018163
-0.30947116
-0.11499696
-0.32553695
-0.11993386
-0.34249496
-0.12499393
-0.36039653
-0.13017804
-0.37929707
-0.13548723
-0.39925426
-0.14092147
-0.42033128
-0.14648118
-0.44259356
-0.15216499
-0.46611294
-0.15797149
-0.49096488
-0.16389831
-0.51723015
-0.16994184
-0.54499565
-0.17609727
-0.57435386
-0.18235906
-0.6054027
-0.18871934
-0.63824861
-0.19516864
-0.67300413
-0.2016964
-0.70978983
-0.20828885
-0.74873515
-0.21493028
-0.78997805
-0.22160041
-0.83366577
-0.22827945
-0.87995104
-0.23493711
-0.92900014
-0.24154547
-0.98098117
-0.24806774
-1.0360785
-0.25446192
-1.0944788
-0.26068069
-1.1563818
-0.26667836
-1.2219978
-0.27239869
-1.291536
-0.27775197
-1.3652416
-0.28272211
-1.4433023
-0.28694064
-1.5254158
-0.29073606
-1.6132894
-1.7029543
-0.00043912128
-0.033870526
-0.0010464497
-0.036731773
-0.0016252148
-0.037978528
-0.0022982352
-0.039855026
-0.0029802417
-0.041587083
-0.0037375784
-0.043447399
-0.0045315173
-0.045405393
-0.0053921701
-0.047416775
-0.0063073805
-0.049547053
-0.0072900126
-0.051746971
-0.0083390236
-0.054060904
-0.0094608608
-0.056465851
-0.010658255
-0.058985324
-0.011935744
-0.061613655
-0.013296739
-0.064363904
-0.014745249
-0.067238698
-0.016284873
-0.070247651
-0.017918771
-0.073397536
-0.019650102
-0.076697415
-0.021481617
-0.080156315
-0.023416067
-0.083784164
-0.025455203
-0.087591843
-0.027600981
-0.091590663
-0.029854606
-0.09579294
-0.032217492
-0.10021144
-0.034690283
-0.10486011
-0.03727326
-0.10975357
-0.039966687
-0.11490726
-0.042770869
-0.12033724
-0.045685239
-0.12606063
-0.048710217
-0.13209492
-0.051845158
-0.13845942
-0.055090544
-0.14517297
-0.058446078
-0.1522563
-0.061912395
-0.15973078
-0.065489622
-0.16761902
-0.069179081
-0.17594373
-0.072981663
-0.18473037
-0.076898853
-0.19400383
-0.080932585
-0.20379192
-0.085085238
-0.21412278
-0.0893588
-0.22502684
-0.093756919
-0.23653527
-0.098281996
-0.24868245
-0.10293803
-0.26150341
-0.10772826
-0.27503644
-0.11265699
-0.28932108
-0.11772774
-0.30440041
-0.12294489
-0.32031981
-0.12831264
-0.33712721
-0.13383503
-0.35487414
-0.13951605
-0.37361605
-0.14535967
-0.39341064
-0.15136978
-0.41432117
-0.15754936
-0.43641399
-0.16390181
-0.45976049
-0.17042992
-0.48443677
-0.17713525
-0.51052483
-0.18401976
-0.53811115
-0.19108408
-0.56728954
-0.1983274
-0.59815938
-0.20574919
-0.63082682
-0.21334696
-0.66540636
-0.22111682
-0.70201998
-0.22905359
-0.74079839
-0.23715056
-0.78188108
-0.24539892
-0.82541741
-0.25378549
-0.87156446
-0.26229643
-0.9204892
-0.27091027
-0.97236733
-0.27960773
-1.0273811
-0.28836224
-1.0857243
-0.29714346
-1.1476006
-0.3059197
-1.2132216
-0.31464983
-1.2828059
-0.32327958
-1.3566118
-0.33178435
-1.4347975
-0.3398757
-1.5173244
-0.3477951
-1.60537
-1.6957428
-0.00045824804
-0.033412278
-0.0010991786
-0.036090843
-0.0017105378
-0.037367169
-0.0024236828
-0.039141882
-0.0031509142
-0.040859851
-0.0039585053
-0.042639809
-0.0048106364
-0.044553262
-0.0057349091
-0.046492503
-0.006722362
-0.0485596
-0.0077841378
-0.050685196
-0.0089211141
-0.052923927
-0.010139188
-0.055247777
-0.011441879
-0.057682632
-0.012833621
-0.060221914
-0.014318337
-0.062879188
-0.015899676
-0.06565736
-0.017581294
-0.068566034
-0.019366187
-0.071612643
-0.021257209
-0.074806393
-0.023256803
-0.078156722
-0.025366946
-0.081674022
-0.027589238
-0.085369552
-0.029925087
-0.089254814
-0.032375101
-0.093342927
-0.034939747
-0.097646799
-0.037619248
-0.10218061
-0.040413643
-0.10695917
-0.043322722
-0.11199818
-0.046346385
-0.11731358
-0.049484432
-0.12292258
-0.05273647
-0.12884288
-0.056102964
-0.13509293
-0.059584168
-0.14169176
-0.063180524
-0.14865994
-0.066893354
-0.15601795
-0.070724094
-0.16378828
-0.074674649
-0.17199318
-0.078747584
-0.18065743
-0.082945301
-0.18980611
-0.087271694
-0.19946553
-0.091730332
-0.20966414
-0.096325926
-0.22043125
-0.10106249
-0.2317987
-0.10594584
-0.2437991
-0.1109812
-0.25646806
-0.11617453
-0.26984311
-0.121532
-0.28396361
-0.12705999
-0.29887242
-0.13276537
-0.31461443
-0.13865499
-0.33123759
-0.14473567
-0.34879346
-0.15101504
-0.36733668
-0.15749995
-0.38692573
-0.1641979
-0.40762322
-0.17111611
-0.42949578
-0.1782617
-0.4526149
-0.18564171
-0.47705675
-0.19326327
-0.50290327
-0.20113241
-0.53024202
-0.20925604
-0.55916591
-0.21763981
-0.58977561
-0.22628895
-0.62217767
-0.23520849
-0.65648682
-0.24440256
-0.69282591
-0.25387456
-0.73132638
-0.26362641
-0.77212923
-0.2736594
-0.81538442
-0.28397287
-0.861251
-0.29456262
-0.90989944
-0.30542356
-0.96150639
-0.31654685
-1.0162578
-0.32792297
-1.0743482
-0.33953519
-1.1359883
-0.35136758
-1.2013892
-0.36340006
-1.2707734
-0.37560888
-1.344403
-0.38796592
-1.4224404
-0.40025873
-1.5050316
-0.41265283
-1.5929759
-1.683676
-0.00048768658
-0.032924592
-0.0011748853
-0.035403645
-0.0018331072
-0.036708947
-0.0026011134
-0.038373876
-0.0033907187
-0.040070246
-0.0042666632
-0.041763865
-0.0051972035
-0.043622722
-0.0062069534
-0.045482754
-0.0072903948
-0.047476159
-0.0084570367
-0.049518555
-0.0097095913
-0.051671373
-0.011053288
-0.053904081
-0.012492549
-0.056243372
-0.014031466
-0.058682997
-0.015674145
-0.06123651
-0.017424109
-0.063907396
-0.019284374
-0.066705769
-0.021258095
-0.069638923
-0.023347334
-0.072717154
-0.025553946
-0.07595011
-0.027879038
-0.079348929
-0.030323614
-0.082924977
-0.032888134
-0.086690294
-0.035572736
-0.090658326
-0.038377138
-0.094842396
-0.04130105
-0.099256696
-0.044343953
-0.10391627
-0.047505658
-0.10883648
-0.050785461
-0.11403378
-0.054183505
-0.11952454
-0.057700234
-0.12532615
-0.061335982
-0.13145718
-0.065091846
-0.1379359
-0.068969407
-0.14478238
-0.072970931
-0.15201642
-0.077099404
-0.1596598
-0.081357555
-0.16773503
-0.085749975
-0.17626501
-0.090280996
-0.18527509
-0.094955646
-0.19479088
-0.09977996
-0.20483983
-0.10475997
-0.21545124
-0.10990265
-0.22665602
-0.11521544
-0.23848632
-0.12070599
-0.2509775
-0.12638285
-0.26416626
-0.13225438
-0.27809207
-0.13832982
-0.29279698
-0.14461886
-0.30832539
-0.15113097
-0.32472548
-0.1578766
-0.34204783
-0.16486611
-0.36034718
-0.17211028
-0.37968156
-0.17962015
-0.40011335
-0.18740717
-0.42170875
-0.19548288
-0.44453919
-0.20385886
-0.46868077
-0.21254714
-0.49421499
-0.22155984
-0.52122932
-0.23090896
-0.54981678
-0.24060713
-0.58007744
-0.25066638
-0.61211843
-0.26109919
-0.64605401
-0.27191755
-0.68200755
-0.28313394
-0.72010999
-0.29476011
-0.76050306
-0.30680774
-0.80333679
-0.31928678
-0.84877195
-0.33220571
-0.89698051
-0.3455766
-0.94813549
-0.35940097
-1.0024334
-0.37368111
-1.060068
-0.38842249
-1.121247
-0.40362766
-1.186184
-0.41928854
-1.2551125
-0.43540911
-1.3282824
-0.45196779
-1.4058818
-0.46883097
-1.4881684
-0.48610393
-1.5757029
-1.6663637
-0.0005279007
-0.032396691
-0.0012753804
-0.034656165
-0.0019964154
-0.035987912
-0.0028361053
-0.037534187
-0.0037077306
-0.039198621
-0.0046729275
-0.040798669
-0.0057054536
-0.042590196
-0.0068262445
-0.044361963
-0.0080334625
-0.046268941
-0.0093349673
-0.04821705
-0.010735098
-0.050271242
-0.012238576
-0.052400603
-0.013850264
-0.054631684
-0.015573946
-0.056959316
-0.01741356
-0.059396895
-0.019372046
-0.061948911
-0.021452229
-0.064625586
-0.023655831
-0.067435322
-0.025984387
-0.070388597
-0.028438836
-0.073495662
-0.031019441
-0.076768324
-0.033726331
-0.080218087
-0.036558666
-0.083857959
-0.039516141
-0.087700852
-0.042597697
-0.091760839
-0.045802723
-0.096051671
-0.049130236
-0.10058875
-0.052579945
-0.10538677
-0.05615204
-0.11046168
-0.059846655
-0.11582993
-0.06366472
-0.12150809
-0.067607736
-0.12751417
-0.0716781
-0.13386554
-0.075878847
-0.14058164
-0.080213321
-0.14768195
-0.084685816
-0.15518731
-0.089302055
-0.16311879
-0.09406723
-0.17149984
-0.098988394
-0.18035392
-0.10407249
-0.18970678
-0.10932746
-0.19958486
-0.11476185
-0.21001685
-0.12038499
-0.22103288
-0.12620628
-0.23266503
-0.13223613
-0.24494765
-0.13848531
-0.25791708
-0.14496522
-0.27161216
-0.15168807
-0.28607413
-0.15866584
-0.30134763
-0.16591194
-0.31747938
-0.17343938
-0.33452039
-0.18126258
-0.35252398
-0.18939604
-0.37154809
-0.19785469
-0.39165471
-0.20665398
-0.41290946
-0.21581035
-0.43538283
-0.22534044
-0.45915068
-0.23526149
-0.48429393
-0.24559155
-0.51089927
-0.25634871
-0.53905962
-0.26755239
-0.56887376
-0.2792219
-0.60044892
-0.29137758
-0.63389833
-0.30404025
-0.66934489
-0.31723091
-0.70691933
-0.33097229
-0.74676167
-0.34528613
-0.78902296
-0.3601949
-0.83386318
-0.37572199
-0.88145343
-0.39188693
-0.93197055
-0.40871054
-0.9856098
-0.42621569
-1.0425629
-0.44441764
-1.103045
-0.46333526
-1.1672664
-0.48298338
-1.2354644
-0.50338762
-1.3078782
-0.52454238
-1.384727
-0.54637581
-1.466335
-0.56896268
-1.553116
-1.6433503
-0.00057981624
-0.031816876
-0.0014030446
-0.033832938
-0.002205503
-0.035185454
-0.0031363699
-0.03660332
-0.0041132447
-0.038221746
-0.0051927634
-0.039719151
-0.0063551634
-0.041427796
-0.0076173325
-0.043099795
-0.0089810876
-0.044905186
-0.010452739
-0.0467454
-0.012037959
-0.048686023
-0.013740797
-0.050697765
-0.015566162
-0.05280632
-0.017517204
-0.055008274
-0.019597215
-0.057316884
-0.02180828
-0.059737846
-0.024152039
-0.062281827
-0.026629265
-0.064958097
-0.029240265
-0.067777597
-0.031984505
-0.070751423
-0.034861393
-0.073891435
-0.037869385
-0.077210096
-0.041007512
-0.080719832
-0.044274117
-0.084434247
-0.047668249
-0.088366707
-0.051188569
-0.092531351
-0.054834871
-0.096942452
-0.058607104
-0.10161454
-0.062505476
-0.10656331
-0.06653192
-0.11180348
-0.070687965
-0.11735204
-0.07497727
-0.12322486
-0.07940312
-0.12943969
-0.083970468
-0.13601429
-0.088684653