/*--------------------------------*- C++ -*----------------------------------*\
  =========                 |
  \\      /  F ield         | OpenFOAM: The Open Source CFD Toolbox
   \\    /   O peration     | Website:  https://openfoam.org
    \\  /    A nd           | Version:  6
     \\/     M anipulation  |
\*---------------------------------------------------------------------------*/
FoamFile
{
    version     2.0;
    format      ascii;
    class       volScalarField;
    location    "500";
    object      rho;
}
// * * * * * * * * * * * * * * * * * * * * * * * * * * * * * * * * * * * * * //

dimensions      [1 -3 0 0 0 0 0];

internalField   nonuniform List<scalar> 
16000
(
1.1557259
1.1612705
1.159585
1.1609428
1.1604821
1.1612171
1.1611721
1.1616822
1.1618266
1.1622418
1.1624876
1.1628652
1.1631703
1.1635391
1.1638812
1.1642548
1.164622
1.1650059
1.1653913
1.1657865
1.1661853
1.1665902
1.1669985
1.1674102
1.1678237
1.1682383
1.1686526
1.1690656
1.1694758
1.1698821
1.170283
1.1706773
1.1710636
1.1714406
1.1718065
1.1721605
1.1725015
1.1728284
1.1731401
1.1734355
1.1737139
1.1739745
1.1742166
1.1744399
1.1746438
1.1748282
1.174993
1.175138
1.1752635
1.1753694
1.1754561
1.1755239
1.1755732
1.1756043
1.1756178
1.1756141
1.1755938
1.1755574
1.1755054
1.1754384
1.1753569
1.1752619
1.175153
1.1750324
1.1748973
1.1747536
1.1745897
1.1744263
1.1742232
1.1740518
1.1737788
1.1736438
1.1732261
1.1732668
1.1724372
1.1730035
1.1711232
1.1731261
1.1690504
1.1735138
1.1561477
1.1617078
1.1599478
1.1613737
1.1608938
1.1616803
1.1616347
1.1621828
1.1623384
1.1627837
1.1630481
1.1634519
1.1637788
1.164172
1.1645371
1.1649341
1.1653241
1.1657305
1.1661378
1.1665541
1.1669732
1.1673972
1.1678234
1.1682516
1.16868
1.1691078
1.1695334
1.1699555
1.1703727
1.1707835
1.1711866
1.1715804
1.1719637
1.1723348
1.1726927
1.1730359
1.173363
1.1736735
1.1739663
1.1742406
1.1744958
1.1747312
1.1749466
1.1751416
1.1753161
1.1754702
1.1756039
1.1757175
1.1758114
1.1758859
1.1759416
1.175979
1.1759986
1.1760011
1.175987
1.175957
1.1759118
1.1758519
1.1757779
1.1756904
1.1755899
1.1754771
1.1753524
1.1752166
1.1750691
1.1749118
1.1747405
1.1745622
1.174361
1.1741654
1.1739176
1.1737261
1.173376
1.1732876
1.1726463
1.1729441
1.1714208
1.1729759
1.1693201
1.1734471
1.1567331
1.1623029
1.160495
1.1619866
1.1614977
1.1623286
1.1622915
1.1628731
1.1630466
1.1635196
1.1638065
1.1642354
1.1645864
1.1650036
1.1653928
1.165813
1.1662261
1.1666545
1.1670832
1.1675196
1.1679579
1.1683996
1.1688419
1.1692844
1.1697252
1.1701632
1.1705967
1.1710242
1.1714442
1.1718552
1.1722554
1.1726436
1.1730181
1.1733777
1.173721
1.1740468
1.1743542
1.1746416
1.1749089
1.1751555
1.1753809
1.1755848
1.175767
1.1759276
1.1760667
1.1761847
1.176282
1.1763591
1.1764166
1.1764552
1.1764756
1.1764786
1.1764649
1.1764353
1.1763905
1.1763313
1.1762584
1.1761724
1.1760741
1.1759638
1.1758423
1.1757101
1.1755675
1.1754152
1.1752531
1.1750817
1.1748994
1.1747081
1.1745011
1.1742892
1.1740466
1.1738238
1.1735114
1.173336
1.1728159
1.1729287
1.1716612
1.1728543
1.1695674
1.1733464
1.1575097
1.1630739
1.1612386
1.1627973
1.1623016
1.1631801
1.1631537
1.1637714
1.1639655
1.1644687
1.1647809
1.1652372
1.165615
1.1660583
1.1664738
1.166919
1.167357
1.1678086
1.1682598
1.1687171
1.1691746
1.1696336
1.1700912
1.1705467
1.170998
1.1714437
1.1718821
1.1723113
1.1727299
1.173136
1.173528
1.1739044
1.1742638
1.1746047
1.174926
1.1752266
1.1755056
1.1757624
1.1759958
1.1762061
1.1763933
1.176557
1.1766977
1.1768157
1.1769114
1.1769856
1.177039
1.1770724
1.1770867
1.1770829
1.177062
1.1770249
1.1769725
1.1769058
1.1768257
1.176733
1.1766286
1.1765131
1.1763871
1.1762513
1.1761062
1.1759522
1.1757899
1.1756195
1.1754412
1.1752551
1.1750603
1.174857
1.1746418
1.1744182
1.1741749
1.1739328
1.1736396
1.1734132
1.1729664
1.1729444
1.171883
1.1727878
1.1698201
1.1733628
1.1584686
1.1640082
1.1621728
1.163801
1.1633041
1.1642321
1.1642218
1.1648778
1.1650973
1.1656328
1.1659743
1.1664601
1.1668678
1.1673391
1.1677831
1.1682547
1.1687187
1.1691943
1.1696682
1.1701459
1.170622
1.1710969
1.1715679
1.1720337
1.1724922
1.1729418
1.1733804
1.1738062
1.1742174
1.1746123
1.1749892
1.1753465
1.1756828
1.1759969
1.1762876
1.1765543
1.1767961
1.1770127
1.177204
1.1773693
1.1775094
1.1776249
1.177716
1.1777837
1.1778288
1.1778524
1.1778555
1.1778392
1.1778049
1.1777536
1.1776866
1.1776051
1.1775102
1.177403
1.1772844
1.1771554
1.1770168
1.1768694
1.1767138
1.1765506
1.1763802
1.1762031
1.1760196
1.1758301
1.1756345
1.175433
1.1752247
1.1750092
1.1747843
1.1745505
1.1743025
1.1740478
1.1737627
1.1735026
1.1731079
1.1729797
1.172086
1.1727588
1.1700618
1.1733966
1.1596265
1.1651306
1.1633162
1.1650164
1.1645235
1.1655034
1.1655145
1.1662106
1.1664603
1.16703
1.1674047
1.1679222
1.1683626
1.1688639
1.1693383
1.1698375
1.1703286
1.1708285
1.171325
1.1718225
1.1723157
1.1728045
1.173286
1.1737587
1.1742202
1.1746686
1.1751017
1.1755176
1.1759144
1.1762903
1.1766436
1.1769729
1.1772768
1.1775544
1.1778048
1.1780274
1.178222
1.1783886
1.1785272
1.1786384
1.1787222
1.1787804
1.1788136
1.178823
1.17881
1.1787759
1.1787223
1.1786505
1.178562
1.1784584
1.178341
1.1782111
1.1780701
1.1779192
1.1777593
1.1775914
1.1774165
1.1772353
1.1770483
1.1768562
1.1766592
1.1764579
1.1762524
1.176043
1.1758296
1.1756122
1.1753901
1.1751624
1.1749277
1.1746848
1.1744309
1.1741674
1.173885
1.1736041
1.1732449
1.1730364
1.1722827
1.1727588
1.1703122
1.1734632
1.1609993
1.1664884
1.1646883
1.166462
1.1659776
1.1670106
1.1670478
1.1677853
1.1680697
1.1686752
1.1690867
1.1696375
1.1701132
1.1706459
1.1711522
1.17168
1.1721984
1.1727225
1.1732406
1.1737562
1.174264
1.1747634
1.1752514
1.1757259
1.1761844
1.1766249
1.177045
1.1774426
1.1778159
1.178163
1.1784825
1.178773
1.1790336
1.1792635
1.1794622
1.1796296
1.1797659
1.1798715
1.1799472
1.1799938
1.1800124
1.1800042
1.1799712
1.1799147
1.1798366
1.1797386
1.1796225
1.1794901
1.1793431
1.1791832
1.1790119
1.1788308
1.1786412
1.1784443
1.1782413
1.178033
1.1778205
1.1776043
1.1773851
1.1771633
1.1769392
1.1767132
1.1764853
1.1762557
1.1760244
1.175791
1.1755551
1.1753155
1.1750707
1.1748194
1.1745593
1.1742896
1.1740069
1.1737137
1.17338
1.173113
1.1724771
1.1727758
1.1705635
1.173557
1.162591
1.1680965
1.1662919
1.168142
1.1676724
1.1687607
1.1688304
1.1696117
1.1699362
1.1705801
1.1710328
1.1716195
1.1721335
1.1726995
1.1732395
1.1737965
1.1743424
1.1748897
1.1754277
1.1759587
1.1764775
1.1769828
1.1774713
1.1779408
1.1783886
1.1788123
1.1792095
1.1795783
1.1799168
1.1802233
1.1804966
1.1807358
1.1809401
1.1811094
1.1812438
1.1813435
1.1814095
1.1814427
1.1814444
1.1814163
1.18136
1.1812769
1.1811696
1.1810402
1.1808906
1.1807232
1.1805398
1.1803426
1.1801335
1.1799143
1.1796866
1.1794522
1.1792123
1.1789682
1.178721
1.1784716
1.1782209
1.1779694
1.1777177
1.1774662
1.177215
1.1769643
1.1767142
1.1764647
1.1762157
1.1759667
1.1757173
1.1754662
1.1752121
1.1749531
1.1746873
1.1744132
1.174129
1.1738301
1.1735135
1.1732061
1.1726719
1.1728125
1.1708335
1.1736818
1.1643963
1.1699365
1.1681309
1.1700628
1.1696161
1.1707638
1.1708743
1.1717027
1.1720745
1.1727601
1.1732591
1.1738845
1.1744401
1.1750412
1.175616
1.1762024
1.1767748
1.1773434
1.1778983
1.1784402
1.1789643
1.1794685
1.1799495
1.1804046
1.1808311
1.1812264
1.1815884
1.181915
1.1822047
1.1824562
1.1826687
1.1828417
1.1829752
1.1830695
1.1831255
1.1831443
1.1831272
1.1830761
1.182993
1.1828801
1.1827396
1.1825737
1.1823852
1.1821767
1.1819505
1.1817091
1.1814548
1.1811898
1.1809163
1.180636
1.1803507
1.180062
1.1797713
1.1794798
1.1791884
1.1788981
1.1786095
1.1783233
1.1780397
1.177759
1.1774813
1.1772067
1.1769351
1.1766664
1.1764003
1.1761366
1.1758743
1.1756126
1.1753498
1.1750842
1.1748136
1.1745365
1.1742509
1.1739511
1.1736458
1.1733131
1.1728667
1.1728669
1.1711217
1.1738185
1.1664356
1.1720255
1.1702251
1.1722446
1.1718295
1.1730405
1.1732003
1.1740795
1.1745053
1.1752362
1.1757862
1.1764532
1.1770528
1.1776902
1.1783
1.1789147
1.1795113
1.1800974
1.1806636
1.1812098
1.1817308
1.1822241
1.1826862
1.1831143
1.1835056
1.1838577
1.1841685
1.1844366
1.1846606
1.18484
1.1849746
1.1850647
1.1851109
1.1851147
1.1850775
1.1850013
1.1848885
1.1847414
1.184563
1.184356
1.1841233
1.1838678
1.1835922
1.1832997
1.182993
1.1826748
1.1823474
1.1820132
1.1816743
1.1813325
1.1809896
1.1806471
1.1803062
1.179968
1.1796335
1.1793034
1.1789782
1.1786583
1.1783441
1.1780356
1.1777327
1.1774354
1.1771435
1.1768568
1.176575
1.1762974
1.1760236
1.1757522
1.175482
1.1752109
1.1749367
1.1746581
1.174372
1.174075
1.1737769
1.1734326
1.1730605
1.1729395
1.1714332
1.1739617
1.1687332
1.1743806
1.1725922
1.1747058
1.1743319
1.1756107
1.1758294
1.1767634
1.1772509
1.1780307
1.1786365
1.1793476
1.1799931
1.1806672
1.1813106
1.1819508
1.1825668
1.1831637
1.183733
1.184273
1.1847788
1.1852475
1.1856754
1.1860597
1.1863978
1.1866877
1.1869279
1.1871174
1.1872558
1.1873434
1.1873808
1.1873693
1.1873108
1.1872076
1.1870621
1.1868773
1.1866564
1.1864028
1.1861198
1.1858109
1.1854796
1.1851292
1.1847626
1.1843832
1.183994
1.1835977
1.1831968
1.1827935
1.1823899
1.1819877
1.1815886
1.1811938
1.1808046
1.1804218
1.1800462
1.1796783
1.1793186
1.1789672
1.1786243
1.1782899
1.1779637
1.1776455
1.1773351
1.1770321
1.1767359
1.1764462
1.1761621
1.1758825
1.1756061
1.1753309
1.1750547
1.174776
1.1744909
1.1741995
1.1739062
1.1735619
1.1732503
1.173028
1.1717534
1.1740996
1.1713179
1.1770154
1.1752491
1.1774659
1.1771457
1.1784981
1.1787874
1.1797811
1.1803384
1.1811711
1.181837
1.182594
1.1832857
1.1839946
1.1846679
1.1853274
1.1859545
1.1865519
1.1871112
1.1876301
1.1881037
1.1885287
1.1889018
1.1892205
1.1894827
1.1896871
1.1898331
1.1899206
1.1899505
1.1899241
1.1898434
1.1897109
1.1895297
1.1893032
1.1890351
1.1887292
1.1883895
1.1880203
1.1876255
1.1872091
1.186775
1.1863268
1.1858675
1.1854006
1.184929
1.1844556
1.1839826
1.1835122
1.1830463
1.1825863
1.1821337
1.1816897
1.1812551
1.1808307
1.1804169
1.1800142
1.1796228
1.1792426
1.1788738
1.178516
1.1781689
1.1778321
1.1775053
1.177188
1.1768795
1.1765794
1.1762868
1.1760007
1.1757197
1.175442
1.1751655
1.1748881
1.1746062
1.1743221
1.1740329
1.1736981
1.1734335
1.1731289
1.172074
1.1742298
1.1742039
1.1799624
1.1782286
1.1805577
1.180305
1.1817364
1.1821083
1.1831662
1.1838009
1.1846896
1.1854181
1.1862207
1.1869562
1.1876948
1.1883901
1.1890585
1.1896831
1.1902646
1.1907951
1.1912716
1.1916895
1.1920456
1.1923373
1.1925628
1.1927211
1.1928121
1.1928364
1.1927955
1.1926917
1.192528
1.1923077
1.1920349
1.191714
1.1913495
1.1909462
1.190509
1.1900425
1.1895516
1.1890407
1.1885141
1.1879759
1.1874298
1.1868787
1.1863261
1.1857748
1.1852273
1.1846857
1.184152
1.1836276
1.183114
1.1826122
1.182123
1.1816471
1.181185
1.180737
1.1803032
1.1798835
1.179478
1.1790864
1.1787082
1.1783431
1.1779905
1.1776498
1.1773206
1.177002
1.1766936
1.1763945
1.1761038
1.17582
1.1755415
1.1752664
1.174992
1.1747155
1.1744403
1.1741557
1.1738383
1.1736092
1.1732408
1.1723916
1.1743582
1.1774168
1.1832513
1.1815626
1.1840142
1.1838457
1.1853617
1.1858294
1.1869559
1.1876746
1.1886211
1.1894122
1.190257
1.1910294
1.1917878
1.1924911
1.1931511
1.1937524
1.1942941
1.1947689
1.1951737
1.1955045
1.1957591
1.195936
1.1960349
1.1960563
1.1960018
1.1958742
1.1956767
1.1954134
1.1950892
1.1947091
1.1942786
1.1938034
1.1932892
1.1927418
1.1921666
1.191569
1.190954
1.1903264
1.1896905
1.1890502
1.1884092
1.1877703
1.1871364
1.1865103
1.1858939
1.1852892
1.1846977
1.1841204
1.1835586
1.1830128
1.1824836
1.1819714
1.1814764
1.1809987
1.1805381
1.1800944
1.1796674
1.1792565
1.1788615
1.1784815
1.178116
1.1777644
1.1774259
1.1770998
1.1767854
1.176482
1.1761886
1.175904
1.1756265
1.1753546
1.1750851
1.1748163
1.174551
1.1742729
1.1739791
1.1737756
1.173362
1.1727013
1.1744796
1.180991
1.1869198
1.1852924
1.1878774
1.1878128
1.1894183
1.1899956
1.1911942
1.1920009
1.193004
1.1938531
1.1947311
1.1955267
1.1962868
1.1969756
1.1976003
1.1981476
1.1986154
1.1989976
1.1992917
1.1994954
1.199608
1.1996301
1.1995635
1.1994111
1.1991771
1.1988662
1.1984842
1.1980372
1.1975319
1.1969751
1.1963735
1.1957341
1.1950634
1.1943676
1.1936528
1.1929244
1.1921875
1.1914468
1.1907062
1.1899695
1.18924
1.1885199
1.1878118
1.187118
1.18644
1.1857793
1.1851369
1.1845136
1.18391
1.1833266
1.1827634
1.1822206
1.1816981
1.1811958
1.1807131
1.1802499
1.1798055
1.1793795
1.1789712
1.1785799
1.1782047
1.1778451
1.1775002
1.1771692
1.1768514
1.1765459
1.176252
1.1759685
1.1756941
1.175427
1.1751643
1.1749055
1.1746509
1.1743822
1.174116
1.1739283
1.1734897
1.1730042
1.1745857
1.1849706
1.1910136
1.1894676
1.1921958
1.192258
1.1939566
1.1946571
1.1959305
1.1968246
1.1978768
1.1987715
1.1996645
1.200459
1.2011912
1.2018301
1.2023801
1.2028297
1.2031772
1.2034184
1.2035528
1.2035806
1.2035038
1.203326
1.2030521
1.202688
1.2022405
1.2017174
1.2011266
1.2004763
1.1997749
1.1990304
1.1982508
1.1974436
1.1966157
1.1957735
1.194923
1.1940695
1.1932177
1.1923717
1.1915351
1.1907111
1.1899024
1.1891104
1.1883374
1.187585
1.1868542
1.186146
1.1854608
1.1847992
1.1841613
1.1835471
1.1829565
1.1823893
1.1818451
1.1813234
1.1808238
1.1803457
1.1798884
1.1794513
1.1790336
1.1786344
1.178253
1.1778885
1.17754
1.1772068
1.1768881
1.176583
1.1762907
1.1760104
1.1757408
1.1754803
1.1752263
1.1749793
1.1747362
1.1744806
1.1742443
1.1740647
1.1736218
1.1732957
1.1746725
1.1894041
1.195579
1.1941418
1.1970232
1.1972446
1.1990407
1.1998703
1.2012141
1.2021873
1.2032708
1.2041862
1.2050623
1.2058163
1.2064751
1.207013
1.2074327
1.2077261
1.2078932
1.2079335
1.2078497
1.2076459
1.2073282
1.206904
1.2063818
1.205771
1.2050815
1.2043234
1.2035069
1.2026418
1.2017375
1.2008031
1.1998466
1.1988758
1.1978973
1.1969174
1.1959412
1.1949736
1.1940185
1.1930793
1.1921587
1.1912594
1.1903832
1.1895307
1.1887037
1.1879031
1.1871295
1.1863831
1.1856641
1.1849725
1.1843081
1.1836704
1.1830592
1.1824739
1.1819138
1.1813784
1.180867
1.1803788
1.1799129
1.1794688
1.1790454
1.178642
1.1782575
1.1778912
1.1775422
1.1772095
1.1768924
1.17659
1.1763016
1.1760263
1.1757633
1.1755109
1.1752674
1.1750335
1.1748029
1.1745642
1.174358
1.1741794
1.1737505
1.1735692
1.1747402
1.1943697
1.2006866
1.1994056
1.2024427
1.2028527
1.2047424
1.2056933
1.2070879
1.2081193
1.2092026
1.2100963
1.2109041
1.2115572
1.2120759
1.212441
1.2126561
1.2127185
1.2126323
1.2124023
1.2120362
1.2115434
1.2109348
1.210222
1.2094177
1.2085342
1.2075841
1.2065794
1.2055316
1.2044514
1.2033484
1.2022315
1.2011087
1.1999868
1.1988718
1.197769
1.1966827
1.1956167
1.1945738
1.1935566
1.1925669
1.1916065
1.1906762
1.1897758
1.1889069
1.1880694
1.1872634
1.1864887
1.185745
1.1850319
1.1843488
1.1836951
1.18307
1.1824728
1.1819028
1.1813591
1.1808408
1.180347
1.179877
1.1794298
1.1790045
1.1786002
1.1782159
1.1778507
1.1775038
1.1771742
1.1768611
1.1765637
1.1762811
1.1760128
1.1757579
1.175515
1.1752835
1.1750634
1.1748464
1.1746283
1.1744498
1.1742674
1.1738701
1.1738125
1.174783
1.2000408
1.206494
1.205435
1.2085905
1.2091585
1.2110996
1.2121768
1.2136007
1.2146445
1.2156683
1.2164673
1.2171244
1.2175867
1.2178718
1.2179695
1.2178879
1.2176319
1.2172121
1.2166403
1.2159306
1.2150981
1.2141586
1.2131279
1.2120217
1.2108546
1.2096406
1.2083926
1.207122
1.2058392
1.2045532
1.203272
1.2020021
1.2007494
1.1995184
1.198313
1.1971365
1.1959911
1.1948788
1.1938009
1.1927584
1.1917522
1.1907819
1.1898471
1.1889485
1.1880855
1.1872577
1.1864645
1.1857051
1.1849788
1.1842847
1.1836219
1.1829895
1.1823865
1.181812
1.181265
1.1807445
1.1802497
1.1797794
1.1793329
1.1789091
1.178507
1.1781259
1.1777646
1.1774223
1.1770982
1.1767913
1.1765009
1.1762262
1.1759666
1.1757212
1.1754891
1.1752704
1.1750643
1.1748622
1.1746667
1.174512
1.1743271
1.1739766
1.1740147
1.1747973
1.2065088
1.2130061
1.2121619
1.2153743
1.2162448
1.2183075
1.2194109
1.2207744
1.2217367
1.2225937
1.2231839
1.2235718
1.2237232
1.2236578
1.2233772
1.2228978
1.222234
1.2214051
1.2204304
1.2193305
1.2181255
1.2168352
1.2154779
1.2140706
1.2126287
1.211166
1.2096943
1.2082241
1.206764
1.2053216
1.2039028
1.2025126
1.201155
1.199833
1.1985489
1.1973044
1.1961008
1.1949386
1.1938181
1.1927397
1.1917031
1.1907071
1.189751
1.1888346
1.1879571
1.1871176
1.1863151
1.1855484
1.1848167
1.1841187
1.1834534
1.1828197
1.1822164
1.1816426
1.181097
1.1805787
1.1800867
1.1796199
1.1791774
1.1787581
1.1783613
1.1779858
1.1776308
1.1772955
1.1769789
1.1766802
1.1763986
1.1761334
1.175884
1.1756495
1.1754293
1.175224
1.175032
1.1748455
1.174673
1.1745398
1.174363
1.1740625
1.1741632
1.1747778
1.2137428
1.2202591
1.2197916
1.2232406
1.2241742
1.2261606
1.2272816
1.2284662
1.2292252
1.2297774
1.2300114
1.2299842
1.2296841
1.2291399
1.2283686
1.2273976
1.2262523
1.2249601
1.2235471
1.2220384
1.220457
1.2188238
1.2171574
1.215474
1.2137873
1.212109
1.2104489
1.2088147
1.2072129
1.2056484
1.204125
1.2026457
1.2012125
1.1998267
1.198489
1.1971999
1.1959593
1.1947666
1.1936214
1.1925234
1.1914712
1.1904626
1.1894973
1.1885744
1.1876926
1.1868506
1.1860471
1.185281
1.1845509
1.1838554
1.1831935
1.1825639
1.1819653
1.1813965
1.1808566
1.1803443
1.1798586
1.1793985
1.1789629
1.178551
1.1781618
1.1777943
1.1774477
1.1771211
1.1768138
1.1765248
1.1762535
1.1759992
1.1757611
1.1755386
1.1753312
1.1751397
1.1749617
1.1747912
1.1746414
1.1745292
1.1743652
1.1741052
1.174255
1.1747332
1.2220882
1.2286919
1.228536
1.2318861
1.2329635
1.2347671
1.2356982
1.2365282
1.2368736
1.236922
1.2366074
1.2359935
1.2350941
1.2339516
1.2325989
1.2310736
1.2294099
1.2276401
1.2257934
1.2238955
1.2219687
1.2200319
1.2181009
1.2161885
1.2143052
1.2124592
1.2106567
1.2089027
1.2072005
1.2055524
1.2039601
1.2024244
1.2009453
1.1995228
1.1981562
1.1968447
1.1955871
1.1943822
1.1932288
1.192126
1.1910713
1.1900623
1.1890988
1.1881792
1.187302
1.1864657
1.1856688
1.1849099
1.1841875
1.1835002
1.1828468
1.1822258
1.1816362
1.1810765
1.1805458
1.1800427
1.1795664
1.1791156
1.1786896
1.1782872
1.1779077
1.17755
1.1772135
1.1768972
1.1766004
1.1763224
1.1760624
1.1758198
1.175594
1.1753841
1.1751902
1.1750126
1.1748481
1.1746936
1.1745642
1.174467
1.174316
1.1741077
1.1742844
1.1746448
1.2318839
1.2382394
1.2384268
1.2415507
1.2424903
1.243849
1.2443146
1.2445192
1.2441964
1.2435162
1.2424628
1.2411132
1.2395058
1.237696
1.2357277
1.2336442
1.231482
1.2292731
1.227044
1.2248167
1.2226088
1.2204342
1.2183036
1.216225
1.2142045
1.2122461
1.2103526
1.2085254
1.2067652
1.2050721
1.2034454
1.2018842
1.2003871
1.1989528
1.1975796
1.1962656
1.1950089
1.1938077
1.1926607
1.1915657
1.1905198
1.1895211
1.1885687
1.1876609
1.186796
1.1859723
1.1851881
1.1844421
1.1837326
1.1830582
1.1824175
1.1818093
1.1812321
1.1806848
1.1801662
1.1796752
1.1792106
1.1787716
1.1783571
1.1779662
1.1775979
1.1772516
1.1769263
1.1766214
1.1763361
1.1760698
1.1758217
1.1755914
1.1753782
1.1751814
1.1750011
1.1748372
1.1746863
1.1745479
1.1744365
1.1743497
1.1742142
1.1740604
1.1742399
1.1744945
1.2432055
1.2488322
1.2490924
1.2516714
1.2521756
1.2527605
1.2524382
1.2517315
1.2504964
1.248902
1.2469808
1.2448223
1.2424824
1.2400207
1.237483
1.2349093
1.2323309
1.2297727
1.2272537
1.2247883
1.2223868
1.2200566
1.2178025
1.2156273
1.2135324
1.2115181
1.2095838
1.2077285
1.2059504
1.2042476
1.202618
1.2010593
1.199569
1.1981449
1.1967845
1.1954854
1.1942451
1.1930616
1.1919333
1.190857
1.1898295
1.18885
1.1879168
1.187028
1.1861819
1.1853766
1.1846107
1.1838823
1.1831902
1.1825327
1.1819085
1.1813162
1.1807546
1.1802224
1.1797185
1.1792418
1.1787912
1.1783657
1.1779644
1.1775864
1.1772309
1.176897
1.176584
1.1762912
1.1760179
1.1757636
1.1755277
1.1753097
1.175109
1.174925
1.174758
1.1746073
1.1744698
1.1743472
1.1742512
1.1741724
1.1740548
1.1739498
1.1741153
1.1742824
1.2550136
1.2599198
1.2600329
1.2616167
1.2612582
1.2606465
1.2591791
1.2572972
1.2549771
1.2523862
1.2495881
1.2466702
1.243688
1.2406915
1.2377159
1.2347885
1.2319287
1.2291497
1.2264604
1.2238662
1.2213698
1.218972
1.2166723
1.2144691
1.2123602
1.2103431
1.2084146
1.2065718
1.2048113
1.2031301
1.2015249
1.1999926
1.1985303
1.1971349
1.1958038
1.1945338
1.1933227
1.1921684
1.1910686
1.1900195
1.1890187
1.1880655
1.1871578
1.1862938
1.1854716
1.1846895
1.1839458
1.1832391
1.1825676
1.1819301
1.1813251
1.1807514
1.1802076
1.1796926
1.1792052
1.1787445
1.1783093
1.1778987
1.1775118
1.1771477
1.1768057
1.1764849
1.1761847
1.1759043
1.1756433
1.175401
1.175177
1.1749708
1.1747818
1.1746099
1.174455
1.1743162
1.1741914
1.1740833
1.174
1.1739283
1.1738297
1.1737621
1.1739034
1.1740011
1.2673828
1.2711979
1.2706248
1.2703906
1.2686043
1.2664002
1.2635667
1.2604427
1.2570813
1.253618
1.2501143
1.246633
1.2432108
1.2398762
1.2366461
1.2335316
1.2305381
1.2276678
1.2249202
1.2222935
1.2197845
1.2173895
1.2151042
1.2129241
1.2108449
1.2088618
1.2069708
1.2051674
1.2034477
1.2018077
1.2002439
1.1987527
1.1973309
1.1959753
1.1946828
1.1934504
1.192276
1.1911575
1.1900915
1.1890744
1.1881053
1.1871825
1.1863041
1.1854682
1.184673
1.1839168
1.183198
1.1825151
1.1818665
1.1812509
1.1806669
1.1801133
1.1795889
1.1790924
1.1786229
1.1781792
1.1777605
1.1773657
1.176994
1.1766445
1.1763166
1.1760094
1.1757222
1.1754546
1.1752058
1.1749754
1.1747629
1.1745678
1.1743899
1.1742288
1.1740846
1.1739562
1.1738425
1.1737467
1.1736734
1.1736086
1.1735292
1.1734908
1.173603
1.1736438
1.279456
1.2797564
1.2777688
1.2751889
1.2717569
1.2680053
1.263993
1.2599179
1.2558463
1.2518545
1.2479759
1.2442365
1.2406481
1.237217
1.2339433
1.2308245
1.2278556
1.2250311
1.2223443
1.2197889
1.217358
1.2150448
1.2128432
1.210747
1.2087508
1.2068493
1.2050378
1.2033115
1.2016663
1.2000981
1.1986033
1.1971783
1.1958199
1.1945248
1.19329
1.1921128
1.1909915
1.189923
1.1889038
1.1879314
1.1870054
1.1861234
1.1852839
1.1844849
1.1837249
1.1830021
1.1823151
1.1816624
1.1810426
1.1804544
1.1798965
1.1793678
1.178867
1.178393
1.177945
1.1775217
1.1771224
1.1767462
1.1763922
1.1760595
1.1757476
1.1754557
1.175183
1.1749292
1.1746935
1.1744756
1.174275
1.1740911
1.1739238
1.1737729
1.1736382
1.1735186
1.1734139
1.173327
1.1732597
1.1731991
1.1731346
1.1731182
1.17321
1.1732141
1.2849076
1.2822085
1.2786483
1.274427
1.2699277
1.2653697
1.2608566
1.2564733
1.2522513
1.248214
1.2443668
1.2407103
1.2372381
1.2339422
1.2308135
1.2278427
1.2250206
1.2223385
1.2197879
1.2173611
1.2150513
1.2128524
1.2107582
1.2087629
1.2068612
1.2050482
1.2033193
1.2016703
1.2000972
1.1985963
1.1971642
1.1957977
1.1944939
1.1932495
1.192062
1.1909294
1.1898499
1.1888201
1.1878367
1.1868993
1.1860061
1.1851554
1.1843454
1.1835744
1.1828408
1.1821432
1.1814801
1.1808501
1.1802518
1.1796841
1.1791457
1.1786355
1.1781524
1.1776953
1.1772632
1.1768553
1.1764705
1.176108
1.1757671
1.175447
1.1751469
1.1748661
1.1746042
1.1743603
1.1741342
1.1739251
1.1737328
1.1735568
1.1733968
1.1732525
1.1731237
1.1730098
1.1729106
1.1728281
1.1727623
1.1727054
1.1726543
1.1726391
1.1726856
1.1726883
1.2764039
1.273343
1.2698889
1.2657268
1.261501
1.2572625
1.2531349
1.2491519
1.2453344
1.2416895
1.2382151
1.2349076
1.2317602
1.2287657
1.2259164
1.2232044
1.2206224
1.2181631
1.2158197
1.2135859
1.2114552
1.2094227
1.2074838
1.2056337
1.2038684
1.2021836
1.2005755
1.1990407
1.1975755
1.196177
1.1948421
1.193568
1.192352
1.1911915
1.1900845
1.1890292
1.1880229
1.1870622
1.1861453
1.1852715
1.1844389
1.1836459
1.1828909
1.1821723
1.1814887
1.1808388
1.1802211
1.1796345
1.1790776
1.1785494
1.1780487
1.1775745
1.1771256
1.1767012
1.1763003
1.175922
1.1755654
1.1752297
1.1749142
1.1746182
1.1743409
1.1740816
1.1738399
1.1736151
1.1734066
1.1732141
1.173037
1.172875
1.1727277
1.1725949
1.1724763
1.1723715
1.1722804
1.1722039
1.1721415
1.17209
1.1720493
1.1720315
1.1720443
1.1720495
1.2406882
1.248363
1.2488221
1.2485917
1.2469477
1.2448319
1.2423271
1.2396728
1.2369367
1.2341969
1.2314854
1.2288301
1.2262443
1.2237377
1.221315
1.2189785
1.2167287
1.214565
1.212486
1.21049
1.2085745
1.2067368
1.204974
1.2032835
1.2016628
1.2001093
1.1986207
1.1971945
1.1958284
1.1945203
1.1932682
1.1920698
1.1909232
1.1898265
1.1887785
1.1877771
1.1868193
1.1859027
1.1850274
1.1841916
1.1833941
1.1826334
1.1819081
1.181217
1.1805589
1.1799324
1.1793365
1.1787701
1.1782319
1.1777211
1.1772365
1.1767772
1.1763422
1.1759306
1.1755416
1.1751742
1.1748278
1.1745015
1.1741945
1.1739063
1.173636
1.1733831
1.1731469
1.1729269
1.1727225
1.1725333
1.1723588
1.1721986
1.1720523
1.1719196
1.1718001
1.1716936
1.1716
1.1715192
1.171451
1.1713946
1.1713504
1.1713204
1.1713057
1.1713027
1.2485132
1.248715
1.2491113
1.2492095
1.2485499
1.2469255
1.2443302
1.241015
1.237223
1.2330804
1.2289242
1.2246657
1.2205034
1.216403
1.2124738
1.2088232
1.2054257
1.2024079
1.1997092
1.1972924
1.1951838
1.1933032
1.1916669
1.1902261
1.1889688
1.1878305
1.1868097
1.1858772
1.1850312
1.1843086
1.1836607
1.1830592
1.1824992
1.1819732
1.1814756
1.1810024
1.1805511
1.1801203
1.1797091
1.1793147
1.1789374
1.1785774
1.1782326
1.1779041
1.1775921
1.1772955
1.1770138
1.1767463
1.1764923
1.1762515
1.176023
1.1758065
1.1756006
1.1754057
1.1752191
1.175043
1.1748716
1.1747117
1.1745501
1.1744047
1.1742451
1.1741157
1.1739463
1.1738401
1.1736408
1.1735758
1.1733114
1.1733224
1.1729293
1.1730879
1.1724476
1.1728834
1.1718413
1.1727399
1.1710269
1.1727029
1.1698946
1.1728212
1.1682913
1.173219
1.1006605
1.1054201
1.1125026
1.1205844
1.1292356
1.1377606
1.1448078
1.1505842
1.1556517
1.1600482
1.1637957
1.1670581
1.1698859
1.1723367
1.1744747
1.1762884
1.1778657
1.1791555
1.1802449
1.1810856
1.181772
1.1822523
1.1826166
1.1828018
1.1828882
1.1828419
1.1827242
1.1825574
1.1823296
1.1820655
1.1817697
1.1814478
1.1811011
1.1807423
1.1803792
1.180017
1.1796596
1.17931
1.1789712
1.1786425
1.1783249
1.1780197
1.1777266
1.177445
1.1771761
1.1769194
1.1766745
1.176441
1.1762186
1.1760068
1.175805
1.1756131
1.1754299
1.1752558
1.1750883
1.1749296
1.1747742
1.1746286
1.1744805
1.1743466
1.1741987
1.1740774
1.1739194
1.173817
1.1736306
1.1735632
1.1733159
1.1733188
1.1729514
1.1730864
1.1724908
1.1728818
1.1718904
1.1727438
1.17108
1.1727155
1.169928
1.1728623
1.1682958
1.1732819
1.205609
1.2063529
1.2086081
1.2113902
1.2122881
1.2115084
1.2101236
1.2084727
1.2066732
1.2048355
1.2029985
1.2012098
1.1994714
1.1978121
1.1962288
1.1947268
1.1933244
1.1920105
1.1908498
1.1897816
1.1887721
1.1878584
1.1869682
1.1861897
1.1854864
1.1848596
1.1843243
1.1838
1.183321
1.1827461
1.1822125
1.181716
1.1812486
1.180809
1.1803929
1.1799975
1.1796204
1.1792603
1.1789163
1.178584
1.1782671
1.1779645
1.1776737
1.1773968
1.1771327
1.1768806
1.1766404
1.1764117
1.1761942
1.1759874
1.1757907
1.1756039
1.1754256
1.1752564
1.1750935
1.1749393
1.1747881
1.1746464
1.1745018
1.174371
1.1742261
1.1741067
1.1739514
1.1738492
1.1736661
1.173596
1.1733542
1.1733503
1.1729848
1.1731104
1.1725302
1.1728952
1.1719385
1.1727456
1.1711311
1.1727065
1.1699798
1.1728566
1.1683333
1.1732916
1.1663816
1.1663766
1.1690043
1.1742548
1.1776402
1.1786424
1.1791497
1.1795898
1.1799957
1.1804671
1.180934
1.1813954
1.1818079
1.1821947
1.1823791
1.1827774
1.1827948
1.1831519
1.1830513
1.1832837
1.183097
1.183221
1.1829736
1.1829779
1.1826562
1.1825206
1.1822421
1.1819226
1.1816319
1.1813309
1.1810142
1.1806938
1.1803712
1.1800479
1.1797264
1.1794087
1.1790963
1.1787909
1.1784923
1.1782022
1.1779226
1.1776531
1.1773939
1.1771449
1.1769061
1.1766776
1.1764592
1.1762509
1.1760523
1.1758631
1.1756828
1.1755112
1.175347
1.1751908
1.17504
1.1748969
1.1747558
1.1746235
1.1744872
1.1743641
1.1742258
1.1741129
1.1739622
1.1738655
1.1736851
1.17362
1.1733795
1.1733798
1.1730144
1.1731436
1.1725579
1.172931
1.1719639
1.1727813
1.1711541
1.172744
1.1700011
1.1728878
1.1683506
1.173318
1.1741625
1.1759009
1.1799035
1.1845778
1.186245
1.1865668
1.186363
1.1862387
1.1860927
1.1859774
1.1858074
1.1856519
1.1854633
1.1852859
1.185084
1.1848694
1.1846496
1.1843984
1.184155
1.183855
1.183604
1.1832443
1.1829696
1.1826025
1.1823154
1.1819616
1.1816424
1.1813303
1.1810138
1.1806989
1.1803891
1.1800839
1.1797839
1.1794893
1.1792005
1.1789178
1.1786413
1.1783717
1.1781079
1.1778513
1.1776034
1.1773638
1.1771324
1.1769094
1.176695
1.1764893
1.1762921
1.1761036
1.1759234
1.1757514
1.175587
1.1754302
1.1752798
1.1751363
1.1749971
1.1748647
1.1747334
1.1746098
1.1744816
1.1743653
1.1742335
1.1741256
1.1739801
1.1738866
1.1737105
1.1736465
1.1734105
1.1734094
1.1730473
1.1731725
1.1725944
1.1729581
1.1720023
1.1728055
1.1711933
1.1727619
1.1700363
1.172906
1.1683758
1.1733363
1.1677131
1.1693593
1.1735765
1.1784494
1.1807062
1.1810687
1.1809667
1.1810551
1.1810867
1.1811792
1.1811808
1.1812041
1.1811872
1.1811847
1.1811505
1.1811222
1.18107
1.1810209
1.1809503
1.1808839
1.1807899
1.1807108
1.1805967
1.1804899
1.18035
1.1802107
1.1800511
1.1798786
1.1796969
1.1795068
1.179308
1.1791033
1.1788938
1.1786806
1.1784652
1.1782488
1.1780327
1.177818
1.1776044
1.1773943
1.1771892
1.1769891
1.1767942
1.1766052
1.1764222
1.1762457
1.1760757
1.1759124
1.1757556
1.1756052
1.1754609
1.1753226
1.1751892
1.1750613
1.1749365
1.174817
1.1746976
1.1745846
1.174466
1.1743581
1.174234
1.1741323
1.1739929
1.1739035
1.1737322
1.1736703
1.1734386
1.173437
1.1730795
1.1732015
1.172626
1.1729864
1.1720349
1.1728316
1.1712238
1.1727861
1.1700659
1.172926
1.1683985
1.173354
1.1668704
1.1688879
1.1735656
1.1781684
1.1798273
1.1801419
1.1800571
1.1800747
1.1800244
1.1800406
1.1799978
1.180009
1.1799688
1.1799639
1.1799266
1.1798967
1.1798419
1.1797939
1.1797288
1.1796611
1.179583
1.1794952
1.1794011
1.1792966
1.1791871
1.1790682
1.1789429
1.1788118
1.1786745
1.1785308
1.1783814
1.1782279
1.1780704
1.1779096
1.1777463
1.1775812
1.1774149
1.1772485
1.1770809
1.1769153
1.1767523
1.1765919
1.1764345
1.1762807
1.1761308
1.1759853
1.1758442
1.1757078
1.1755761
1.175449
1.1753262
1.1752077
1.1750927
1.1749815
1.1748721
1.1747664
1.1746597
1.1745578
1.1744496
1.1743502
1.1742344
1.1741388
1.174006
1.1739204
1.1737547
1.173694
1.1734676
1.1734642
1.1731123
1.1732294
1.1726626
1.1730132
1.172072
1.1728559
1.1712613
1.1728063
1.1700985
1.1729439
1.1684222
1.1733695
1.1643749
1.1666745
1.1717143
1.1760861
1.1774318
1.1776666