/*--------------------------------*- C++ -*----------------------------------*\
  =========                 |
  \\      /  F ield         | OpenFOAM: The Open Source CFD Toolbox
   \\    /   O peration     | Website:  https://openfoam.org
    \\  /    A nd           | Version:  6
     \\/     M anipulation  |
\*---------------------------------------------------------------------------*/
FoamFile
{
    version     2.0;
    format      ascii;
    class       volScalarField;
    location    "500";
    object      T;
}
// * * * * * * * * * * * * * * * * * * * * * * * * * * * * * * * * * * * * * //

dimensions      [0 0 0 1 0 0 0];

internalField   nonuniform List<scalar> 
16000
(
297.5536
296.36487
296.78935
296.62358
296.77089
296.74216
296.81424
296.827
296.87584
296.90398
296.9455
296.98022
297.02003
297.05801
297.09809
297.13802
297.179
297.2203
297.26223
297.30453
297.34723
297.39019
297.43335
297.4766
297.51984
297.56295
297.60581
297.6483
297.69029
297.73164
297.77222
297.81189
297.85051
297.88795
297.92402
297.95865
297.99171
298.0231
298.0527
298.08042
298.10617
298.12988
298.15148
298.17093
298.1882
298.20325
298.21609
298.22671
298.23512
298.24135
298.24545
298.24744
298.2474
298.24539
298.24149
298.23576
298.22828
298.21914
298.20844
298.19628
298.18273
298.16792
298.15187
298.13481
298.11668
298.09805
298.07839
298.05934
298.03856
298.02097
297.99838
297.986
297.95695
297.96024
297.9129
297.95959
297.86923
298.00262
297.84274
298.05721
297.57359
296.39485
296.83722
296.66834
296.82114
296.79235
296.86759
296.88209
296.93324
296.96367
297.0073
297.04442
297.08635
297.12669
297.16893
297.21114
297.25426
297.29773
297.34171
297.38602
297.43062
297.47538
297.52021
297.56499
297.6096
297.6539
297.69777
297.74106
297.78363
297.82534
297.86602
297.90555
297.94377
297.98055
298.01575
298.04923
298.08086
298.11057
298.13826
298.16386
298.18729
298.2085
298.22745
298.24411
298.25848
298.27055
298.28035
298.2879
298.29323
298.2964
298.29746
298.29648
298.29353
298.2887
298.28207
298.27373
298.26376
298.25225
298.23931
298.22503
298.20951
298.19282
298.17505
298.15634
298.13673
298.11654
298.09569
298.07496
298.05355
298.03368
298.01172
297.99527
297.97082
297.96395
297.92843
297.95501
297.8876
297.99068
297.86239
298.03775
297.61456
296.45035
296.90351
296.73312
296.89017
296.86323
296.94094
296.95814
297.01144
297.04469
297.09053
297.13039
297.17464
297.21757
297.26219
297.30684
297.35228
297.39802
297.44417
297.49054
297.53706
297.58361
297.63005
297.67625
297.72207
297.76737
297.81199
297.85577
297.89855
297.94018
297.9805
298.01935
298.05659
298.09208
298.12568
298.15729
298.18679
298.21404
298.23902
298.26168
298.28196
298.29983
298.31528
298.32832
298.33897
298.34726
298.35324
298.35695
298.35847
298.35786
298.35522
298.35062
298.34415
298.33593
298.32605
298.31461
298.30169
298.28739
298.27183
298.2551
298.23728
298.21847
298.19873
298.17819
298.15691
298.13512
298.1129
298.09067
298.06828
298.04675
298.0247
298.00559
297.98318
297.97114
297.94176
297.95505
297.9038
297.98467
297.87934
298.03589
297.67522
296.53063
296.98913
296.81841
296.97938
296.95485
297.03504
297.05532
297.11092
297.14726
297.1955
297.23828
297.28505
297.33073
297.37785
297.42506
297.47288
297.52095
297.56927
297.61768
297.66605
297.71426
297.76214
297.80955
297.85632
297.90228
297.94726
297.99109
298.0336
298.07461
298.11396
298.1515
298.18708
298.22056
298.25182
298.28076
298.30728
298.33133
298.3528
298.3717
298.38803
298.40178
298.41297
298.42165
298.42787
298.43169
298.43319
298.43246
298.42958
298.42466
298.41781
298.40913
298.39872
298.38671
298.37321
298.35833
298.34216
298.3248
298.30635
298.28693
298.26661
298.24549
298.22362
298.2011
298.17801
298.15452
298.13077
298.10705
298.08343
298.06045
298.03766
298.01674
297.99481
297.97912
297.95414
297.95729
297.91742
297.98179
297.8938
298.0339
297.75516
296.63724
297.09442
296.92481
297.08913
297.06803
297.15055
297.17455
297.23255
297.2724
297.32328
297.3693
297.41881
297.46746
297.51729
297.56721
297.61755
297.66802
297.71854
297.76896
297.81911
297.86884
297.91797
297.96632
298.0137
298.05992
298.1048
298.14815
298.18978
298.22952
298.26719
298.30265
298.33575
298.36637
298.39441
298.41978
298.44242
298.46228
298.47936
298.49359
298.50507
298.51383
298.51993
298.52344
298.52445
298.52308
298.51942
298.51359
298.50573
298.49595
298.48438
298.47114
298.45637
298.44018
298.42271
298.40406
298.38435
298.36366
298.34211
298.3198
298.2968
298.2732
298.24906
298.22445
298.19947
298.17422
298.14888
298.12366
298.09874
298.07444
298.05074
298.02842
298.0064
297.98835
297.96585
297.96198
297.93016
297.98106
297.90715
298.03691
297.85515
296.76816
297.22005
297.05319
297.22037
297.20372
297.28854
297.3169
297.37752
297.42129
297.47508
297.52462
297.57714
297.62896
297.68168
297.73442
297.78736
297.84024
297.89293
297.94525
297.99701
298.04802
298.09808
298.14697
298.1945
298.24045
298.28461
298.32678
298.36678
298.40443
298.43955
298.47201
298.50167
298.52845
298.55226
298.57304
298.59077
298.60546
298.61711
298.62577
298.63147
298.63436
298.63453
298.63209
298.62717
298.61992
298.61048
298.59901
298.58564
298.57053
298.55382
298.53566
298.51619
298.49553
298.47382
298.45119
298.42773
298.40355
298.37873
298.35339
298.3276
298.30143
298.27493
298.24817
298.22122
298.19419
298.16722
298.1405
298.11423
298.08867
298.06393
298.04044
298.01793
297.99816
297.97727
297.96868
297.94237
297.98196
297.91892
298.04198
297.97751
296.9163
297.36805
297.20559
297.37501
297.36382
297.45087
297.48414
297.54758
297.59562
297.65259
297.70588
297.76164
297.8168
297.87255
297.92819
297.98375
298.039
298.09373
298.14776
298.20085
298.25278
298.30332
298.35223
298.39927
298.44423
298.48688
298.52701
298.56444
298.59898
298.6305
298.65886
298.68398
298.70577
298.7242
298.73926
298.75097
298.75938
298.76456
298.76661
298.76563
298.76175
298.75516
298.746
298.73446
298.72071
298.70492
298.68728
298.66796
298.64712
298.62494
298.60156
298.57713
298.55179
298.52566
298.49888
298.47155
298.44376
298.41559
298.38715
298.3585
298.32971
298.30082
298.27189
298.24297
298.21415
298.18555
298.15736
298.12976
298.10299
298.0772
298.05269
298.02956
298.00852
297.98836
297.97638
297.95444
297.98441
297.9313
298.04851
298.12388
297.08707
297.53922
297.38294
297.55408
297.54934
297.63867
297.67743
297.74399
297.79667
297.85715
297.91448
297.97372
298.03238
298.09128
298.14985
298.208
298.26549
298.32206
298.37748
298.43148
298.48381
298.53419
298.58238
298.6281
298.67114
298.71126
298.74825
298.78194
298.81217
298.83882
298.8618
298.88106
298.89657
298.90835
298.91644
298.92093
298.92192
298.91955
298.91397
298.90536
298.89386
298.87973
298.86317
298.84438
298.82358
298.80098
298.77677
298.75115
298.72431
298.69641
298.66762
298.63808
298.60793
298.5773
298.54631
298.51506
298.48363
298.4521
298.42055
298.38906
298.35766
298.32641
298.29533
298.26447
298.2339
298.20372
298.17409
298.14521
298.11727
298.09048
298.06504
298.04121
298.01927
297.99936
297.98474
297.96639
297.98794
297.94285
298.05436
298.29433
297.27985
297.73398
297.58582
297.75838
297.76124
297.85311
297.89803
297.96816
298.02592
298.09032
298.15197
298.21498
298.27729
298.33943
298.40091
298.46152
298.521
298.57903
298.63535
298.68964
298.74162
298.79098
298.83745
298.88076
298.92067
298.95696
298.98945
299.01798
299.04243
299.06273
299.07884
299.09077
299.09857
299.1023
299.1021
299.09812
299.09052
299.07952
299.06532
299.04818
299.02829
299.00593
298.98136
298.95482
298.92655
298.89678
298.86572
298.83359
298.80057
298.76683
298.73255
298.69786
298.66289
298.62777
298.59259
298.55746
298.52244
298.48761
298.45303
298.41875
298.38482
298.35127
298.31812
298.2854
298.25316
298.22148
298.1905
298.1604
298.13138
298.10364
298.07739
298.05287
298.03026
298.01036
297.99391
297.97828
297.99231
297.95461
298.06196
298.48949
297.49972
297.9539
297.81593
297.98971
298.00133
298.09611
298.14785
298.22206
298.28534
298.35408
298.42033
298.48732
298.55336
298.61872
298.68294
298.74571
298.80673
298.86563
298.9221
298.97578
299.02636
299.0735
299.11694
299.1564
299.19165
299.2225
299.24881
299.27047
299.28743
299.29967
299.30724
299.31022
299.30874
299.30297
299.29312
299.2794
299.26208
299.24142
299.21772
299.19126
299.16232
299.13118
299.09814
299.06348
299.02746
298.99031
298.95227
298.91355
298.87432
298.83477
298.79504
298.75527
298.71558
298.67607
298.63683
298.59795
298.55948
298.52148
298.484
298.44708
298.41075
298.37502
298.33993
298.30546
298.27166
298.2386
298.20637
298.17516
298.14516
298.11656
298.08958
298.06442
298.04133
298.02124
298.00357
297.98999
297.99736
297.96598
298.06833
298.70812
297.7477
298.20089
298.07524
298.25014
298.2717
298.36988
298.4291
298.50799
298.57719
298.65068
298.72173
298.79284
298.86257
298.93096
298.99753
299.06192
299.12374
299.18259
299.2381
299.28989
299.33761
299.38095
299.41962
299.45338
299.48206
299.5055
299.52363
299.53642
299.54391
299.54619
299.54339
299.53569
299.52334
299.5066
299.48575
299.46112
299.43303
299.40184
299.36787
299.33148
299.293
299.25269
299.21092
299.16796
299.12409
299.07955
299.03455
298.98931
298.944
298.89878
298.85378
298.80913
298.76492
298.72123
298.67815
298.63574
298.59403
298.55307
298.51289
298.47351
298.43497
298.39725
298.36037
298.32433
298.28913
298.25482
298.22149
298.1893
298.15843
298.12907
298.10146
298.07576
298.05234
298.03194
298.01358
298.00142
298.00285
297.97752
298.07508
298.94585
298.02585
298.47695
298.36593
298.54205
298.57477
298.67703
298.7444
298.8286
298.90411
298.9827
299.05865
299.13384
299.20697
299.27792
299.34616
299.41123
299.47271
299.53013
299.58309
299.6312
299.67411
299.71153
299.74322
299.769
299.78874
299.80242
299.81005
299.81171
299.80757
299.79783
299.78275
299.76265
299.73785
299.70874
299.6757
299.63913
299.59943
299.55701
299.51226
299.46555
299.41726
299.36765
299.31709
299.26587
299.21426
299.16248
299.11074
299.05923
299.00811
298.95751
298.90755
298.85832
298.8099
298.76235
298.71573
298.67008
298.62542
298.58177
298.53915
298.49757
298.45704
298.41755
298.3791
298.34167
298.30525
298.26988
298.23562
298.2026
298.17099
298.14102
298.11288
298.08675
298.06308
298.04232
298.02368
298.0124
298.00864
297.98841
298.08047
299.21385
298.3369
298.78487
298.69092
298.86855
298.91366
299.02078
299.09692
299.18705
299.26915
299.35301
299.43373
299.51266
299.58857
299.66119
299.7299
299.7942
299.8536
299.9076
299.9558
299.99782
300.03335
300.06217
300.08411
300.09911
300.10716
300.10838
300.10291
300.091
300.07296
300.04913
300.01992
299.98576
299.94711
299.90445
299.85825
299.80898
299.75711
299.70307
299.64729
299.59017
299.53207
299.47328
299.41414
299.35493
299.29589
299.23723
299.17915
299.12178
299.06526
299.00971
298.95521
298.90182
298.8496
298.79859
298.74881
298.70029
298.65302
298.60702
298.56227
298.51878
298.47654
298.43554
298.39575
298.35716
298.31975
298.28351
298.24851
298.21483
298.18266
298.1522
298.12365
298.0972
298.07336
298.05225
298.03361
298.02274
298.01475
297.99846
298.08486
299.5126
298.68426
299.12807
299.05371
299.23331
299.29201
299.40488
299.49032
299.58688
299.67564
299.76466
299.84964
299.9315
300.00901
300.08177
300.14909
300.21042
300.26522
300.31304
300.35348
300.38625
300.41113
300.42802
300.43691
300.43789
300.43115
300.41695
300.39567
300.3677
300.33354
300.29368
300.24869
300.19911
300.14552
300.08847
300.0285
299.96615
299.9019
299.83621
299.76952
299.7022
299.63463
299.56706
299.49979
299.43309
299.36716
299.30218
299.2383
299.17564
299.11428
299.05432
298.9958
298.93877
298.88324
298.82923
298.77674
298.72576
298.67629
298.62831
298.58179
298.53672
298.49308
298.45086
298.41001
298.37051
298.33233
298.29546
298.25991
298.22579
298.19322
298.16242
298.13359
298.10696
298.083
298.06159
298.04314
298.03205
298.02051
298.0078
298.08821
299.84546
299.07182
299.51053
299.45844
299.64071
299.71411
299.83366
299.92872
300.03194
300.12706
300.22061
300.30875
300.39201
300.46913
300.53961
300.60271
300.65788
300.70461
300.74251
300.77131
300.79085
300.8011
300.80215
300.79422
300.77762
300.75278
300.72019
300.68043
300.63411
300.58189
300.52443
300.46241
300.39649
300.32733
300.25552
300.18167
300.1063
300.02991
299.95295
299.87582
299.79889
299.72249
299.64681
299.57213
299.49867
299.42658
299.35599
299.28703
299.21975
299.15423
299.09049
299.02857
298.96847
298.91018
298.85369
298.79898
298.74603
298.69479
298.64523
298.59732
298.55103
298.50633
298.46319
298.42156
298.38142
298.34272
298.30545
298.2696
298.23523
298.20246
298.17149
298.14251
298.11582
298.09178
298.07018
298.0521
298.04068
298.0263
298.01669
298.09017
300.21574
299.50439
299.93715
299.91011
300.09601
300.18503
300.31216
300.41668
300.52626
300.62681
300.72344
300.81266
300.8947
300.96826
301.03281
301.08762
301.13222
301.16622
301.18942
301.20174
301.20329
301.19432
301.1752
301.14645
301.10866
301.06254
301.00882
300.94831
300.88181
300.81013
300.73408
300.6544
300.57185
300.48709
300.40076
300.31343
300.22562
300.1378
300.05037
299.96368
299.87805
299.79374
299.71089
299.62973
299.55041
299.47304
299.39771
299.32447
299.25337
299.18442
299.11762
299.05297
298.99043
298.92997
298.87157
298.81516
298.76071
298.70816
298.65746
298.60856
298.56143
298.51601
298.47227
298.43016
298.38965
298.35069
298.31326
298.27734
298.24294
298.21018
298.17921
298.15023
298.12359
298.09952
298.07782
298.06012
298.04811
298.03206
298.02526
298.09015
300.62697
299.98793
300.4138
300.41444
300.60491
300.71002
300.84584
300.95902
301.07366
301.17746
301.27441
301.3612
301.43786
301.50314
301.55654
301.59748
301.6257
301.64109
301.64375
301.63397
301.61222
301.57913
301.53545
301.48202
301.41978
301.3497
301.27276
301.18995
301.10223
301.01052
300.91568
300.81852
300.71977
300.6201
300.5201
300.4203
300.32115
300.22306
300.12634
300.03129
299.93815
299.84711
299.75822
299.67167
299.58754
299.5059
299.42677
299.35016
299.27608
299.20449
299.13537
299.06868
299.00435
298.94235
298.88259
298.82502
298.76957
298.71618
298.66477
298.61529
298.56768
298.5219
298.47788
298.43559
298.39499
298.35603
298.31868
298.28291
298.24872
298.21617
298.18539
298.15657
298.13008
298.10603
298.08439
298.067
298.05408
298.03746
298.03277
298.08822
301.08097
300.53092
300.94861
300.97959
301.17523
301.2968
301.43878
301.55876
301.67619
301.77961
301.8723
301.95124
302.01636
302.06662
302.10178
302.12161
302.12625
302.11605
302.0916
302.05368
302.00325
301.94138
301.86922
301.788
301.69892
301.60319
301.50199
301.39641
301.2875
301.17619
301.06334
300.94973
300.83603
300.72283
300.61064
300.4999
300.39096
300.28412
300.17963
300.07768
299.97844
299.882
299.78834
299.6976
299.6098
299.52494
299.44301
299.36396
299.28776
299.21434
299.14365
299.07562
299.01016
298.9472
298.88666
298.82845
298.7725
298.71872
298.66703
298.61736
298.56966
298.52385
298.47988
298.43771
298.39728
298.35857
298.32152
298.28612
298.25235
298.22023
298.18984
298.16136
298.13511
298.11114
298.08968
298.07252
298.05853
298.04203
298.03891
298.08491
301.58917
301.14543
301.5514
301.61609
301.81504
301.9483
302.09686
302.21999
302.33459
302.43127
302.51223
302.57505
302.61982
302.64602
302.65391
302.64387
302.6167
302.57339
302.51518
302.44344
302.35965
302.26534
302.16203
302.05123
301.93435
301.81274
301.68763
301.56015
301.43129
301.30192
301.17283
301.04467
300.91799
300.79326
300.67087
300.55113
300.43428
300.32052
300.20997
300.10274
299.99893
299.8985
299.80141
299.70772
299.6174
299.53039
299.44663
299.36606
299.28859
299.21413
299.1426
299.0739
299.00794
298.94461
298.88382
298.82548
298.76949
298.71576
298.6642
298.61473
298.56728
298.52178
298.47817
298.43639
298.39641
298.35818
298.32166
298.28683
298.25367
298.22218
298.19238
298.16444
298.13855
298.11475
298.09354
298.07651
298.06153
298.04557
298.04377
298.0798
302.16474
301.83987
302.22714
302.32261
302.51875
302.67453
302.82148
302.94063
303.04367
303.1234
303.18173
303.21704
303.23008
303.22115
303.19138
303.14206
303.07482
302.99146
302.8939
302.78409
302.66399
302.53545
302.40025
302.26002
302.11623
301.97022
301.82313
301.67597
301.5296
301.38475
301.24202
301.10189
300.96477
300.83097
300.70071
300.57418
300.4515
300.33274
300.21793
300.10711
300.00027
299.89727
299.79807
299.70264
299.61091
299.52278
299.43816
299.35693
299.27899
299.20424
299.13255
299.06382
298.99793
298.93478
298.87425
298.81624
298.76065
298.70738
298.65633
298.60742
298.56056
298.51568
298.47271
298.4316
298.39231
298.35478
298.31899
298.28492
298.25254
298.22184
298.19284
298.16562
298.14028
298.11679
298.09588
298.07884
298.06316
298.04762
298.0469
298.07311
302.81362
302.61257
302.97417
303.11244
303.33106
303.47296
303.60824
303.71043
303.78845
303.83684
303.85809
303.85181
303.8199
303.76392
303.68618
303.58901
303.475
303.3467
303.20661
303.0571
302.90037
302.73843
302.57304
302.40576
302.23793
302.07069
301.90498
301.74159
301.58114
301.42413
301.27096
301.12192
300.97721
300.837
300.70135
300.57033
300.44393
300.3221
300.20482
300.09204
299.98365
299.87944
299.77936
299.68333
299.59123
299.50293
299.4183
299.33722
299.25955
299.18517
299.11395
299.04576
298.98049
298.918
298.85819
298.80095
298.74616
298.69372
298.64353
298.59549
298.54953
298.50556
298.46351
298.42332
298.38495
298.34834
298.31347
298.28032
298.24887
298.21911
298.19104
298.16474
298.14016
298.11725
298.09679
298.07964
298.06313
298.04779
298.04869
298.06543
303.54618
303.48277
303.85377
304.00518
304.1991
304.32887
304.43888
304.5059
304.54088
304.53977
304.50687
304.44363
304.35361
304.23991
304.10607
303.95548
303.79143
303.61695
303.43482
303.24748
303.05707
302.86541
302.67403
302.48418
302.2969
302.113
301.93311
301.75772
301.58719
301.42178
301.26164
301.10688
300.95753
300.81358
300.67499
300.54169
300.41357
300.29051
300.17241
300.05918
299.95058
299.84637
299.74655
299.65093
299.55939
299.47177
299.38792
299.30769
299.23095
299.15754
299.08734
299.02021
298.95602
298.89464
298.83596
298.77986
298.72622
298.67494
298.62592
298.57905
298.53426
298.49147
298.45059
298.41156
298.37433
298.33884
298.30508
298.27302
298.24263
298.21391
298.18689
298.1616
298.13795
298.11592
298.09623
298.07914
298.06191
298.04648
298.04865
298.05709
304.38132
304.4823
304.81523
304.96538
305.13176
305.22302
305.28123
305.28871
305.25712
305.18602
305.08167
304.94792
304.78995
304.61225
304.41925
304.21487
304.00264
303.78555
303.56617
303.34661
303.12857
302.91342
302.70224
302.49583
302.29481
302.0996
301.91049
301.72767
301.55123
301.38118
301.2175
301.0601
300.90887
300.76368
300.62439
300.49082
300.36279
300.24013
300.1227
300.01031
299.90266
299.79958
299.70097
299.60666
299.51649
299.43028
299.34788
299.26913
299.19388
299.12197
299.05327
298.98764
298.92494
298.86506
298.80786
298.75323
298.70105
298.65123
298.60365
298.55822
298.51486
298.47347
298.43398
298.39632
298.36044
298.32628
298.2938
298.26299
298.23381
298.20625
298.18036
298.15614
298.1335
298.11249
298.09374
298.07703
298.05987
298.04492
298.04587
298.04795
305.33006
305.57554
305.8532
305.9727
306.07518
306.09645
306.07246
305.99351
305.8732
305.71514
305.52773
305.31682
305.08866
304.84834
304.60039
304.34849
304.09569
303.84436
303.5964
303.35322
303.11586
302.88509
302.66141
302.44514
302.23647
302.03545
301.84207
301.65624
301.47782
301.30666
301.14255
300.98529
300.83466
300.69044
300.5524
300.42031
300.29393
300.17308
300.05758
299.94714
299.84145
299.7404
299.64385
299.55161
299.46349
299.37933
299.29895
299.2222
299.14892
299.07896
299.01218
298.94844
298.8876
298.82954
298.77414
298.72127
298.67084
298.62273
298.57684
298.53308
298.49135
298.45158
298.41369
298.37761
298.34327
298.31061
298.27961
298.25021
298.2224
298.19615
298.1715
298.14843
298.12687
298.10694
298.08915
298.07296
298.05642
298.04243
298.04169
298.03869
306.37177
306.71647
306.90604
306.95285
306.95191
306.86658
306.73009
306.5422
306.31855
306.06637
305.79509
305.51129
305.22089
304.92838
304.63728
304.35023
304.06917
303.79545
303.53
303.2734
303.02598
302.78789
302.55911
302.33954
302.12901
301.92729
301.73411
301.54921
301.37228
301.20304
301.04118
300.88642
300.73847
300.59706
300.46191
300.33274
300.20932
300.09144
299.97889
299.8713
299.76841
299.67016
299.57636
299.4868
299.40131
299.31972
299.24185
299.16754
299.09665
299.02902
298.9645
298.90297
298.8443
298.78835
298.73501
298.68417
298.63572
298.58955
298.54557
298.50367
298.46379
298.42583
298.38971
298.35538
298.32275
298.29179
298.26242
298.23462
298.20835
298.18359
298.16033
298.13855
298.11819
298.09943
298.0826
298.06707
298.05156
298.03899
298.03639
298.02971
307.62853
307.82231
307.87217
307.79365
307.64445
307.42087
307.15311
306.84976
306.52602
306.19016
305.85016
305.51121
305.17732
304.85116
304.53456
304.22862
303.93398
303.65093
303.37949
303.11953
302.87079
302.63295
302.40563
302.18843
301.98094
301.78274
301.59345
301.41265
301.23999
301.07508
300.91759
300.76717
300.62353
300.48636
300.35535
300.23023
300.11078
299.9968
299.88795
299.7839
299.68452
299.58968
299.49917
299.4128
299.3304
299.2518
299.17684
299.10535
299.03718
298.97219
298.91025
298.85122
298.79498
298.74141
298.69038
298.64179
298.59554
298.55153
298.50965
298.46983
298.43197
298.396
298.36184
298.32942
298.29869
298.26957
298.24203
298.216
298.19146
298.16837
298.14671
298.12644
298.10751
298.09009
298.07433
298.05962
298.04529
298.03411
298.02986
298.02239
308.68182
308.69669
308.54223
308.29121
307.97563
307.61509
307.23227
306.83856
306.44456
306.05612
305.67764
305.31161
304.95964
304.62229
304.29975
303.99182
303.69812
303.41814
303.15132
302.89707
302.65479
302.42386
302.20372
301.9938
301.7936
301.60262
301.4204
301.24652
301.08057
300.92217
300.77096
300.6266
300.48879
300.35721
300.23156
300.1116
299.99713
299.8879
299.78354
299.68379
299.58862
299.4978
299.41117
299.32854
299.24973
299.17459
299.10296
299.03469
298.96964
298.90767
298.84865
298.79245
298.73895
298.68804
298.63961
298.59355
298.54976
298.50816
298.46863
298.4311
298.39549
298.36173
298.32973
298.29943
298.27077
298.24369
298.21814
298.19408
298.17145
298.15024
298.13041
298.11189
298.09468
298.0789
298.06457
298.05113
298.03834
298.02858
298.02345
298.01318
309.08714
308.92656
308.58286
308.18838
307.76012
307.32241
306.88772
306.46341
306.05395
305.66135
305.28653
304.92939
304.58944
304.26604
303.95841
303.66574
303.38722
303.12206
302.86951
302.62887
302.39949
302.18079
301.9722
301.7732
301.58331
301.40208
301.22909
301.06392
300.90622
300.75563
300.61182
300.47448
300.34331
300.21802
300.09834
299.98407
299.87502
299.77087
299.67129
299.57623
299.48552
299.39899
299.31646
299.23776
299.16274
299.09124
299.02311
298.95823
298.89644
298.83763
298.78167
298.72844
298.67782
298.62972
298.58402
298.54062
298.49943
298.46036
298.42332
298.38822
298.35499
298.32356
298.29386
298.26581
298.23936
298.21445
298.19104
298.16906
298.14849
298.12929
298.11142
298.09483
298.07952
298.06554
298.05286
298.04112
298.03033
298.02184
298.01617
298.00793
308.11797
308.0663
307.74605
307.39586
307.00156
306.60598
306.21292
305.83104
305.46224
305.10803
304.76866
304.44405
304.13383
303.83752
303.55459
303.28446
303.02655
302.7803
302.54515
302.32056
302.10603
301.90113
301.70543
301.51851
301.33997
301.16942
301.0065
300.85086
300.70217
300.56012
300.42443
300.29483
300.17105
300.05284
299.93998
299.8323
299.7295
299.63126
299.53741
299.44785
299.36242
299.28094
299.20326
299.12923
299.05869
298.99151
298.92756
298.86669
298.8088
298.75375
298.70144
298.65175
298.60458
298.55982
298.51738
298.47716
298.43908
298.40304
298.36897
298.33678
298.3064
298.27776
298.25079
298.22543
298.20162
298.17931
298.15844
298.13897
298.12086
298.10407
298.08856
298.07429
298.06126
298.04948
298.03889
298.02936
298.02093
298.01416
298.00913
298.00379
305.22802
305.61154
305.7273
305.69839
305.54778
305.34374
305.10238
304.84303
304.57455
304.30372
304.03467
303.77014
303.51193
303.26116
303.0185
302.78432
302.55876
302.34184
302.13346
301.93348
301.74165
301.55773
301.38142
301.21246
301.05056
300.89546
300.74689
300.60461
300.46837
300.33795
300.21312
300.09367
299.97939
299.87009
299.76562
299.66581
299.57037
299.47906
299.39186
299.30862
299.22919
299.15343
299.0812
299.01238
298.94683
298.88443
298.82506
298.76861
298.71496
298.66402
298.61567
298.56981
298.52635
298.4852
298.44627
298.40947
298.37471
298.34192
298.31102
298.28194
298.25461
298.22896
298.20492
298.18244
298.16147
298.14195
298.12383
298.10706
298.09161
298.07745
298.06452
298.05281
298.0423
298.03296
298.02477
298.0177
298.01175
298.00703
298.00355
298.00098
308.08341
308.15575
307.73382
307.00549
306.13043
305.29519
304.57515
303.96666
303.44818
302.99904
302.5847
302.2245
301.89537
301.59437
301.31003
301.04567
300.79579
300.56893
300.35837
300.17007
299.99462
299.84085
299.69843
299.57255
299.45638
299.35551
299.26264
299.17848
299.10342
299.03576
298.97441
298.91838
298.86661
298.81811
298.77227
298.72867
298.68698
298.64697
298.60846
298.5714
298.53572
298.50126
298.46804
298.43609
298.40527
298.37558
298.34698
298.31944
298.29291
298.26736
298.24275
298.21901
298.19611
298.17401
298.15264
298.13196
298.11187
298.09241
298.07332
298.05493
298.0365
298.01912
298.0008
297.98461
297.96558
297.95145
297.93034
297.92011
297.89462
297.89256
297.86167
297.87251
297.82717
297.86233
297.79635
297.86763
297.78297
297.89099
297.81237
297.92883
306.08066
305.42476
304.78759
303.98657
303.12475
302.38882
301.82204
301.41156
301.11837
300.89471
300.71368
300.55822
300.41916
300.29019
300.16574
300.0504
299.9346
299.83197
299.72759
299.63623
299.54261
299.46223
299.38006
299.31052
299.23957
299.17788
299.11676
299.05933
299.00725
298.95679
298.90859
298.86274
298.81861
298.77596
298.73469
298.69475
298.65609
298.61867
298.58245
298.5475
298.51377
298.48118
298.44969
298.41941
298.39017
298.36198
298.3348
298.30861
298.28337
298.25904
298.23558
298.21294
298.19107
298.16992
298.14945
298.12961
298.11028
298.09154
298.07309
298.05528
298.03738
298.02045
298.00258
297.98668
297.96804
297.95403
297.93331
297.92309
297.89805
297.8957
297.86541
297.87571
297.83073
297.86589
297.79963
297.87129
297.78557
297.89657
297.81253
297.93642
300.4326
300.35715
299.80424
299.03701
298.63541
298.58446
298.63548
298.71739
298.81158
298.90376
298.98675
299.05761
299.11586
299.16071
299.19162
299.21734
299.22503
299.23324
299.21149
299.19776
299.1661
299.14436
299.1078
299.08099
299.04224
299.01136
298.97421
298.93941
298.90616
298.86547
298.82794
298.79132
298.75445
298.71785
298.68181
298.64647
298.61192
298.57825
298.5454
298.51369
298.48288
298.45299
298.42411
298.39615
298.36911
298.34297
298.31773
298.29334
298.26979
298.24705
298.22506
298.20381
298.18322
298.16331
298.14394
298.12517
298.10677
298.08897
298.07126
298.0543
298.03693
298.02078
298.00317
297.98809
297.96939
297.95637
297.93511
297.92605
297.89992
297.89954
297.86719
297.87998
297.83195
297.87081
297.80098
297.87723
297.78609
297.90249
297.81283
297.94219
302.8335
302.84769
302.225
300.93662
300.11292
299.91705
299.84936
299.80373
299.76479
299.70644
299.64814
299.58944
299.53444
299.47891
299.45498
299.38136
299.38699
299.29289
299.29953
299.21038
299.21471
299.1307
299.13138
299.05332
299.03831
298.97567
298.93751
298.91196
298.86508
298.82567
298.7886
298.7523
298.71685
298.68231
298.64862
298.61575
298.58368
298.55241
298.52192
298.49236
298.46357
298.43559
298.40847
298.38217
298.35669
298.33204
298.30819
298.28512
298.26281
298.24124
298.22035
298.20013
298.18051
298.16149
298.14295
298.12496
298.10725
298.0901
298.07294
298.05651
298.03954
298.02382
298.00646
297.99173
297.97311
297.96037
297.93899
297.93028
297.90423
297.90378
297.87154
297.88419
297.8361
297.8748
297.80407
297.88093
297.78875
297.90688
297.81431
297.94671
302.03008
301.62655
300.6449
299.45659
299.01269
298.90782
298.93253
298.93878
298.9451
298.94282
298.94737
298.9481
298.9499
298.94861
298.94696
298.94214
298.93655
298.92798
298.91832
298.9102
298.89267
298.88869
298.86793
298.85802
298.83495
298.81722
298.79497
298.7668
298.74332
298.71853
298.69237
298.6658
298.63898
298.612
298.58501
298.55812
298.53143
298.50505
298.47903
298.45356
298.42851
298.40397
298.38001
298.35665
298.3339
298.31178
298.29027
298.26938
298.24909
298.22939
298.21023
298.19162
298.17347
298.15582
298.13853
298.12169
298.10501
298.08881
298.07247
298.05682
298.04047
298.02539
298.00843
297.99425
297.97578
297.9636
297.94203
297.93392
297.9072
297.90783
297.87364
297.88858
297.8387
297.87923
297.80612
297.88586
297.79013
297.91184
297.81516
297.95131
302.10411
301.71184
300.67922
299.46473
298.90146
298.82381
298.85596
298.85214
298.85132
298.84211
298.8444
298.84203
298.84115
298.83732
298.83374
298.82767
298.82155
298.8132
298.80464
298.79296
298.78279
298.76722
298.75436
298.73705
298.72169
298.7035
298.68529
298.66758
298.64791
298.62762
298.60709
298.58615
298.56485
298.5433
298.52157
298.49975
298.4779
298.4561
298.43442
298.413
298.39176
298.37079
298.35015
298.32989
298.31004
298.2906
298.2716
298.25304
298.23491
298.21721
298.19991
298.183
298.16643
298.15023
298.13426
298.11862
298.10303
298.0878
298.07232
298.05745
298.04174
298.02727
298.01075
297.99703
297.97881
297.967
297.94544
297.93771
297.911
297.91185
297.87726
297.89285
297.84214
297.88346
297.8088
297.89012
297.79217
297.91646
297.81625
297.95562
301.7599
301.28095
300.13093
298.97779
298.56463
298.49969
298.53183
298.54003
298.55614
298.56111
298.57064
298.57467
298.58097
298.58463
298.58875
298.59093
298.59261
298.59325
298.59293
298.59195
298.58939
298.58679
298.58221
298.57726
298.57043
298.56285
298.55395
298.54362
298.53253
298.52055
298.50766
298.49394
298.4795
298.46445
298.44886
298.43282
298.41643
298.39978
298.38295
298.36608
298.34912
298.33218
298.31532
298.29861
298.28206
298.26572
298.2496
298.23372
298.21808
298.20269
298.18752
298.17258
298.15782
298.14327
298.12881
298.11453
298.10017
298.08604
298.07155
298.05754
298.04258
298.02876
298.01276
297.99954
297.98163
297.97021
297.94873
297.94135
297.91437
297.91578
297.8808
297.8969
297.84495
297.88768
297.81127
297.89448
297.79396
297.921
297.81725
297.95978
301.60905
301.05832