/*--------------------------------*- C++ -*----------------------------------*\
  =========                 |
  \\      /  F ield         | OpenFOAM: The Open Source CFD Toolbox
   \\    /   O peration     | Website:  https://openfoam.org
    \\  /    A nd           | Version:  6
     \\/     M anipulation  |
\*---------------------------------------------------------------------------*/
FoamFile
{
    version     2.0;
    format      ascii;
    class       volVectorField;
    location    "500";
    object      U;
}
// * * * * * * * * * * * * * * * * * * * * * * * * * * * * * * * * * * * * * //

dimensions      [0 1 -1 0 0 0 0];

internalField   nonuniform List<vector> 
16000
(
(151.40797 1.27862e-15 -17.469643)
(159.82028 -1.1393477e-15 -11.371656)
(156.61475 4.408838e-18 -16.509119)
(158.11007 3.9860964e-18 -12.355407)
(156.86759 0 -15.414666)
(157.28698 -9.108238e-16 -13.039627)
(156.67456 8.6225245e-16 -14.638963)
(156.71175 0 -13.390928)
(156.33046 -1.8808754e-19 -14.126411)
(156.20892 1.7790611e-19 -13.496266)
(155.9166 3.370514e-19 -13.775195)
(155.7238 -6.5381845e-16 -13.446667)
(155.46254 6.1988658e-16 -13.502592)
(155.23597 4.8821094e-18 -13.304851)
(154.9818 5.5766634e-16 -13.256224)
(154.7375 -5.2929383e-16 -13.105999)
(154.48138 -1.0058407e-15 -13.007026)
(154.22646 9.5446133e-16 -12.866944)
(153.96583 0 -12.740093)
(153.70401 8.6219998e-16 -12.594428)
(153.43918 -8.1977302e-16 -12.448067)
(153.17312 -7.8043032e-16 -12.290483)
(152.90573 -7.3051389e-19 -12.127349)
(152.63799 -3.5189163e-19 -11.955389)
(152.3704 6.6136887e-16 -11.776304)
(152.10376 0 -11.589173)
(151.83879 6.1011412e-16 -11.39456)
(151.57633 -5.7124675e-16 -11.192334)
(151.31719 -5.3987639e-19 -10.982821)
(151.06223 -5.144956e-19 -10.766215)
(150.81234 -5.0250606e-16 -10.542883)
(150.56839 4.7839059e-16 -10.313208)
(150.33129 -1.4281043e-17 -10.077686)
(150.10189 -1.2770125e-17 -9.8368637)
(149.88107 8.3126386e-16 -9.5913607)
(149.66966 -1.5866705e-15 -9.3418617)
(149.46843 7.5654633e-16 -9.0891047)
(149.27812 1.129076e-17 -8.8338826)
(149.09944 1.0778131e-17 -8.5770378)
(148.93299 0 -8.3194506)
(148.77933 -1.2272643e-18 -8.0620197)
(148.63893 1.1721599e-18 -7.8056551)
(148.5122 -5.7244915e-16 -7.5512671)
(148.39944 5.4892348e-16 -7.2997526)
(148.30089 5.2260464e-16 -7.0519808)
(148.2167 -5.0033927e-16 -6.8087831)
(148.14693 -9.3391784e-19 -6.5709409)
(148.09159 0 -6.3391745)
(148.05057 4.3727483e-16 -6.1141349)
(148.02374 -4.1814672e-16 -5.8963948)
(148.01085 0 -5.6864441)
(148.01162 0 -5.4846813)
(148.02568 2.2891166e-17 -5.2914194)
(148.05258 -1.3687239e-18 -5.1068862)
(148.09188 2.0975603e-17 -4.9312065)
(148.14314 0 -4.7644158)
(148.20582 0 -4.6064706)
(148.27928 0 -4.4572508)
(148.36286 0 -4.3165528)
(148.45582 -3.5971063e-17 -4.1841272)
(148.55755 -3.2459344e-17 -4.0596284)
(148.66714 0 -3.9427558)
(148.78417 2.9863279e-17 -3.8329711)
(148.90708 0 -3.7301084)
(149.03626 -3.0948731e-17 -3.6331613)
(149.16776 -4.2592794e-16 -3.5427126)
(149.30535 4.0610413e-16 -3.4562236)
(149.43745 -3.048927e-18 -3.3771023)
(149.58045 3.7524536e-16 -3.2975505)
(149.69867 -3.8088513e-16 -3.231071)
(149.84988 0 -3.1508442)
(149.92668 -3.3478462e-16 -3.1038862)
(150.1174 6.4520686e-16 -2.9983529)
(150.0789 -3.1142887e-16 -3.0122577)
(150.39341 4.6899262e-18 -2.8075806)
(150.05643 0 -3.0369847)
(150.67336 -1.4017152e-16 -2.4438695)
(149.71479 1.7180753e-17 -3.3977152)
(150.84897 1.3147883e-16 -1.5691751)
(149.237 -3.2065083e-17 -4.5343872)
(151.06106 -1.2886127e-15 -19.160678)
(159.49752 1.1502475e-15 -12.791495)
(156.10438 -4.3509287e-18 -18.17156)
(157.68712 1.0436974e-15 -13.779751)
(156.36147 -9.9489504e-16 -17.003254)
(156.82044 7.2608046e-18 -14.476607)
(156.16284 0 -16.158397)
(156.20959 0 -14.825595)
(155.80281 7.7476645e-16 -15.58796)
(155.6768 -7.5604535e-16 -14.911168)
(155.36788 6.9464904e-16 -15.187025)
(155.16502 -6.6832627e-16 -14.828629)
(154.89043 0 -14.867625)
(154.65213 5.9664626e-16 -14.645017)
(154.3858 -5.7037394e-16 -14.573348)
(154.1297 0 -14.398103)
(153.86212 0 -14.272895)
(153.59602 0 -14.105851)
(153.3248 -9.1415443e-16 -13.950399)
(153.05286 8.8229496e-16 -13.775385)
(152.77866 0 -13.598204)
(152.50395 7.9828953e-16 -13.408886)
(152.22881 -7.47191e-16 -13.212757)
(151.95429 -7.2269008e-16 -13.006822)
(151.68101 3.1891335e-17 -12.792677)
(151.40987 6.3408107e-16 -12.569555)
(151.14171 6.4312237e-16 -12.338036)
(150.87743 -1.1969378e-15 -12.098106)
(150.61794 1.1314427e-15 -11.85017)
(150.36419 -5.2206159e-16 -11.594538)
(150.11711 5.1385223e-16 -11.331691)
(149.87763 -9.7938501e-16 -11.062146)
(149.64667 9.4830683e-16 -10.786525)
(149.42512 -8.7644291e-16 -10.505514)
(149.21383 4.2447707e-16 -10.219889)
(149.01361 0 -9.9304867)
(148.8252 2.4162199e-17 -9.6382039)
(148.64928 -1.1514378e-17 -9.3439813)
(148.48643 -7.1470095e-16 -9.048795)
(148.33717 7.1344841e-16 -8.7536607)
(148.20193 0 -8.4596122)
(148.08105 -6.1212866e-16 -8.167678)
(147.97476 3.641308e-17 -7.8788746)
(147.88323 1.116304e-15 -7.5941935)
(147.80651 -5.3307993e-16 -7.3145861)
(147.74458 -5.0933811e-16 -7.0409503)
(147.69735 5.1700273e-16 -6.7741211)
(147.66462 -4.0687195e-16 -6.5148583)
(147.64616 8.3324771e-16 -6.2638394)
(147.64165 -4.24787e-16 -6.0216509)
(147.65073 0 -5.7887847)
(147.67298 0 -5.5656327)
(147.70792 -2.3203235e-17 -5.3524854)
(147.75501 -7.1036906e-16 -5.1495459)
(147.81371 6.5843229e-16 -4.9569118)
(147.8835 6.0970808e-16 -4.7745731)
(147.96383 -5.3579969e-20 -4.6024378)
(148.05403 -6.7046908e-16 -4.4403373)
(148.15343 0 -4.2880192)
(148.2613 3.4149715e-17 -4.1451643)
(148.37698 -3.2732844e-17 -4.0113855)
(148.49971 -6.2706517e-17 -3.8862731)
(148.62888 -4.5061051e-16 -3.7693085)
(148.76345 8.704016e-20 -3.6600767)
(148.90299 4.1431156e-16 -3.5578406)
(149.04538 0 -3.4624518)
(149.19122 -4.0666001e-16 -3.3725104)
(149.33499 3.9042734e-16 -3.2890994)
(149.48234 -4.6859403e-17 -3.2083503)
(149.61693 3.8255406e-16 -3.1362034)
(149.76431 -6.9210631e-16 -3.0593609)
(149.86942 3.7442632e-16 -3.0029701)
(150.02862 3.2003924e-16 -2.9119917)
(150.05887 -1.1685063e-19 -2.8983148)
(150.29137 -3.1988131e-16 -2.729171)
(150.09051 2.6833366e-16 -2.8924496)
(150.54917 -2.7142525e-16 -2.3967668)
(149.80485 -1.6717374e-17 -3.2109802)
(150.71135 1.6047635e-17 -1.5661031)
(149.37236 3.1238519e-17 -4.2618141)
(150.55684 1.3031746e-15 -20.883178)
(158.9931 -7.9342631e-21 -14.27292)
(155.45433 -1.1342668e-15 -19.837168)
(157.11384 1.0502623e-15 -15.275286)
(155.71488 7.8553977e-18 -18.594708)
(156.19869 9.3985712e-16 -15.976337)
(155.50348 -1.7947665e-15 -17.68664)
(155.55087 1.2875495e-17 -16.309599)
(155.12228 8.0290819e-16 -17.063967)
(154.9867 1.1872268e-17 -16.363023)
(154.66212 -7.3188584e-16 -16.615731)
(154.44626 6.8262434e-16 -16.237449)
(154.15804 0 -16.248402)
(153.90626 0 -16.003701)
(153.62713 -5.8315377e-16 -15.902386)
(153.35818 5.533421e-16 -15.701226)
(153.07862 0 -15.545072)
(152.80083 1.5616705e-17 -15.348427)
(152.51882 -1.4820887e-17 -15.160277)
(152.23678 8.741865e-16 -14.952455)
(151.95348 4.565245e-19 -14.740455)
(151.67068 -7.9009415e-16 -14.515548)
(151.38866 7.6418907e-16 -14.282372)
(151.10855 -7.3828969e-16 -14.038433)
(150.8311 -7.2498406e-16 -13.785145)
(150.55734 6.8979573e-16 -13.52198)
(150.2882 1.9953159e-17 -13.249539)
(150.02469 3.7948813e-17 -12.967973)
(149.7678 3.6146386e-17 -12.677798)
(149.51856 -5.6784915e-16 -12.379479)
(149.27795 4.9162906e-16 -12.07365)
(149.04694 5.3128924e-16 -11.760994)
(148.82646 -4.7638698e-16 -11.442306)
(148.61739 -4.5433115e-16 -11.118452)
(148.42055 8.6618367e-16 -10.790377)
(148.23669 -8.2598144e-16 -10.459093)
(148.06647 -3.6941403e-16 -10.125673)
(147.91046 7.5129262e-16 -9.7912313)
(147.76912 0 -9.456905)
(147.64283 -6.8399497e-16 -9.1238367)
(147.53183 6.1177005e-16 -8.7931848)
(147.4363 0 -8.4660926)
(147.35628 -3.7141644e-17 -8.1436679)
(147.29173 0 -7.8269731)
(147.2425 6.7773672e-17 -7.5170164)
(147.20837 0 -7.2147312)
(147.18905 -3.087344e-17 -6.9209712)
(147.18415 4.8719717e-20 -6.6364983)
(147.19325 1.1272419e-16 -6.3619773)
(147.21588 0 -6.0979686)
(147.25149 0 -5.8449263)
(147.29954 0 -5.6031953)
(147.35944 0 -5.3730114)
(147.43055 0 -5.1545062)
(147.51224 8.5917096e-17 -4.9477203)
(147.60388 4.1060533e-17 -4.7525835)
(147.7049 6.2846697e-16 -4.5689223)
(147.81464 -6.0130516e-16 -4.3964964)
(147.93238 -7.1919324e-17 -4.2349855)
(148.05742 0 -4.0839948)
(148.18909 6.5847342e-17 -3.9430723)
(148.3267 5.6734573e-16 -3.8117234)
(148.46959 -5.4331461e-16 -3.6893914)
(148.61695 0 -3.5755223)
(148.76809 -5.5393922e-17 -3.4694465)
(148.92165 -1.0612287e-16 -3.3706611)
(149.07701 4.0672473e-16 -3.2782411)
(149.23125 -3.8999383e-16 -3.1921264)
(149.38535 4.6736176e-17 -3.1104354)
(149.53162 -3.5863493e-16 -3.0351294)
(149.67943 9.3177898e-20 -2.9599474)
(149.80356 2.8915721e-16 -2.8962125)
(149.94891 0 -2.8163818)
(150.01684 0 -2.7818508)
(150.20436 1.8305702e-17 -2.6462754)
(150.09459 1.763203e-17 -2.7447674)
(150.4396 2.9638434e-17 -2.341517)
(149.8549 -1.14449e-16 -3.0066981)
(150.60098 1.1404354e-16 -1.5510166)
(149.40169 -6.0364298e-17 -4.0442289)
(149.90085 3.1505978e-17 -22.647379)
(158.3129 9.3718174e-18 -15.783638)
(154.65374 1.171798e-15 -21.537882)
(156.38952 4.7395603e-19 -16.801503)
(154.91496 -1.0240935e-15 -20.214449)
(155.42301 -9.6513785e-16 -17.504531)
(154.6888 9.1427329e-16 -19.237686)
(154.7353 -1.3498245e-17 -17.818118)
(154.28399 8.3190158e-16 -18.558384)
(154.13732 -7.5095814e-16 -17.834)
(153.79631 -7.3523476e-16 -18.058529)
(153.56631 1.3717348e-15 -17.659418)
(153.2638 -6.6074208e-16 -17.638346)
(152.9978 1.9611577e-17 -17.369327)
(152.70543 0 -17.234889)
(152.42333 0 -17.00483)
(152.13171 -5.3684144e-16 -16.814333)
(151.84241 4.9381527e-16 -16.584691)
(151.55004 0 -16.36033)
(151.2586 9.5017909e-16 -16.116082)
(150.96722 -9.0298346e-16 -15.865608)
(150.67767 4.3434776e-20 -15.601384)
(150.39044 0 -15.327433)
(150.10676 -4.7159229e-17 -15.041752)
(149.82754 -7.17565e-16 -14.745631)
(149.5539 6.3991082e-16 -14.438795)
(149.2869 -6.9078861e-16 -14.121913)
(149.02765 5.8011898e-16 -13.79533)
(148.77721 -3.6810546e-17 -13.45971)
(148.53667 -3.5120411e-17 -13.115713)
(148.30703 -5.0152427e-16 -12.764155)
(148.08929 4.7760961e-16 -12.405924)
(147.88436 0 -12.042012)
(147.69307 0 -11.673488)
(147.51617 0 -11.301499)
(147.35429 -5.2601764e-17 -10.927247)
(147.20798 -5.007566e-17 -10.551979)
(147.07766 8.1242397e-16 -10.176977)
(146.96361 -9.102107e-17 -9.8035445)
(146.86601 -6.5174004e-16 -9.4329601)
(146.78492 4.1431799e-17 -9.0664789)
(146.72026 6.3284541e-16 -8.7053339)
(146.67188 -5.2820148e-16 -8.3507053)
(146.63948 -5.7615804e-16 -8.0036962)
(146.62271 -6.8738291e-17 -7.6653371)
(146.62111 9.8393004e-16 -7.3365636)
(146.63418 -3.7563284e-16 -7.0182105)
(146.66132 -5.9754043e-17 -6.7110057)
(146.70194 3.9955296e-16 -6.415564)
(146.75537 -5.4507105e-16 -6.1323841)
(146.82094 -4.1638157e-16 -5.8618483)
(146.89796 3.977161e-16 -5.6042225)
(146.98573 0 -5.3596589)
(147.08353 7.2579099e-16 -5.1281991)
(147.19065 -7.8020246e-16 -4.9097907)
(147.3064 0 -4.7042827)
(147.43016 6.3338204e-16 -4.5114183)
(147.56128 -9.8394079e-16 -4.3308635)
(147.69906 5.0654774e-16 -4.1622215)
(147.84278 5.5348079e-16 -4.0050185)
(147.99181 -1.3246693e-16 -3.8587269)
(148.1455 -5.063546e-16 -3.7227768)
(148.30322 -4.8427366e-16 -3.596549)
(148.46429 5.792933e-16 -3.4794011)
(148.62797 -4.4338697e-16 -3.3706368)
(148.79325 1.0618855e-16 -3.2695949)
(148.95914 4.0629889e-16 -3.175466)
(149.12371 -3.8891739e-16 -3.087734)
(149.28628 5.5882632e-16 -3.0052108)
(149.44272 0 -2.9281917)
(149.59565 0 -2.8537383)
(149.73252 0 -2.7862497)
(149.87393 0 -2.71214)
(149.96789 1.5070665e-16 -2.6642024)
(150.12514 -2.8907088e-16 -2.5536921)
(150.08251 3.4716574e-16 -2.6012131)
(150.34852 -3.6634187e-16 -2.2758246)
(149.88382 4.9707547e-16 -2.8083832)
(150.50868 -3.7315e-16 -1.5224301)
(149.42295 -1.0344486e-19 -3.7893955)
(149.09448 1.3643285e-15 -24.44609)
(157.44114 5.2946739e-19 -17.324687)
(153.69755 -1.2092533e-15 -23.262544)
(155.50565 0 -18.363746)
(153.95672 -1.6297824e-17 -21.851914)
(154.48339 -3.0734927e-17 -19.065073)
(153.71156 0 -20.802875)
(153.75252 -8.5330295e-16 -19.35183)
(153.27894 8.3427365e-16 -20.064249)
(153.1179 -8.1524782e-16 -19.321748)
(152.76008 7.4905916e-16 -19.50901)
(152.51381 -3.7283173e-20 -19.089754)
(152.19631 0 -19.030506)
(151.91482 6.1966501e-16 -18.735065)
(151.60863 -6.068119e-16 -18.562665)
(151.3128 0 -18.300182)
(151.00896 5.4752501e-16 -18.070863)
(150.70823 -5.5239672e-16 -17.804031)
(150.40595 4.9429191e-16 -17.538957)
(150.10592 4.4070586e-16 -17.253781)
(149.80765 -8.649398e-16 -16.960247)
(149.51295 -2.6515857e-17 -16.652099)
(149.22253 5.0537987e-17 -16.332781)
(148.93774 -9.4648382e-20 -16.00081)
(148.65965 0 -15.657404)
(148.38949 -8.5820494e-20 -15.302573)
(148.12844 0 -14.937107)
(147.87768 3.9441934e-17 -14.561586)
(147.63835 0 -14.176869)
(147.41154 3.5689031e-17 -13.78385)
(147.1983 0 -13.383571)
(146.99956 0 -12.977157)
(146.81618 6.1795423e-17 -12.565832)
(146.6489 0 -12.150894)
(146.49834 -4.484157e-16 -11.733703)
(146.36498 4.8056186e-16 -11.315667)
(146.24918 0 -10.89822)
(146.15114 -4.8483102e-17 -10.4828)
(146.07092 -6.4767728e-16 -10.070843)
(146.00847 6.1737126e-16 -9.6637586)
(145.96357 -6.7280969e-16 -9.2628885)
(145.93589 7.2177911e-16 -8.8695104)
(145.92501 -7.6486527e-16 -8.4848389)
(145.93038 5.8360129e-16 -8.1099835)
(145.95139 -1.3926532e-16 -7.7459498)
(145.98735 6.6357035e-17 -7.3936333)
(146.03751 -1.2662905e-16 -7.0538056)
(146.10109 1.2095048e-16 -6.727116)
(146.1773 -4.6145165e-16 -6.4140874)
(146.2653 9.9092177e-16 -6.115116)
(146.36428 -4.7331093e-20 -5.8304752)
(146.47342 -5.0168707e-16 -5.560317)
(146.59194 1.9162111e-16 -5.3046788)
(146.71904 0 -5.0634886)
(146.85395 0 -4.836574)
(146.99594 0 -4.6236823)
(147.14435 -6.3710176e-16 -4.4244598)
(147.29856 4.5658825e-16 -4.2384705)
(147.45788 1.4534182e-16 -4.0652257)
(147.62162 -1.3892043e-16 -3.9041709)
(147.78919 1.3269857e-16 -3.7546978)
(147.95998 -7.6098841e-16 -3.6161629)
(148.13341 9.6978655e-16 -3.4878807)
(148.30888 -1.042842e-15 -3.3691371)
(148.48572 9.9693423e-16 -3.2591847)
(148.66307 -2.1195161e-16 -3.1572709)
(148.83993 -6.0771079e-16 -3.0625882)
(149.01477 0 -2.9744203)
(149.18632 -1.8526896e-16 -2.8918187)
(149.35191 1.7727547e-16 -2.8143579)
(149.51126 0 -2.74043)
(149.6581 0 -2.6711972)
(149.80005 -1.554191e-16 -2.6006935)
(149.91094 -2.9765764e-16 -2.5434401)
(150.05109 -2.8502649e-16 -2.4517819)
(150.05574 6.8332883e-17 -2.4586797)
(150.26486 -6.5508327e-17 -2.197954)
(149.89331 2.5153031e-16 -2.6109111)
(150.42049 -6.0138158e-17 -1.4847745)
(149.41161 2.2720541e-16 -3.5505422)
(148.13008 1.3624582e-15 -26.276852)
(156.38225 -1.2412171e-15 -18.897182)
(152.57416 1.8611269e-17 -25.012248)
(154.45027 0 -19.961386)
(152.82833 1.6553013e-17 -23.505794)
(153.36809 1.0316724e-15 -20.655433)
(152.56 -9.1801991e-16 -22.379089)
(152.59097 -5.6051617e-17 -20.905969)
(152.0955 0 -21.576706)
(151.91714 -8.0519311e-16 -20.81952)
(151.54217 7.1152631e-17 -20.96038)
(151.27788 2.217361e-17 -20.519951)
(150.94483 6.4334557e-16 -20.416103)
(150.64701 0 -20.090742)
(150.32673 6.185086e-16 -19.875009)
(150.01705 -1.137418e-15 -19.575461)
(149.70131 1.1151162e-15 -19.302155)
(149.38981 -4.9642386e-16 -18.99301)
(149.07869 0 -18.681993)
(148.77159 2.9863747e-17 -18.350593)
(148.4684 -9.0958728e-16 -18.008724)
(148.171 1.7291084e-15 -17.651376)
(147.88036 -1.6956167e-15 -17.281514)
(147.59791 8.7948577e-16 -16.898182)
(147.32492 -7.4404254e-16 -16.502605)
(147.06271 7.0741977e-16 -16.095113)
(146.81256 0 -15.676682)
(146.57571 -6.0084952e-16 -15.248171)
(146.35333 6.0987562e-16 -14.810687)
(146.1465 7.2672238e-17 -14.365403)
(145.95622 6.918728e-17 -13.913629)
(145.78334 -5.9240119e-16 -13.456759)
(145.6286 9.4002564e-16 -12.996278)
(145.49257 1.4306529e-19 -12.533726)
(145.37567 -9.0956692e-16 -12.070692)
(145.27817 5.4160167e-16 -11.608783)
(145.20016 0 -11.149607)
(145.14157 3.9331492e-16 -10.694751)
(145.10218 -4.6851984e-16 -10.245755)
(145.08163 0 -9.8040988)
(145.0794 -6.8086954e-16 -9.3711892)
(145.09486 8.1280055e-17 -8.948311)
(145.12728 5.4120321e-16 -8.5366483)
(145.17585 0 -8.1372717)
(145.23968 1.4053151e-16 -7.7511105)
(145.31784 6.7049696e-16 -7.3789666)
(145.40935 -5.1153275e-16 -7.0215001)
(145.51324 1.2115984e-19 -6.6792334)
(145.62852 -4.6531323e-16 -6.3525538)
(145.75424 8.8781539e-16 -6.0417148)
(145.88943 -7.2758469e-20 -5.7468443)
(146.0332 -1.0100974e-16 -5.4679491)
(146.18467 -1.9269645e-16 -5.2049242)
(146.34301 1.8399538e-16 -4.9575605)
(146.50742 1.7557956e-16 -4.7255535)
(146.67714 6.6999736e-16 -4.5085239)
(146.85151 -6.3966764e-16 -4.3060108)
(147.02993 0 -4.1174776)
(147.21177 0 -3.9423322)
(147.39639 1.3910443e-16 -3.7799385)
(147.58321 5.3130887e-16 -3.629608)
(147.77171 -2.538106e-16 -3.4906251)
(147.96136 -4.8448372e-16 -3.3622402)
(148.15164 -2.3127969e-16 -3.2436766)
(148.34198 2.2102308e-16 -3.1341335)
(148.53163 4.2215682e-16 -3.0327946)
(148.71967 8.0647207e-16 -2.9388202)
(148.90477 -3.8530945e-16 -2.8513926)
(149.08555 3.6802997e-16 -2.7696152)
(149.25992 -7.0349324e-16 -2.6927749)
(149.42649 -3.3607865e-16 -2.6197607)
(149.58162 3.2132931e-16 -2.5502923)
(149.72687 1.5355359e-16 -2.4819824)
(149.85005 1.4682817e-16 -2.4192667)
(149.97951 -2.8083706e-16 -2.3406265)
(150.01885 1.3435458e-16 -2.3165381)
(150.18559 1.285514e-16 -2.1107473)
(149.89332 -4.9260568e-16 -2.4162039)
(150.34151 2.9438457e-16 -1.4373927)
(149.38737 0 -3.3037433)
(146.9908 2.1946669e-17 -28.138893)
(155.1818 -1.2234735e-15 -20.501638)
(151.26969 3.7318077e-17 -26.779575)
(153.20857 1.1348902e-15 -21.589228)
(151.51638 -1.0785051e-15 -25.167155)
(152.06282 1.0491873e-15 -22.269057)
(151.22069 -6.0269073e-17 -23.957506)
(151.23688 2.8489712e-17 -22.472171)
(150.72029 0 -23.086541)
(150.52162 8.1945317e-16 -22.317433)
(150.1293 -8.7349679e-16 -22.402418)
(149.84538 0 -21.938754)
(149.49641 7.4242539e-16 -21.783483)
(149.18162 -6.6265798e-16 -21.423669)
(148.84726 6.2934221e-16 -21.158627)
(148.52401 -6.3439173e-16 -20.816405)
(148.19711 4.9637179e-16 -20.493185)
(147.87603 -1.0774494e-15 -20.135693)
(147.55778 5.116397e-16 -19.772687)
(147.24585 -4.8646407e-16 -19.388926)
(146.94056 5.1990151e-16 -18.992669)
(146.64386 -5.4993077e-17 -18.580116)
(146.35697 -5.2282387e-17 -18.153878)
(146.08147 -4.9586801e-17 -17.713549)
(145.81875 0 -17.260452)
(145.57024 4.485314e-17 -16.795291)
(145.33727 6.8362188e-16 -16.319297)
(145.12111 -7.3127266e-16 -15.833666)
(144.9229 5.4138787e-16 -15.339811)
(144.74364 -1.4697768e-16 -14.839229)
(144.58422 -6.3021047e-16 -14.333537)
(144.44533 -1.5115243e-19 -13.824429)
(144.3275 -5.0778928e-16 -13.313664)
(144.23104 4.8331316e-16 -12.803033)
(144.15612 1.1518629e-16 -12.294345)
(144.10267 -1.094627e-16 -11.78939)
(144.07047 0 -11.289923)
(144.0591 -3.9754517e-16 -10.797635)
(144.06799 4.7323807e-16 -10.314132)
(144.09641 -7.2145981e-16 -9.8409137)
(144.14351 8.5933581e-16 -9.3793739)
(144.20832 -1.636134e-16 -8.9307571)
(144.28981 7.7997847e-16 -8.4961549)
(144.38685 -1.3383027e-15 -8.0765317)
(144.4983 -1.4173241e-16 -7.672685)
(144.62298 4.0534946e-16 -7.2852622)
(144.75971 0 -6.9147593)
(144.90734 1.2294103e-16 -6.5615226)
(145.06472 0 -6.2257596)
(145.23079 -2.232728e-16 -5.9075429)
(145.40448 0 -5.6068219)
(145.58484 -4.0585812e-16 -5.3234306)
(145.77094 1.9358955e-16 -5.0570994)
(145.96194 -3.6912576e-16 -4.8074642)
(146.15703 -1.7597507e-16 -4.5740771)
(146.35549 0 -4.3564202)
(146.55665 0 -4.15392)
(146.75996 0 -3.9659355)
(146.96487 -5.8297001e-16 -3.7917741)
(147.17078 2.783543e-16 -3.6307159)
(147.37719 1.5550825e-19 -3.481998)
(147.58365 5.0651097e-16 -3.3448367)
(147.78969 0 -3.2184244)
(147.99489 6.9158063e-16 -3.1019303)
(148.19875 -6.6006945e-16 -2.9945064)
(148.40067 -2.0980792e-16 -2.8952887)
(148.5998 -2.00227e-16 -2.8034018)
(148.79499 7.6490609e-16 -2.7179706)
(148.98486 -3.6507659e-16 -2.6380931)
(149.16761 -5.2251383e-16 -2.5629315)
(149.34148 2.0819088e-19 -2.4914836)
(149.50386 2.0199623e-19 -2.4229997)
(149.65355 1.5155646e-15 -2.3563949)
(149.7856 -5.7894434e-16 -2.2910692)
(149.9096 5.5274581e-16 -2.2209243)
(149.97375 0 -2.1742545)
(150.10828 5.0430953e-16 -2.0145407)
(149.883 -4.8255896e-16 -2.2248934)
(150.26202 0 -1.3810377)
(149.35095 2.1390481e-16 -3.0643018)
(145.66255 1.4017204e-15 -30.033173)
(153.83554 -2.5677084e-15 -22.13445)
(149.77669 -3.906248e-17 -28.55466)
(151.77111 -7.1070113e-19 -23.240453)
(150.01172 1.0956167e-15 -26.826337)
(150.55713 -1.03515e-15 -23.897536)
(149.68307 1.9913078e-15 -25.528731)
(149.67894 -9.2759047e-16 -24.04047)
(149.14162 0 -24.583686)
(148.91933 0 -23.804035)
(148.50918 9.8708179e-17 -23.823595)
(148.20396 -7.4893042e-16 -23.333145)
(147.83861 7.5431714e-16 -23.119194)
(147.50643 0 -22.719038)
(147.1582 0 -22.397932)
(146.82209 6.0704243e-16 -22.006222)
(146.48532 -5.0402251e-16 -21.626195)
(146.15662 0 -21.213239)
(145.83382 5.1979157e-16 -20.791222)
(145.52035 -4.934668e-16 -20.348012)
(145.21694 -5.8548127e-17 -19.890461)
(144.92567 5.5636028e-17 -19.415937)
(144.64797 5.2876834e-17 -18.926859)
(144.38554 0 -18.423403)
(144.13988 0 -17.907101)
(143.91249 0 -17.379093)
(143.70468 0 -16.840947)
(143.51768 0 -16.294253)
(143.35251 7.0430717e-16 -15.740791)
(143.21003 -5.2105774e-16 -15.18242)
(143.09089 0 -14.621095)
(142.99551 6.0638825e-16 -14.058823)
(142.92411 1.0493552e-19 -13.497635)
(142.87667 7.9166654e-20 -12.939563)
(142.85297 -9.2885703e-16 -12.386601)
(142.85253 4.4217057e-16 -11.840682)
(142.87473 5.2629526e-16 -11.303655)
(142.91874 -4.0075649e-16 -10.77725)
(142.98356 -3.8157162e-16 -10.26307)
(143.06807 -3.633155e-16 -9.7625688)
(143.17105 -1.7280849e-16 -9.2770359)
(143.2912 6.5919035e-16 -8.8075993)
(143.42712 -1.5707717e-16 -8.3552005)
(143.57744 -4.4860688e-16 -7.9206128)
(143.74073 1.4247812e-16 -7.5044401)
(143.91563 6.7872892e-16 -7.1071139)
(144.10076 -2.5877413e-16 -6.7289119)
(144.29483 2.4651011e-16 -6.3699583)
(144.4966 -2.3481456e-16 -6.0302409)
(144.70489 2.237293e-16 -5.7096188)
(144.91862 0 -5.4078363)
(145.13679 -1.5006569e-19 -5.1245347)
(145.35848 -1.9373729e-16 -4.8592644)
(145.58286 1.846764e-16 -4.6114963)
(145.80916 -3.5228928e-16 -4.3806334)
(146.03671 0 -4.1660197)
(146.26489 -3.2012649e-16 -3.966965)
(146.4932 3.0497871e-16 -3.782724)
(146.72119 -1.1637469e-15 -3.6125172)
(146.94835 5.5498436e-16 -3.4555405)
(147.17424 5.2889567e-16 -3.3109663)
(147.3985 -2.5223241e-16 -3.1779501)
(147.62074 4.8083377e-16 -3.0556351)
(147.84062 -9.1708199e-16 -2.9431468)
(148.05775 -4.3711739e-16 -2.8395996)
(148.27163 8.338489e-16 -2.7440958)
(148.48155 9.8470822e-20 -2.6557304)
(148.68649 3.7904502e-16 -2.5735936)
(148.88514 3.6138297e-16 -2.4967678)
(149.07585 0 -2.424353)
(149.25681 9.853704e-16 -2.3553432)
(149.42571 -1.8797482e-15 -2.2888953)
(149.58038 1.007738e-19 -2.2240813)
(149.7189 8.5459126e-16 -2.1586268)
(149.84079 -1.3584778e-15 -2.0937905)
(149.92371 2.1504238e-19 -2.0315597)
(150.03257 2.4727531e-16 -1.9090021)
(149.86598 -4.7184391e-16 -2.0366907)
(150.18568 1.1255113e-15 -1.3193467)
(149.31302 -2.077274e-16 -2.8264527)
(144.13672 0 -31.956497)
(152.28236 -1.3060074e-15 -23.788607)
(148.08552 1.250201e-15 -30.33316)
(150.12651 3.6741594e-17 -24.912262)
(148.30274 1.1486817e-15 -28.478446)
(148.83796 -3.2106441e-17 -25.535342)
(147.93372 -9.9585202e-16 -27.086196)
(147.90299 8.8428852e-16 -25.602451)
(147.3449 -8.9287015e-16 -26.059304)
(147.09545 -8.9950995e-16 -25.268154)
(146.66672 -4.0536552e-19 -25.212204)
(146.33862 7.6004782e-16 -24.689244)
(145.95656 1.3538049e-19 -24.408403)
(145.60693 -6.8409033e-16 -23.960182)
(145.24562 6.4855095e-16 -23.575002)
(144.89808 7.7085918e-17 -23.125415)
(144.55369 6.57673e-16 -22.680381)
(144.2204 -5.5449448e-16 -22.203489)
(143.89695 -5.2681175e-16 -21.714248)
(143.5867 4.3732273e-16 -21.203408)
(143.29081 -4.7511339e-16 -20.676722)
(143.01145 4.5103507e-16 -20.132694)
(142.75025 -4.2873009e-16 -19.573734)
(142.509 3.0515503e-16 -19.000651)
(142.28925 0 -18.415311)
(142.09245 7.357102e-16 -17.819354)
(141.91983 -6.9898692e-16 -17.214774)
(141.77245 -6.6469681e-16 -16.603608)
(141.65111 -1.9290823e-19 -15.988049)
(141.55637 6.0065354e-16 -15.370346)
(141.48853 5.7130166e-16 -14.7528)
(141.44763 -5.4321525e-16 -14.137716)
(141.43345 1.2934536e-16 -13.527374)
(141.44549 -4.9152252e-16 -12.923993)
(141.48303 8.1840291e-16 -12.329695)
(141.54515 -4.4488322e-16 -11.746483)
(141.63069 -7.4091947e-16 -11.17621)
(141.73836 4.0287171e-16 -10.620561)
(141.86672 0 -10.08104)
(142.01423 -1.8263771e-16 -9.558955)
(142.17927 -6.9474961e-16 -9.0554075)
(142.36019 6.6157031e-16 -8.571315)
(142.55531 7.8708564e-16 -8.1073832)
(142.76298 -7.4984134e-16 -7.6641219)
(142.98158 -2.8529117e-16 -7.2418722)
(143.20956 6.8020624e-16 -6.8407947)
(143.44543 2.588768e-16 -6.460899)
(143.6878 2.4683515e-16 -6.102048)
(143.93536 2.3503561e-16 -5.7639776)
(144.18693 -1.6171503e-19 -5.4463096)
(144.44142 -6.3997072e-16 -5.1485671)
(144.69784 6.0938995e-16 -4.8701874)
(144.95532 3.8692969e-16 -4.6105358)
(145.21309 -7.3783448e-16 -4.3689171)
(145.47045 3.5132074e-16 -4.144587)
(145.72681 -6.6951528e-16 -3.9367603)
(145.98164 1.5949616e-15 -3.7446309)
(146.23453 -3.0414396e-16 -3.5673613)
(146.48511 -2.8969469e-16 -3.4040966)
(146.73299 -2.7594407e-16 -3.253957)
(146.97782 0 -3.1160612)
(147.21931 -7.5177964e-16 -2.9895156)
(147.45719 -4.7730194e-16 -2.8734258)
(147.69119 1.3650228e-15 -2.7668859)
(147.92103 4.3340703e-16 -2.6689853)
(148.14631 -4.1295126e-16 -2.5788056)
(148.36646 -1.5736916e-15 -2.4954238)
(148.58058 -3.7461065e-16 -2.4179117)
(148.78748 3.5721838e-16 -2.3453413)
(148.98561 0 -2.2767707)
(149.1732 9.718993e-16 -2.2111864)
(149.34798 -6.1738111e-16 -2.1477536)
(149.50766 8.8201177e-16 -2.085254)
(149.65093 -8.40045e-16 -2.0215844)
(149.77275 1.7881369e-19 -1.9601076)
(149.86875 5.0837525e-16 -1.8886256)
(149.95822 2.4206325e-16 -1.7950252)
(149.84372 0 -1.8528254)
(150.10831 -2.1963176e-16 -1.2541653)
(149.27445 0 -2.5935144)
(142.4 -1.4650161e-15 -33.907737)
(150.51764 -4.1476046e-17 -25.464604)
(146.17886 -3.9751686e-17 -32.113568)
(148.25643 -3.7262192e-17 -26.602294)
(146.3715 -3.5298077e-17 -30.118445)
(146.88651 -1.0695711e-15 -27.176259)
(145.95391 1.0748194e-15 -28.622291)
(145.89013 5.9782819e-17 -27.147874)
(145.31115 9.639497e-16 -27.502543)
(145.03128 -7.5130017e-16 -26.695981)
(144.58338 -1.0174175e-16 -26.553599)
(144.2314 8.1989302e-16 -25.989832)
(143.83286 -7.7647969e-16 -25.632584)
(143.46666 0 -25.126452)
(143.09404 0 -24.667635)
(142.73784 -7.0162988e-16 -24.150008)
(142.38952 4.4346322e-16 -23.630247)
(142.05642 0 -23.079492)
(141.73813 -5.9960133e-16 -22.51355)
(141.43799 1.0110188e-15 -21.925815)
(141.15751 2.8491641e-19 -21.321301)
(140.89895 -7.9724329e-16 -20.699631)
(140.66409 4.3257547e-16 -20.063412)
(140.45468 -7.1942633e-16 -19.414146)
(140.27222 8.7807384e-16 -18.754169)
(140.11799 -9.2833032e-17 -18.085688)
(139.993 0 -17.411194)
(139.89798 0 -16.733217)
(139.83334 4.7668624e-16 -16.05438)
(139.79919 1.0091753e-19 -15.377317)
(139.79532 1.4384766e-16 -14.704647)
(139.82122 -1.0917779e-15 -14.038924)
(139.87609 5.1928991e-16 -13.382604)
(139.95885 -4.934058e-16 -12.738003)
(140.06819 5.8664752e-16 -12.107274)
(140.2026 -4.4617458e-16 -11.492371)
(140.36041 6.3641609e-16 -10.89504)
(140.53979 0 -10.316799)
(140.73884 0 -9.758935)
(140.9556 3.6542207e-16 -9.2224964)
(141.18809 -1.7400104e-16 -8.7083027)
(141.43434 -8.2728697e-16 -8.2169567)
(141.69243 -1.573548e-16 -7.7488372)
(141.96052 1.0494193e-15 -7.3041287)
(142.23682 2.8542488e-16 -6.8828456)
(142.51969 -1.0867494e-15 -6.4848302)
(142.80756 0 -6.1097844)
(143.09903 -7.3853609e-16 -5.7572823)
(143.39281 4.690517e-16 -5.4267892)
(143.68772 2.233568e-16 -5.1176787)
(143.98275 4.2496998e-16 -4.8292479)
(144.27699 -8.0985074e-16 -4.5607317)
(144.56964 7.7102102e-16 -4.3113158)
(144.86004 -1.1018998e-15 -4.080148)
(145.14761 3.4978427e-16 -3.8663479)
(145.43185 3.3309033e-16 -3.6690148)
(145.71236 0 -3.4872411)
(145.98881 0 -3.3201121)
(146.26098 5.7523389e-16 -3.1667078)
(146.52858 5.4771734e-16 -3.0260926)
(146.79136 -5.2196122e-16 -2.897343)
(147.04914 4.965275e-16 -2.7795321)
(147.30174 -4.7301958e-16 -2.671741)
(147.54898 4.5020793e-16 -2.5730471)
(147.79067 -1.2866257e-15 -2.4825285)
(148.02653 -8.16401e-16 -2.39926)
(148.25611 1.166086e-15 -2.3223131)
(148.47866 3.6993618e-16 -2.2507565)
(148.69309 0 -2.1836587)
(148.89797 6.7022613e-16 -2.120054)
(149.09157 -6.3807758e-16 -2.0589504)
(149.27163 0 -1.9994831)
(149.43603 -5.7785813e-16 -1.9401345)
(149.58285 -5.4989351e-16 -1.8797213)
(149.7061 0 -1.8205859)
(149.81072 0 -1.7455375)
(149.8859 0 -1.6737165)
(149.81769 -4.511449e-16 -1.6743932)
(150.03441 0 -1.1864689)
(149.24148 -7.7504861e-16 -2.3631125)
(140.43216 -4.6556199e-17 -35.885192)
(148.51751 0 -27.15874)
(144.03627 -1.2513093e-15 -33.888783)
(146.13895 1.2515825e-15 -28.304597)
(144.19677 0 -31.737283)
(144.68065 -1.086866e-15 -28.809925)
(143.72158 9.6292353e-16 -30.125643)
(143.6183 0 -28.662261)
(143.01826 8.6310568e-16 -28.898475)
(142.70516 -9.2531761e-16 -28.069271)
(142.23791 5.1478835e-17 -27.828537)
(141.8619 7.331329e-16 -27.212846)
(141.4481 -9.2166662e-17 -26.768063)
(141.06754 -6.1356806e-16 -26.191847)
(140.68699 5.8206509e-16 -25.648009)
(140.32677 7.945037e-17 -25.050252)
(139.98043 -5.2303532e-16 -24.444382)
(139.65475 0 -23.808347)
(139.3501 6.7092435e-17 -23.155005)
(139.06981 1.9141542e-16 -22.480184)
(138.81568 -1.2121422e-16 -21.788536)
(138.58996 -2.2957845e-16 -21.080829)
(138.39442 0 -20.360076)
(138.23066 1.0356272e-16 -19.628557)
(138.09992 -9.7944082e-17 -18.889185)
(138.00316 9.2980296e-17 -18.144796)
(137.94094 0 -17.398423)
(137.91345 -1.6820388e-16 -16.653087)
(137.92051 -4.7866797e-16 -15.91182)
(137.96159 4.5411916e-16 -15.177586)
(138.03578 -1.4367235e-16 -14.453238)
(138.14186 0 -13.741472)
(138.27832 3.8976895e-16 -13.044794)
(138.44339 -6.1732758e-16 -12.365481)
(138.63508 1.1772482e-16 -11.705563)
(138.85127 -2.2327639e-16 -11.0668)