/*--------------------------------*- C++ -*----------------------------------*\
  =========                 |
  \\      /  F ield         | OpenFOAM: The Open Source CFD Toolbox
   \\    /   O peration     | Website:  https://openfoam.org
    \\  /    A nd           | Version:  6
     \\/     M anipulation  |
\*---------------------------------------------------------------------------*/
FoamFile
{
    version     2.0;
    format      ascii;
    class       volVectorField;
    location    "0";
    object      Ulift0;
}
// * * * * * * * * * * * * * * * * * * * * * * * * * * * * * * * * * * * * * //

dimensions      [0 1 -1 0 0 0 0];

internalField   nonuniform List<vector> 
11644
(
(1.00126 -0.00092866 0)
(1.00126 -0.00278234 0)
(1.00125 -0.00462432 0)
(1.00123 -0.00644414 0)
(1.0012 -0.00822733 0)
(1.00115 -0.00995366 0)
(1.00108 -0.0115955 0)
(1.00099 -0.0131163 0)
(1.00085 -0.014469 0)
(1.00068 -0.0155962 0)
(1.00045 -0.0164299 0)
(1.00018 -0.0168949 0)
(0.999847 -0.0169131 0)
(0.999471 -0.0164121 0)
(0.999064 -0.015335 0)
(0.998648 -0.0136524 0)
(0.998255 -0.0113748 0)
(0.997919 -0.00856156 0)
(0.997674 -0.00532146 0)
(0.997544 -0.00180571 -1.13956e-32)
(0.997544 0.00180543 1.13939e-32)
(0.997674 0.0053212 0)
(0.997919 0.00856133 0)
(0.998255 0.0113747 0)
(0.998648 0.0136523 0)
(0.999064 0.0153349 0)
(0.999471 0.0164121 0)
(0.999847 0.0169131 0)
(1.00018 0.0168948 0)
(1.00045 0.0164299 0)
(1.00068 0.0155962 0)
(1.00085 0.0144691 0)
(1.00099 0.0131163 0)
(1.00108 0.0115956 0)
(1.00115 0.00995371 0)
(1.0012 0.00822738 0)
(1.00123 0.00644419 0)
(1.00125 0.00462435 0)
(1.00126 0.00278236 0)
(1.00126 0.000928666 0)
(1.0038 -0.000935387 0)
(1.00379 -0.00280399 0)
(1.00376 -0.0046653 0)
(1.0037 -0.00651192 0)
(1.00362 -0.00833248 0)
(1.00349 -0.0101099 0)
(1.0033 -0.0118195 0)
(1.00302 -0.0134269 0)
(1.00264 -0.0148864 0)
(1.00213 -0.0161389 0)
(1.00146 -0.017112 0)
(1.00063 -0.017721 0)
(0.999627 -0.0178735 0)
(0.998472 -0.0174778 0)
(0.997207 -0.0164548 0)
(0.995902 -0.0147529 0)
(0.994657 -0.0123657 0)
(0.993591 -0.00935099 0)
(0.992809 -0.00583131 0)
(0.992393 -0.00198213 5.00361e-32)
(0.992393 0.00198184 -5.00286e-32)
(0.992809 0.00583103 0)
(0.993591 0.00935074 0)
(0.994656 0.0123655 0)
(0.995902 0.0147528 0)
(0.997207 0.0164547 0)
(0.998472 0.0174777 0)
(0.999627 0.0178735 0)
(1.00063 0.017721 0)
(1.00146 0.017112 0)
(1.00213 0.0161389 0)
(1.00264 0.0148864 0)
(1.00302 0.013427 0)
(1.0033 0.0118196 0)
(1.00349 0.01011 0)
(1.00362 0.00833253 0)
(1.0037 0.00651196 0)
(1.00376 0.00466533 0)
(1.00379 0.00280401 0)
(1.0038 0.000935394 0)
(1.00636 -0.000946139 0)
(1.00634 -0.0028391 0)
(1.00631 -0.00473347 0)
(1.00624 -0.00662789 0)
(1.00613 -0.0085174 0)
(1.00595 -0.0103916 0)
(1.00567 -0.0122324 0)
(1.00526 -0.0140114 0)
(1.00467 -0.0156864 0)
(1.00386 -0.0171984 0)
(1.00278 -0.0184675 0)
(1.0014 -0.0193915 0)
(0.999689 -0.0198481 0)
(0.997676 -0.0197035 0)
(0.995425 -0.0188304 0)
(0.993045 -0.017121 0)
(0.990726 -0.0145172 0)
(0.98874 -0.0110744 0)
(0.987265 -0.00695062 0)
(0.986474 -0.00237088 1.19699e-31)
(0.986474 0.00237053 -1.19681e-31)
(0.987265 0.00695029 0)
(0.98874 0.0110741 0)
(0.990726 0.014517 0)
(0.993045 0.0171209 0)
(0.995424 0.0188303 0)
(0.997675 0.0197035 0)
(0.999689 0.0198481 0)
(1.0014 0.0193916 0)
(1.00278 0.0184675 0)
(1.00386 0.0171985 0)
(1.00467 0.0156865 0)
(1.00526 0.0140115 0)
(1.00567 0.0122325 0)
(1.00595 0.0103917 0)
(1.00613 0.00851747 0)
(1.00624 0.00662794 0)
(1.00631 0.00473351 0)
(1.00634 0.00283913 0)
(1.00636 0.000946146 0)
(1.00894 -0.000955617 0)
(1.00894 -0.00287163 0)
(1.00891 -0.00480153 0)
(1.00887 -0.00675292 0)
(1.00877 -0.00873064 0)
(1.00859 -0.0107351 0)
(1.00829 -0.0127598 0)
(1.00782 -0.014788 0)
(1.00711 -0.0167882 0)
(1.00609 -0.018707 0)
(1.00467 -0.0204611 0)
(1.00276 -0.0219268 0)
(1.00031 -0.0229344 0)
(0.997319 -0.0232768 0)
(0.993881 -0.0227526 0)
(0.990076 -0.0211435 0)
(0.986178 -0.0182205 0)
(0.982943 -0.0140572 0)
(0.980458 -0.00891333 0)
(0.97909 -0.00305864 0)
(0.97909 0.00305818 0)
(0.980458 0.00891291 0)
(0.982943 0.0140569 0)
(0.986178 0.0182202 0)
(0.990075 0.0211433 0)
(0.99388 0.0227525 0)
(0.997319 0.0232768 0)
(1.00031 0.0229344 0)
(1.00276 0.0219269 0)
(1.00467 0.0204612 0)
(1.00609 0.0187071 0)
(1.00711 0.0167883 0)
(1.00782 0.0147882 0)
(1.00829 0.0127599 0)
(1.00859 0.0107352 0)
(1.00877 0.00873072 0)
(1.00887 0.00675298 0)
(1.00891 0.00480158 0)
(1.00894 0.00287166 0)
(1.00894 0.000955626 0)
(1.01154 -0.000956246 0)
(1.01156 -0.00287849 0)
(1.01157 -0.00482986 0)
(1.01158 -0.00682925 0)
(1.01155 -0.00889446 0)
(1.01145 -0.0110411 0)
(1.01123 -0.0132805 0)
(1.01082 -0.0156167 0)
(1.01013 -0.0180404 0)
(1.00905 -0.0205205 0)
(1.00744 -0.0229878 0)
(1.00514 -0.0253097 0)
(1.00195 -0.027251 0)
(0.997783 -0.028453 0)
(0.993014 -0.0286814 0)
(0.987278 -0.0275963 0)
(0.980406 -0.0242175 0)
(0.975759 -0.0188539 0)
(0.971584 -0.0121907 0)
(0.969177 -0.00423124 4.27246e-31)
(0.969177 0.00423062 -4.27183e-31)
(0.971584 0.0121902 0)
(0.975759 0.0188535 0)
(0.980405 0.0242172 0)
(0.987277 0.0275962 0)
(0.993014 0.0286814 0)
(0.997783 0.028453 0)
(1.00195 0.0272511 0)
(1.00514 0.0253099 0)
(1.00744 0.0229879 0)
(1.00905 0.0205206 0)
(1.01013 0.0180406 0)
(1.01082 0.0156168 0)
(1.01123 0.0132807 0)
(1.01145 0.0110412 0)
(1.01155 0.00889455 0)
(1.01158 0.00682932 0)
(1.01157 0.00482991 0)
(1.01156 0.00287852 0)
(1.01154 0.000956257 0)
(1.01412 -0.000938836 0)
(1.01417 -0.00283147 0)
(1.01425 -0.00476937 0)
(1.01436 -0.00678384 0)
(1.01447 -0.0089077 0)
(1.01454 -0.0111754 0)
(1.01451 -0.0136224 0)
(1.01432 -0.0162833 0)
(1.01387 -0.0191886 0)
(1.01299 -0.0223574 0)
(1.01151 -0.0257833 0)
(1.00914 -0.0293966 0)
(1.0054 -0.032935 0)
(0.99936 -0.0354297 0)
(0.993939 -0.0370399 0)
(0.98658 -0.0382916 0)
(0.970516 -0.0338857 0)
(0.967704 -0.0260543 0)
(0.959441 -0.0178657 0)
(0.95481 -0.00633305 1.27895e-30)
(0.95481 0.00633213 -1.27876e-30)
(0.959441 0.0178649 0)
(0.967703 0.0260537 0)
(0.970515 0.0338854 0)
(0.98658 0.0382915 0)
(0.993938 0.0370399 0)
(0.999359 0.0354299 0)
(1.0054 0.0329353 0)
(1.00914 0.0293969 0)
(1.01151 0.0257836 0)
(1.01299 0.0223577 0)
(1.01387 0.0191888 0)
(1.01432 0.0162835 0)
(1.01451 0.0136225 0)
(1.01454 0.0111755 0)
(1.01447 0.00890782 0)
(1.01436 0.00678392 0)
(1.01425 0.00476943 0)
(1.01417 0.00283151 0)
(1.01412 0.000938848 0)
(1.01661 -0.000893748 0)
(1.01671 -0.00270075 0)
(1.01689 -0.00456724 0)
(1.01714 -0.00653608 0)
(1.01745 -0.00865493 0)
(1.01779 -0.0109781 0)
(1.01811 -0.0135684 0)
(1.01833 -0.0164979 0)
(1.01837 -0.0198494 0)
(1.01807 -0.023719 0)
(1.01724 -0.0282323 0)
(1.01566 -0.0336221 0)
(1.01312 -0.0405495 0)
(0.999788 -0.0440424 0)
(0.998446 -0.0460613 0)
(0.986459 -0.0480344 0)
(0.957791 -0.0488656 0)
(0.962073 -0.0437112 0)
(0.949029 -0.0309905 0)
(0.940536 -0.0143369 -9.49106e-26)
(0.93911 0.00496138 0)
(0.945249 0.0232982 4.9887e-23)
(0.957212 0.0378333 0)
(0.9727 0.0508014 0)
(0.986458 0.0480345 0)
(0.998445 0.0460615 0)
(0.999787 0.0440428 0)
(1.01312 0.0405499 0)
(1.01566 0.0336225 0)
(1.01724 0.0282327 0)
(1.01807 0.0237193 0)
(1.01837 0.0198497 0)
(1.01833 0.0164981 0)
(1.01811 0.0135686 0)
(1.01779 0.0109783 0)
(1.01745 0.00865506 0)
(1.01714 0.00653618 0)
(1.01689 0.00456731 0)
(1.01671 0.00270079 0)
(1.01661 0.000893761 0)
(1.01893 -0.000812576 0)
(1.01908 -0.00246001 0)
(1.01938 -0.00417582 0)
(1.01982 -0.00601085 0)
(1.0204 -0.00802417 0)
(1.02109 -0.010287 0)
(1.02187 -0.0128869 0)
(1.0227 -0.015932 0)
(1.02348 -0.019552 0)
(1.02411 -0.0238897 0)
(1.02437 -0.0290602 0)
(1.02394 -0.0350036 0)
(1.0224 -0.040996 0)
(0.996549 -0.0498655 0)
(1.00605 -0.0600607 0)
(0.990982 -0.0666911 0)
(0.973521 -0.0695836 0)
(0.950581 -0.0669821 0)
(0.925855 -0.0524664 0)
(0.907249 -0.025468 1.68569e-25)
(0.902993 0.00871178 0)
(0.915213 0.0403467 2.67028e-25)
(0.938053 0.0613679 0)
(0.962605 0.0695299 0)
(0.983814 0.0691261 0)
(1.00187 0.063168 0)
(1.01429 0.059107 0)
(1.0224 0.0409967 0)
(1.02394 0.0350042 0)
(1.02437 0.0290607 0)
(1.02411 0.0238902 0)
(1.02348 0.0195523 0)
(1.0227 0.0159323 0)
(1.02187 0.0128872 0)
(1.02109 0.0102872 0)
(1.0204 0.00802431 0)
(1.01982 0.00601095 0)
(1.01938 0.00417589 0)
(1.01908 0.00246005 0)
(1.01893 0.000812588 0)
(1.02098 -0.000690197 0)
(1.02119 -0.00209278 0)
(1.02161 -0.00356388 0)
(1.02225 -0.00515586 0)
(1.02312 -0.00693194 0)
(1.02422 -0.00897231 0)
(1.02555 -0.0113822 0)
(1.02713 -0.0143028 0)
(1.02891 -0.0179269 0)
(1.03083 -0.0225205 0)
(1.03275 -0.0284582 0)
(1.0343 -0.0362947 0)
(1.03471 -0.0469668 0)
(1.02797 -0.0564403 0)
(1.02355 -0.0724038 0)
(1.00368 -0.0869702 0)
(0.98481 -0.101629 0)
(0.947361 -0.107955 0)
(0.900409 -0.0963387 -3.18793e-25)
(0.858929 -0.0552418 0)
(0.845877 0.00849573 -1.4064e-26)
(0.870225 0.0684412 0)
(0.91604 0.101788 -2.42478e-23)
(0.961022 0.107256 0)
(0.996045 0.101171 0)
(1.01948 0.0820924 0)
(1.02635 0.0640346 0)
(1.03471 0.0469679 0)
(1.0343 0.0362955 0)
(1.03275 0.0284588 0)
(1.03083 0.0225209 0)
(1.02891 0.0179272 0)
(1.02713 0.0143031 0)
(1.02555 0.0113824 0)
(1.02422 0.00897248 0)
(1.02312 0.00693207 0)
(1.02225 0.00515596 0)
(1.02161 0.00356395 0)
(1.02119 0.00209282 0)
(1.02098 0.00069021 0)
(1.02263 -0.000526773 0)
(1.0229 -0.00159884 0)
(1.02344 -0.00272836 0)
(1.02427 -0.00396034 0)
(1.02541 -0.0053509 0)
(1.02691 -0.00697421 0)
(1.02881 -0.00893268 0)
(1.03116 -0.0113725 0)
(1.03406 -0.0145085 0)
(1.03758 -0.0186651 0)
(1.0418 -0.0243444 0)
(1.04678 -0.032341 0)
(1.05249 -0.0439181 0)
(1.05071 -0.056552 0)
(1.05211 -0.0793969 0)
(1.04032 -0.106337 0)
(1.01749 -0.141504 0)
(0.969572 -0.179291 0)
(0.877632 -0.194092 1.03308e-23)
(0.763334 -0.134949 0)
(0.711117 0.0101604 4.73953e-24)
(0.776403 0.147795 -1.02764e-23)
(0.89141 0.195176 -5.89911e-24)
(0.977946 0.174967 0)
(1.02722 0.13506 0)
(1.05038 0.0944554 0)
(1.05189 0.0670625 0)
(1.05249 0.0439194 0)
(1.04678 0.0323419 0)
(1.0418 0.0243451 0)
(1.03758 0.0186655 0)
(1.03406 0.0145089 0)
(1.03116 0.0113728 0)
(1.02881 0.00893288 0)
(1.02691 0.00697436 0)
(1.02541 0.00535101 0)
(1.02427 0.00396043 0)
(1.02344 0.00272842 0)
(1.0229 0.00159887 0)
(1.02263 0.000526784 0)
(1.0238 -0.000329102 0)
(1.0241 -0.000998605 0)
(1.02473 -0.00170334 0)
(1.0257 -0.00247153 0)
(1.02705 -0.00333934 0)
(1.02886 -0.00435621 0)
(1.0312 -0.00559289 0)
(1.03421 -0.00715452 0)
(1.03807 -0.00920257 0)
(1.04302 -0.011993 0)
(1.04946 -0.0159447 0)
(1.05792 -0.0217647 0)
(1.06923 -0.030685 0)
(1.07635 -0.0442682 0)
(1.09233 -0.069407 0)
(1.101 -0.105764 0)
(1.1034 -0.169625 2.80664e-25)
(1.07765 -0.28186 8.99749e-24)
(0.934393 -0.422325 -5.5993e-24)
(0.565752 -0.439187 -5.6697e-27)
(0.274902 0.0194279 0)
(0.594087 0.449953 -1.27429e-22)
(0.949241 0.414361 -1.25711e-23)
(1.08477 0.264691 3.58928e-24)
(1.11007 0.154385 2.55452e-25)
(1.10183 0.0871963 0)
(1.0838 0.0556897 0)
(1.06923 0.0306861 0)
(1.05792 0.0217654 0)
(1.04946 0.0159452 0)
(1.04302 0.0119934 0)
(1.03807 0.00920283 0)
(1.03421 0.00715472 0)
(1.0312 0.00559304 0)
(1.02886 0.00435632 0)
(1.02705 0.00333942 0)
(1.0257 0.00247159 0)
(1.02473 0.00170339 0)
(1.0241 0.00099863 0)
(1.0238 0.000329111 0)
(1.02439 -0.000110535 0)
(1.02472 -0.0003332 0)
(1.02538 -0.000560982 0)
(1.02641 -0.000798437 0)
(1.02786 -0.00105207 0)
(1.02981 -0.00133163 0)
(1.03237 -0.00165208 0)
(1.03569 -0.00203687 0)
(1.04003 -0.00252347 0)
(1.04574 -0.0031732 0)
(1.05336 -0.00408957 0)
(1.06378 -0.00545383 0)
(1.07841 -0.00759735 0)
(1.09488 -0.0163552 0)
(1.12492 -0.0294856 0)
(1.16381 -0.0544791 0)
(1.22829 -0.110348 -2.03204e-24)
(1.33599 -0.242994 1.61091e-24)
(1.50326 -0.665463 2.67655e-22)
(1.49588 0.626481 -7.94122e-23)
(1.31998 0.222946 -2.18378e-24)
(1.21644 0.0922139 0)
(1.14629 0.0384608 0)
(1.10817 0.0226935 0)
(1.07841 0.00759762 0)
(1.06378 0.00545402 0)
(1.05336 0.00408971 0)
(1.04574 0.00317332 0)
(1.04003 0.00252357 0)
(1.03569 0.00203696 0)
(1.03237 0.00165215 0)
(1.02981 0.00133169 0)
(1.02786 0.00105212 0)
(1.02641 0.000798477 0)
(1.02538 0.000561011 0)
(1.02472 0.000333219 0)
(1.02439 0.00011054 0)
(1.02439 0.000110986 0)
(1.02471 0.000341667 0)
(1.02535 0.000599275 0)
(1.02635 0.000904576 0)
(1.02775 0.00128314 0)
(1.02964 0.00176859 0)
(1.0321 0.00240774 0)
(1.03531 0.00326907 0)
(1.03946 0.00445736 0)
(1.0449 0.00613981 0)
(1.05211 0.00859401 0)
(1.06185 0.0122983 0)
(1.07535 0.0181074 0)
(1.09493 0.0186287 0)
(1.12539 0.0271354 0)
(1.17383 0.0361334 0)
(1.2616 0.0551182 0)
(1.44813 0.108006 -7.1743e-25)
(1.99583 0.32812 -8.74351e-23)
(1.93097 -0.305493 -4.91862e-23)
(1.43195 -0.101545 0)
(1.2356 -0.0544921 0)
(1.14698 -0.0354939 0)
(1.10846 -0.0214755 0)
(1.07535 -0.0181082 0)
(1.06185 -0.0122987 0)
(1.05211 -0.00859425 0)
(1.0449 -0.00613994 0)
(1.03946 -0.00445742 0)
(1.03531 -0.0032691 0)
(1.0321 -0.00240774 0)
(1.02964 -0.00176858 0)
(1.02775 -0.00128312 0)
(1.02635 -0.000904558 0)
(1.02535 -0.000599261 0)
(1.02471 -0.000341658 0)
(1.02439 -0.000110981 0)
(1.02381 0.000316396 0)
(1.02409 0.000966728 0)
(1.02466 0.00167132 0)
(1.02554 0.00247209 0)
(1.02676 0.00342064 0)
(1.02839 0.00458451 0)
(1.03048 0.00605662 0)
(1.03315 0.00797029 0)
(1.03653 0.0105242 0)
(1.04079 0.0140254 0)
(1.04617 0.0189654 0)
(1.05298 0.0261575 0)
(1.06162 0.0369748 0)
(1.07644 0.0453321 0)
(1.09326 0.0677625 0)
(1.11972 0.0993341 0)
(1.15335 0.16225 0)
(1.17157 0.304148 5.73956e-24)
(1.08885 0.586732 0)
(1.10345 -0.563236 2.9265e-23)
(1.1721 -0.280015 0)
(1.14055 -0.147322 0)
(1.10317 -0.0854027 0)
(1.08438 -0.0546104 0)
(1.06162 -0.0369761 0)
(1.05298 -0.0261582 0)
(1.04617 -0.0189659 0)
(1.04079 -0.0140257 0)
(1.03653 -0.0105244 0)
(1.03315 -0.00797039 0)
(1.03048 -0.00605668 0)
(1.02839 -0.00458454 0)
(1.02676 -0.00342065 0)
(1.02554 -0.00247209 0)
(1.02466 -0.00167131 0)
(1.02409 -0.000966721 0)
(1.02381 -0.000316395 0)
(1.02272 0.000489367 0)
(1.02294 0.00149143 0)
(1.02339 0.00256547 0)
(1.02408 0.00376627 0)
(1.02503 0.0051599 0)
(1.02626 0.00683033 0)
(1.02781 0.00888879 0)
(1.02969 0.0114873 0)
(1.03195 0.014839 0)
(1.0346 0.0192496 0)
(1.03758 0.0251716 0)
(1.04071 0.0333112 0)
(1.04341 0.0448991 0)
(1.05056 0.0560709 0)
(1.05282 0.0784438 0)
(1.05464 0.108107 0)
(1.04464 0.155067 0)
(0.99561 0.219365 -3.62948e-25)
(0.876101 0.267715 1.41875e-23)
(0.692581 0.207497 -2.29186e-24)
(0.584141 -0.00862898 -4.83191e-25)
(0.715746 -0.223848 3.7903e-23)
(0.895726 -0.265061 7.0228e-24)
(1.00486 -0.211139 -3.4934e-25)
(1.045 -0.143367 0)
(1.05137 -0.0936344 0)
(1.05225 -0.066114 0)
(1.04341 -0.0449002 0)
(1.04071 -0.033312 0)
(1.03758 -0.0251721 0)
(1.0346 -0.0192499 0)
(1.03195 -0.0148392 0)
(1.02969 -0.0114874 0)
(1.02781 -0.00888888 0)
(1.02626 -0.00683038 0)
(1.02503 -0.00515992 0)
(1.02408 -0.00376628 0)
(1.02339 -0.00256547 0)
(1.02294 -0.00149143 0)
(1.02272 -0.000489365 0)
(1.02121 0.000619183 0)
(1.02137 0.00188303 0)
(1.02168 0.00322513 0)
(1.02215 0.0047038 0)
(1.02278 0.00638718 0)
(1.02356 0.00835845 0)
(1.02449 0.0107221 0)
(1.02554 0.0136113 0)
(1.02667 0.017195 0)
(1.02779 0.0216784 0)
(1.02873 0.0272761 0)
(1.02923 0.0340872 0)
(1.02887 0.0416318 0)
(1.02528 0.0548494 0)
(1.02437 0.0721602 0)
(1.00424 0.0865834 0)
(0.990536 0.111437 0)
(0.949454 0.124203 0)
(0.891026 0.115568 3.82416e-25)
(0.83489 0.0684398 9.06313e-25)
(0.815046 -0.0104831 0)
(0.846882 -0.0840844 0)
(0.906524 -0.120883 -1.16225e-39)
(0.961783 -0.122121 0)
(0.9989 -0.106701 0)
(1.02022 -0.081642 0)
(1.02649 -0.0639975 0)
(1.02887 -0.0416325 0)
(1.02923 -0.0340877 0)
(1.02873 -0.0272765 0)
(1.02779 -0.0216787 0)
(1.02667 -0.0171952 0)
(1.02554 -0.0136114 0)
(1.02449 -0.0107222 0)
(1.02356 -0.0083585 0)
(1.02278 -0.0063872 0)
(1.02215 -0.00470381 0)
(1.02168 -0.00322513 0)
(1.02137 -0.00188303 0)
(1.02121 -0.000619188 0)
(1.01941 0.000701863 0)
(1.0195 0.00212991 0)
(1.01967 0.00363221 0)
(1.01993 0.00526267 0)
(1.02024 0.00708199 0)
(1.02059 0.00916084 0)
(1.02095 0.0115833 0)
(1.02126 0.0144508 0)
(1.02141 0.017887 0)
(1.02129 0.022046 0)
(1.02069 0.0271362 0)
(1.01934 0.0335065 0)
(1.01697 0.0419814 0)
(1.0031 0.047492 0)
(1.00752 0.0536961 0)
(0.992287 0.0647929 0)
(0.975377 0.070997 0)
(0.950937 0.0719822 0)
(0.922957 0.0594976 0)
(0.900534 0.0322487 0)
(0.893354 -0.00480636 3.9775e-27)
(0.905044 -0.040314 -2.39565e-23)
(0.929828 -0.0640146 0)
(0.957688 -0.0729277 0)
(0.982226 -0.0675579 0)
(1.00052 -0.0601376 0)
(1.0031 -0.0474923 0)
(1.01697 -0.0419818 0)
(1.01934 -0.0335069 0)
(1.02069 -0.0271364 0)
(1.02129 -0.0220462 0)
(1.02141 -0.0178871 0)
(1.02126 -0.0144509 0)
(1.02095 -0.0115833 0)
(1.02059 -0.00916087 0)
(1.02024 -0.00708201 0)
(1.01993 -0.00526267 0)
(1.01967 -0.00363221 0)
(1.0195 -0.00212991 0)
(1.01941 -0.000701863 0)
(1.01745 0.000739559 0)
(1.01748 0.00223943 0)
(1.01753 0.00380225 0)
(1.01758 0.00547222 0)
(1.01763 0.0072968 0)
(1.01762 0.00932767 0)
(1.01751 0.0116213 0)
(1.01723 0.0142384 0)
(1.01668 0.0172421 0)
(1.01568 0.0206915 0)
(1.01402 0.0246283 0)
(1.01136 0.0290334 0)
(1.00712 0.0336793 0)
(1.00019 0.037558 0)
(0.995623 0.0417292 0)
(0.985956 0.0455121 0)
(0.974658 0.0474343 0)
(0.959865 0.0442219 0)
(0.945543 0.0339938 0)
(0.935158 0.0175605 0)
(0.931999 -0.00258038 0)
(0.937181 -0.0221544 0)
(0.948903 -0.0371727 0)
(0.963627 -0.0457507 0)
(0.979887 -0.0460582 0)
(0.991275 -0.0440538 0)
(1.00019 -0.037558 0)
(1.00712 -0.0336794 0)
(1.01136 -0.0290335 0)
(1.01402 -0.0246285 0)
(1.01568 -0.0206916 0)
(1.01668 -0.0172421 0)
(1.01724 -0.0142385 0)
(1.01751 -0.0116213 0)
(1.01762 -0.00932768 0)
(1.01763 -0.00729679 0)
(1.01758 -0.00547222 0)
(1.01753 -0.00380224 0)
(1.01748 -0.00223943 0)
(1.01745 -0.000739562 0)
(1.01544 0.000738869 0)
(1.01542 0.00223254 0)
(1.01537 0.0037741 0)
(1.01527 0.00539581 0)
(1.0151 0.00713002 0)
(1.01483 0.00900853 0)
(1.0144 0.0110609 0)
(1.01373 0.0133113 0)
(1.01274 0.0157724 0)
(1.0113 0.0184357 0)
(1.00922 0.0212544 0)
(1.00628 0.024115 0)
(1.00223 0.026796 0)
(0.996895 0.0289339 0)
(0.992517 0.0315534 0)
(0.985166 0.0326821 0)
(0.977544 0.0324211 0)
(0.968679 0.0286853 0)
(0.960799 0.0211034 0)
(0.955423 0.0105926 0)
(0.953835 -0.00154355 0)
(0.956451 -0.0134362 0)
(0.962595 -0.0233047 0)
(0.970855 -0.0300488 0)
(0.981123 -0.0321979 0)
(0.988974 -0.0325263 0)
(0.996894 -0.0289338 0)
(1.00223 -0.0267959 0)
(1.00628 -0.0241149 0)
(1.00922 -0.0212543 0)
(1.0113 -0.0184357 0)
(1.01275 -0.0157724 0)
(1.01373 -0.0133112 0)
(1.0144 -0.0110609 0)
(1.01483 -0.00900851 0)
(1.0151 -0.00713 0)
(1.01527 -0.00539578 0)
(1.01537 -0.00377409 0)
(1.01542 -0.00223253 0)
(1.01544 -0.000738866 0)
(1.01347 0.000708719 0)
(1.01341 0.00213704 0)
(1.01329 0.00359773 0)
(1.01308 0.00511131 0)
(1.01277 0.00669635 0)
(1.01233 0.00836779 0)
(1.0117 0.0101344 0)
(1.01084 0.0119942 0)
(1.00966 0.0139287 0)
(1.00809 0.0158927 0)
(1.006 0.0178027 0)
(1.00326 0.0195288 0)
(0.999711 0.0209171 0)
(0.995094 0.0219533 0)
(0.991451 0.0236258 0)
(0.986292 0.0238658 0)
(0.981175 0.0229928 0)
(0.975874 0.0196746 0)
(0.971326 0.0140241 0)
(0.968287 0.0068959 0)
(0.967402 -0.000998976 0)
(0.968863 -0.00878044 0)
(0.972354 -0.0155978 0)
(0.977147 -0.0207852 0)
(0.983556 -0.0231627 0)
(0.988912 -0.0241068 0)
(0.995094 -0.021953 0)
(0.999711 -0.0209169 0)
(1.00326 -0.0195286 0)
(1.006 -0.0178026 0)
(1.00809 -0.0158926 0)
(1.00966 -0.0139286 0)
(1.01084 -0.0119942 0)
(1.0117 -0.0101343 0)
(1.01233 -0.00836774 0)
(1.01277 -0.00669629 0)
(1.01308 -0.00511127 0)
(1.01329 -0.0035977 0)
(1.01341 -0.00213702 0)
(1.01347 -0.000708717 0)
(1.01161 0.000658438 0)
(1.01153 0.00198168 0)
(1.01136 0.00332352 0)
(1.01109 0.00469465 0)
(1.0107 0.00610284 0)
(1.01016 0.00755114 0)
(1.00945 0.00903516 0)
(1.00852 0.0105392 0)
(1.00732 0.0120305 0)
(1.00582 0.0134494 0)
(1.00397 0.0146914 0)
(1.00175 0.0155671 0)
(0.99917 0.0156898 0)
(0.996355 0.0141247 0)
(0.988788 0.0177243 0)
(0.989003 0.0177507 0)
(0.981609 0.0172309 0)
(0.98206 0.0144278 0)
(0.978935 0.00975107 0)
(0.976963 0.00470811 0)
(0.97641 -0.000679509 5.23475e-37)
(0.977342 -0.00601366 0)
(0.979651 -0.0109345 0)
(0.982941 -0.0156678 0)
(0.987837 -0.0148887 0)
(0.989946 -0.0190273 0)
(0.996354 -0.0141244 0)
(0.99917 -0.0156895 0)
(1.00175 -0.0155668 0)
(1.00397 -0.0146912 0)
(1.00582 -0.0134492 0)
(1.00732 -0.0120304 0)
(1.00852 -0.0105391 0)
(1.00945 -0.00903505 0)
(1.01016 -0.00755104 0)
(1.0107 -0.00610277 0)
(1.01109 -0.00469459 0)
(1.01136 -0.00332348 0)
(1.01153 -0.00198166 0)
(1.01161 -0.000658431 0)
(1.00991 0.000596387 0)
(1.00981 0.00179191 0)
(1.00962 0.00299514 0)
(1.00931 0.00420942 0)
(1.00889 0.00543517 0)
(1.00832 0.00666839 0)
(1.00759 0.00789886 0)
(1.00668 0.00910791 0)
(1.00556 0.0102663 0)
(1.00421 0.011333 0)
(1.00264 0.0122578 0)
(1.00088 0.0129981 0)
(0.999071 0.0135839 0)
(0.997539 0.0143508 0)
(0.988432 0.0103578 0)
(0.989316 0.0114147 0)
(0.987748 0.012176 0)
(0.9865 0.00897902 0)
(0.984579 0.00600654 0)
(0.983403 0.00265273 0)
(0.983167 -0.000890526 -6.86037e-37)
(0.983896 -0.00436941 0)
(0.985506 -0.00754704 0)
(0.987522 -0.0103824 0)
(0.989778 -0.0133868 0)
(0.988432 -0.0103573 0)
(0.997539 -0.0143504 0)
(0.999071 -0.0135836 0)
(1.00088 -0.0129978 0)
(1.00264 -0.0122576 0)
(1.00421 -0.0113328 0)
(1.00556 -0.0102661 0)
(1.00668 -0.00910775 0)
(1.00759 -0.00789872 0)
(1.00832 -0.00666828 0)
(1.00889 -0.00543507 0)
(1.00931 -0.00420935 0)
(1.00962 -0.0029951 0)
(1.00981 -0.00179188 0)
(1.00991 -0.000596379 0)
(1.00838 0.000529256 0)
(1.00828 0.00158787 0)
(1.00808 0.00264634 0)
(1.00777 0.00370298 0)
(1.00734 0.00475366 0)
(1.00678 0.00579077 0)
(1.00608 0.00680215 0)
(1.00523 0.00777022 0)
(1.00421 0.00867176 0)
(1.00301 0.00947922 0)
(1.00165 0.0101654 0)
(1.00012 0.0107148 0)
(0.998452 0.0111434 0)
(0.996605 0.0115182 0)
(0.994298 0.0118846 0)
(0.986227 0.00863419 0)
(0.991422 0.00532062 0)
(0.989636 0.00477252 0)
(0.988507 0.00314124 0)
(0.987932 0.00108776 6.70387e-36)
(0.987932 -0.00108711 -6.69985e-36)
(0.988507 -0.0031406 0)
(0.989636 -0.0047719 0)
(0.991422 -0.00532003 0)
(0.986227 -0.00863363 0)
(0.994298 -0.0118841 0)
(0.996605 -0.0115178 0)
(0.998452 -0.011143 0)
(1.00012 -0.0107145 0)
(1.00165 -0.0101652 0)
(1.00301 -0.00947897 0)
(1.00421 -0.00867153 0)
(1.00523 -0.00777002 0)
(1.00608 -0.00680198 0)
(1.00678 -0.00579063 0)
(1.00734 -0.00475355 0)
(1.00777 -0.00370289 0)
(1.00808 -0.00264628 0)
(1.00828 -0.00158784 0)
(1.00838 -0.000529241 0)
(1.00703 0.000461928 0)
(1.00693 0.00138412 0)
(1.00674 0.00230093 0)
(1.00644 0.00320754 0)
(1.00603 0.00409724 0)
(1.00551 0.00496074 0)
(1.00486 0.00578555 0)
(1.00409 0.00655559 0)
(1.00318 0.00725119 0)
(1.00213 0.00784964 0)
(1.00095 0.0083263 0)
(0.999627 0.0086549 0)
(0.998164 0.00880209 0)
(0.996521 0.0087015 0)
(0.994604 0.00817233 0)
(0.992295 0.00673653 0)
(0.992112 0.00508113 0)
(0.991444 0.00379185 0)
(0.990846 0.00237303 0)
(0.990512 0.000809485 6.23605e-37)
(0.990512 -0.000808824 -6.23095e-37)
(0.990846 -0.00237237 0)
(0.991445 -0.00379121 0)
(0.992112 -0.00508052 0)
(0.992295 -0.00673595 0)
(0.994604 -0.00817179 0)
(0.996521 -0.008701 0)
(0.998164 -0.00880166 0)
(0.999627 -0.00865452 0)
(1.00095 -0.00832597 0)
(1.00213 -0.00784934 0)
(1.00318 -0.00725092 0)
(1.00409 -0.00655536 0)
(1.00486 -0.00578535 0)
(1.00551 -0.00496057 0)
(1.00603 -0.00409711 0)
(1.00644 -0.00320745 0)
(1.00674 -0.00230087 0)
(1.00693 -0.00138407 0)
(1.00703 -0.000461909 0)
(1.00586 0.000397681 0)
(1.00577 0.0011903 0)
(1.00559 0.0019744 0)
(1.00531 0.00274339 0)
(1.00493 0.00348929 0)
(1.00446 0.00420226 0)
(1.00388 0.00487024 0)
(1.00319 0.00547866 0)
(1.0024 0.0060103 0)
(1.0015 0.00644534 0)
(1.0005 0.00676104 0)
(0.999398 0.00693054 0)
(0.998208 0.00691915 0)
(0.996942 0.00667744 0)
(0.995638 0.00613699 0)
(0.994427 0.00524502 0)
(0.993701 0.00416447 0)
(0.993124 0.00305076 0)
(0.992699 0.00187247 0)
(0.992472 0.000632507 0)
(0.992472 -0.000631824 0)
(0.992699 -0.00187179 0)
(0.993124 -0.0030501 0)
(0.993701 -0.00416383 0)
(0.994427 -0.0052444 0)
(0.995638 -0.00613641 0)
(0.996942 -0.0066769 0)
(0.998208 -0.00691867 0)
(0.999398 -0.00693011 0)
(1.0005 -0.00676066 0)
(1.0015 -0.00644499 0)
(1.0024 -0.00600999 0)
(1.00319 -0.00547838 0)
(1.00388 -0.00487001 0)
(1.00446 -0.00420207 0)
(1.00493 -0.00348913 0)
(1.00531 -0.00274328 0)
(1.00559 -0.00197432 0)
(1.00577 -0.00119024 0)
(1.00586 -0.00039766 0)
(1.00486 0.000338508 0)
(1.00478 0.00101222 0)
(1.00461 0.00167584 0)
(1.00436 0.00232195 0)
(1.00402 0.00294222 0)
(1.0036 0.003527 0)
(1.0031 0.00406512 0)
(1.0025 0.00454371 0)
(1.00182 0.0049481 0)
(1.00106 0.00526177 0)
(1.00023 0.00546623 0)
(0.999334 0.00554077 0)
(0.998394 0.00546222 0)
(0.997434 0.00520592 0)
(0.996499 0.00475182 0)
(0.995662 0.0041023 0)
(0.995014 0.00330915 0)
(0.994523 0.0024291 0)
(0.994185 0.00148597 0)
(0.994012 0.000500602 0)
(0.994012 -0.000499886 0)
(0.994185 -0.00148526 0)
(0.994523 -0.00242841 0)
(0.995014 -0.00330847 0)
(0.995663 -0.00410164 0)
(0.996499 -0.0047512 0)
(0.997434 -0.00520533 0)
(0.998394 -0.00546168 0)
(0.999335 -0.00554028 0)
(1.00023 -0.00546578 0)
(1.00106 -0.00526136 0)
(1.00182 -0.00494774 0)
(1.0025 -0.00454339 0)
(1.0031 -0.00406484 0)
(1.0036 -0.00352677 0)
(1.00403 -0.00294204 0)
(1.00436 -0.00232182 0)
(1.00461 -0.00167574 0)
(1.00478 -0.00101216 0)
(1.00486 -0.000338486 0)
(1.00401 0.00028544 0)
(1.00394 0.000852833 0)
(1.00379 0.00140963 0)
(1.00357 0.00194833 0)
(1.00328 0.00246079 0)
(1.00291 0.00293803 0)
(1.00247 0.0033701 0)
(1.00196 0.00374601 0)
(1.00139 0.0040537 0)
(1.00076 0.00428018 0)
(1.00008 0.00441171 0)
(0.999356 0.00443418 0)
(0.998615 0.00433404 0)
(0.997879 0.00410023 0)
(0.997178 0.00372811 0)
(0.996551 0.00322521 0)
(0.996034 0.00261454 0)
(0.995638 0.00192415 0)
(0.995368 0.00117757 0)
(0.995231 0.000396664 6.11158e-37)
(0.995231 -0.000395904 -6.09987e-37)
(0.995368 -0.00117682 0)
(0.995638 -0.0019234 0)
(0.996034 -0.00261381 0)
(0.996551 -0.00322451 0)
(0.997178 -0.00372744 0)
(0.997879 -0.0040996 0)
(0.998616 -0.00433345 0)
(0.999356 -0.00443364 0)
(1.00008 -0.00441121 0)
(1.00076 -0.00427973 0)
(1.00139 -0.00405329 0)
(1.00196 -0.00374564 0)
(1.00247 -0.00336979 0)
(1.00291 -0.00293776 0)
(1.00328 -0.00246057 0)
(1.00357 -0.00194817 0)
(1.00379 -0.00140952 0)
(1.00394 -0.000852764 0)
(1.00401 -0.000285417 0)
(1.0033 0.000238821 0)
(1.00323 0.00071304 0)
(1.0031 0.00117691 0)
(1.00291 0.00162325 0)
(1.00266 0.00204449 0)
(1.00235 0.0024326 0)
(1.00197 0.00277897 0)
(1.00155 0.00307446 0)
(1.00107 0.0033095 0)
(1.00055 0.00347423 0)
(0.999993 0.0035589 0)
(0.999415 0.00355439 0)
(0.99883 0.0034531 0)
(0.998257 0.00325036 0)
(0.997718 0.00294627 0)
(0.997236 0.00254748 0)
(0.996832 0.00206736 0)
(0.996519 0.0015231 0)
(0.996305 0.000932679 0)
(0.996197 0.000314295 0)
(0.996197 -0.000313478 0)
(0.996305 -0.000931869 0)
(0.996519 -0.0015223 0)
(0.996832 -0.00206658 0)
(0.997237 -0.00254672 0)
(0.997719 -0.00294554 0)
(0.998258 -0.00324967 0)
(0.998831 -0.00345245 0)
(0.999415 -0.00355378 0)
(0.999993 -0.00355834 0)
(1.00055 -0.00347372 0)
(1.00107 -0.00330904 0)
(1.00155 -0.00307406 0)
(1.00197 -0.00277862 0)
(1.00235 -0.0024323 0)
(1.00266 -0.00204425 0)
(1.00291 -0.00162306 0)
(1.00311 -0.00117677 0)
(1.00323 -0.00071296 0)
(1.0033 -0.000238795 0)
(1.0027 0.000198533 0)
(1.00265 0.000592395 0)
(1.00254 0.000976601 0)
(1.00237 0.00134456 0)
(1.00216 0.0016895 0)
(1.00189 0.00200438 0)
(1.00158 0.00228194 0)
(1.00122 0.00251475 0)
(1.00083 0.00269533 0)
(1.0004 0.00281636 0)
(0.99995 0.00287105 0)
(0.999487 0.00285359 0)
(0.999023 0.0027598 0)
(0.998574 0.00258795 0)
(0.998153 0.00233959 0)
(0.997778 0.00202016 0)
(0.997462 0.00163881 0)
(0.997216 0.00120745 0)
(0.997048 0.000739504 0)
(0.996962 0.00024929 0)
(0.996962 -0.000248407 0)
(0.997048 -0.000738627 0)
(0.997216 -0.00120658 0)
(0.997462 -0.00163797 0)
(0.997778 -0.00201934 0)
(0.998154 -0.0023388 0)
(0.998574 -0.0025872 0)
(0.999024 -0.00275909 0)
(0.999488 -0.00285292 0)
(0.999951 -0.00287043 0)
(1.0004 -0.00281579 0)
(1.00083 -0.00269481 0)
(1.00122 -0.00251429 0)
(1.00158 -0.00228154 0)
(1.00189 -0.00200404 0)
(1.00216 -0.00168922 0)
(1.00237 -0.00134435 0)
(1.00254 -0.000976447 0)
(1.00265 -0.000592304 0)
(1.0027 -0.000198503 0)
(1.00221 0.00016417 0)
(1.00216 0.000489611 0)
(1.00207 0.000806338 0)
(1.00193 0.00110848 0)
(1.00175 0.00139009 0)
(1.00153 0.00164518 0)
(1.00127 0.00186769 0)
(1.00097 0.00205165 0)
(1.00064 0.00219128 0)
(1.0003 0.00228119 0)
(0.999932 0.00231665 0)
(0.99956 0.00229396 0)
(0.999191 0.00221088 0)
(0.998836 0.00206704 0)
(0.998505 0.00186439 0)
(0.998211 0.00160736 0)
(0.997963 0.00130278 0)
(0.997769 0.000959438 0)
(0.997637 0.000587525 0)
(0.997569 0.000198125 0)
(0.997569 -0.000197163 0)
(0.997637 -0.00058657 0)
(0.997769 -0.000958496 0)
(0.997963 -0.00130185 0)
(0.998211 -0.00160646 0)
(0.998505 -0.00186352 0)
(0.998836 -0.00206622 0)
(0.999191 -0.0022101 0)
(0.999561 -0.00229323 0)
(0.999932 -0.00231596 0)
(1.0003 -0.00228056 0)
(1.00065 -0.00219071 0)
(1.00097 -0.00205114 0)
(1.00127 -0.00186724 0)
(1.00153 -0.0016448 0)
(1.00175 -0.00138978 0)
(1.00193 -0.00110824 0)
(1.00207 -0.000806164 0)
(1.00216 -0.000489508 0)
(1.00221 -0.000164136 0)
(1.0018 0.000135169 0)
(1.00176 0.000402948 0)
(1.00168 0.000663051 0)
(1.00157 0.000910359 0)
(1.00142 0.00113977 0)
(1.00123 0.00134621 0)
(1.00102 0.00152474 0)
(1.00077 0.00167056 0)
(1.00051 0.00177921 0)
(1.00022 0.00184672 0)
(0.999927 0.00186979 0)
(0.999628 0.00184605 0)
(0.999333 0.00177433 0)
(0.999051 0.00165493 0)
(0.99879 0.00148976 0)
(0.998557 0.00128249 0)
(0.998362 0.00103842 0)
(0.99821 0.000764283 0)
(0.998105 0.000467892 0)
(0.998052 0.000157849 0)
(0.998052 -0.000156797 0)
(0.998105 -0.000466847 0)
(0.99821 -0.000763252 0)
(0.998362 -0.00103742 0)
(0.998558 -0.00128151 0)
(0.99879 -0.00148881 0)
(0.999052 -0.00165402 0)
(0.999334 -0.00177347 0)
(0.999629 -0.00184524 0)
(0.999928 -0.00186903 0)
(1.00022 -0.00184603 0)
(1.00051 -0.00177858 0)
(1.00077 -0.00166999 0)
(1.00102 -0.00152424 0)
(1.00123 -0.00134579 0)
(1.00142 -0.00113942 0)
(1.00157 -0.000910087 0)
(1.00168 -0.000662856 0)
(1.00176 -0.000402831 0)
(1.0018 -0.00013513 0)
(1.00147 0.000110899 0)
(1.00143 0.000330482 0)
(1.00137 0.000543428 0)