/*--------------------------------*- C++ -*----------------------------------*\
  =========                 |
  \\      /  F ield         | OpenFOAM: The Open Source CFD Toolbox
   \\    /   O peration     | Website:  https://openfoam.org
    \\  /    A nd           | Version:  6
     \\/     M anipulation  |
\*---------------------------------------------------------------------------*/
FoamFile
{
    version     2.0;
    format      ascii;
    class       volScalarField;
    location    "450";
    object      alphat;
}
// * * * * * * * * * * * * * * * * * * * * * * * * * * * * * * * * * * * * * //

dimensions      [1 -1 -1 0 0 0 0];

internalField   nonuniform List<scalar> 
16000
(
5.5169367e-06
2.4392676e-05
2.7300857e-05
3.8183177e-05
3.258964e-05
4.171094e-05
4.0508498e-05
4.5741258e-05
4.6634376e-05
4.6909721e-05
4.7400044e-05
4.5999081e-05
4.6083377e-05
4.4909492e-05
4.4915665e-05
4.4404617e-05
4.4620189e-05
4.4700477e-05
4.5203559e-05
4.5755717e-05
4.6593416e-05
4.7572434e-05
4.8792641e-05
5.0211166e-05
5.1879899e-05
5.3802938e-05
5.6022365e-05
5.8569195e-05
6.149409e-05
6.4852441e-05
6.8716706e-05
7.3173999e-05
7.8332281e-05
8.432311e-05
9.1306967e-05
9.9481714e-05
0.00010909093
0.00012043577
0.00013388749
0.00014990068
0.00016903449
0.00019198072
0.00021959163
0.00025291541
0.00029324082
0.00034215027
0.00040157786
0.00047387815
0.00056190105
0.00066906921
0.00079945357
0.00095785285
0.0011499293
0.0012222324
0.0012234566
0.0012236348
0.0012230784
0.0012221205
0.0012209524
0.0012195381
0.001217802
0.0012156874
0.0012131689
0.0012101779
0.0012066956
0.0012028537
0.0011989066
0.0011952194
0.0011918642
0.001188983
0.0011862628
0.00118422
0.0011818384
0.0011807338
0.0011783468
0.0011795703
0.0011763263
0.0011829787
0.0011734729
0.0011820884
4.6157872e-06
2.413806e-05
2.5000852e-05
3.4910324e-05
3.0066332e-05
3.7642011e-05
3.7291793e-05
4.0983113e-05
4.2626968e-05
4.1953271e-05
4.2894209e-05
4.109452e-05
4.1366849e-05
4.0066515e-05
4.0165345e-05
3.9642678e-05
3.9865466e-05
3.9917046e-05
4.0375458e-05
4.0864013e-05
4.1614945e-05
4.2489363e-05
4.3580304e-05
4.484792e-05
4.6338457e-05
4.8055651e-05
5.0036418e-05
5.2308542e-05
5.4916577e-05
5.7909639e-05
6.1351279e-05
6.5317931e-05
6.9904782e-05
7.5227812e-05
8.1429786e-05
8.8685461e-05
9.7208416e-05
0.00010726115
0.00011916819
0.00013333005
0.00015023581
0.00017048814
0.00019482955
0.00022417226
0.00025963509
0.0003025906
0.0003547161
0.00041805397
0.00049508116
0.00058878364
0.00070273641
0.00084118593
0.0010091691
0.0012126595
0.0012225202
0.0012228328
0.0012223187
0.0012213519
0.0012201836
0.0012188659
0.0012173343
0.0012153969
0.0012130441
0.0012101967
0.0012068162
0.0012030044
0.0011990331
0.0011952791
0.0011918997
0.0011889446
0.0011862546
0.0011840762
0.0011818661
0.0011806074
0.0011784159
0.00117897
0.0011762375
0.0011820101
0.0011735296
0.0011818201
3.9543651e-06
2.3888935e-05
2.3152055e-05
3.2113027e-05
2.805298e-05
3.4161102e-05
3.4848406e-05
3.6750581e-05
3.9205655e-05
3.7382063e-05
3.8749479e-05
3.652365e-05
3.6967423e-05
3.5632207e-05
3.5809766e-05
3.5295753e-05
3.5526461e-05
3.5567672e-05
3.599205e-05
3.6436526e-05
3.7119015e-05
3.7912456e-05
3.8899866e-05
4.0046852e-05
4.1393451e-05
4.2944301e-05
4.4731668e-05
4.6781115e-05
4.9132198e-05
5.1829115e-05
5.4928593e-05
5.8499221e-05
6.2625876e-05
6.7411717e-05
7.2984201e-05
7.9499706e-05
8.7150263e-05
9.6170198e-05
0.00010684625
0.00011953322
0.00013466721
0.00015278278
0.00017453554
0.00020073111
0.00023235577
0.00027061671
0.00031698796
0.0003732629
0.00044161673
0.00052467568
0.0006255937
0.0007481355
0.00089677858
0.0010768646
0.0012216113
0.001222073
0.0012216068
0.0012206228
0.0012194248
0.001218093
0.0012165998
0.0012148797
0.0012127279
0.00121006
0.0012068151
0.0012030667
0.0011990871
0.0011952861
0.0011918781
0.0011888789
0.0011861982
0.0011839495
0.0011818273
0.0011804654
0.0011784533
0.0011785659
0.0011762025
0.0011811357
0.0011735188
0.0011810198
3.51738e-06
2.3566839e-05
2.1575348e-05
2.9496119e-05
2.6168914e-05
3.0980129e-05
3.2493935e-05
3.2951489e-05
3.5895725e-05
3.3285027e-05
3.4848477e-05
3.2438259e-05
3.2969945e-05
3.1689099e-05
3.1891232e-05
3.1421339e-05
3.1643448e-05
3.169093e-05
3.2081988e-05
3.2495023e-05
3.3118616e-05
3.3845623e-05
3.474526e-05
3.5790711e-05
3.7015393e-05
3.8425498e-05
4.0049107e-05
4.1910202e-05
4.4044225e-05
4.6491433e-05
4.9302965e-05
5.2540917e-05
5.6281988e-05
6.0619721e-05
6.5669005e-05
7.1570688e-05
7.8498079e-05
8.666441e-05
9.6329836e-05
0.00010781186
0.00012150213
0.00013788384
0.0001575465
0.00018121242
0.00020976658
0.00024429065
0.00028610396
0.00033681158
0.0003983606
0.00047310454
0.00056387692
0.00067407309
0.00080774515
0.0009697341
0.0011658381
0.0012213456
0.0012209364
0.001219932
0.0012186947
0.0012173309
0.0012158213
0.0012141289
0.0012121743
0.001209727
0.0012066592
0.0012030125
0.0011990497
0.0011952198
0.0011917928
0.0011887695
0.0011860925
0.0011838044
0.0011817433
0.0011802544
0.001178464
0.0011782993
0.001176183
0.0011802336
0.0011735365
0.0011805383
3.1552451e-06
2.3131843e-05
2.0283138e-05
2.7075075e-05
2.444397e-05
2.8076893e-05
3.0291167e-05
2.9504338e-05
3.2718805e-05
2.9551194e-05
3.1160713e-05
2.8774158e-05
2.9311999e-05
2.8137501e-05
2.8334455e-05
2.7927809e-05
2.8134884e-05
2.8198156e-05
2.8559711e-05
2.8950265e-05
2.9524241e-05
3.0196366e-05
3.10218e-05
3.1981383e-05
3.31024e-05
3.4392652e-05
3.5876669e-05
3.757713e-05
3.9526092e-05
4.1760556e-05
4.432703e-05
4.7282237e-05
5.0696169e-05
5.4654136e-05
5.9260949e-05
6.4645345e-05
7.0965014e-05
7.8413756e-05
8.723059e-05
9.7706536e-05
0.00011019554
0.00012513709
0.00014306991
0.0001646502
0.00019068138
0.00022214678
0.00026024381
0.00030642967
0.00036247305
0.0004305136
0.00051313296
0.00061343383
0.00073513358
0.00088268028
0.0010614176
0.0012206338
0.0012202962
0.0012192715
0.0012179888
0.0012165856
0.0012150459
0.0012133411
0.0012114219
0.0012091836
0.0012063391
0.001202837
0.0011989196
0.0011950786
0.0011916438
0.0011886126
0.0011859427
0.0011836388
0.0011816202
0.0011800534
0.001178435
0.0011780326
0.0011761735
0.0011794187
0.0011735817
0.0011798663
2.8522385e-06
2.1285184e-05
1.9186385e-05
2.4798516e-05
2.2864422e-05
2.5391011e-05
2.8203085e-05
2.6351261e-05
2.9660235e-05
2.6196769e-05
2.772766e-05
2.5501587e-05
2.5991189e-05
2.4956142e-05
2.5130264e-05
2.4796933e-05
2.4987006e-05
2.5071355e-05
2.540822e-05
2.5782978e-05
2.6316162e-05
2.6943455e-05
2.7707184e-05
2.8595102e-05
2.9629328e-05
3.0819025e-05
3.218585e-05
3.3751395e-05
3.5544997e-05
3.7600983e-05
3.9962085e-05
4.2680614e-05
4.5821085e-05
4.9462146e-05
5.3700404e-05
5.865447e-05
6.4470029e-05
7.132549e-05
7.9440486e-05
8.9085628e-05
0.00010058695
0.0001143478
0.00013086439
0.00015074246
0.0001747195
0.00020370051
0.00023878658
0.00028131694
0.00033291875
0.0003955609
0.00047162286
0.00056397079
0.00067604854
0.00081198637
0.00097675236
0.0011763199
0.0012196743
0.0012186326
0.0012172998
0.001215852
0.0012142755
0.0012125457
0.001210624
0.001208441
0.0012058408
0.0012025327
0.0011986942
0.0011948608
0.0011914318
0.0011884072
0.0011857504
0.0011834487
0.0011814638
0.0011798541
0.0011783679
0.0011777638
0.0011761698
0.0011787527
0.0011736397
0.0011794068
2.5828465e-06
1.8923149e-05
1.8050174e-05
2.2642714e-05
2.1435513e-05
2.290599e-05
2.6223563e-05
2.3465482e-05
2.6730183e-05
2.3223861e-05
2.458951e-05
2.2586451e-05
2.2995178e-05
2.2112073e-05
2.2254145e-05
2.1994491e-05
2.2167604e-05
2.2273504e-05
2.2589714e-05
2.2952348e-05
2.3451618e-05
2.4041411e-05
2.4753348e-05
2.5580815e-05
2.654186e-05
2.7646602e-05
2.8914457e-05
3.0366054e-05
3.2028508e-05
3.3933959e-05
3.6122019e-05
3.8641311e-05
4.1551896e-05
4.4926906e-05
4.8856186e-05
5.3450177e-05
5.8844486e-05
6.5205327e-05
7.2736837e-05
8.1691705e-05
9.2374168e-05
0.00010515917
0.00012050765
0.00013898472
0.00016127562
0.0001882216
0.00022084724
0.00026039712
0.00030838504
0.00036664321
0.00043738828
0.00052329516
0.00062758492
0.00075413066
0.00090759429
0.0010935989
0.001219057
0.0012180053
0.0012166193
0.0012151235
0.0012135062
0.0012117453
0.0012098084
0.001207643
0.0012051492
0.0012020923
0.0011983718
0.0011945651
0.0011911564
0.0011881525
0.0011855178
0.0011832324
0.0011812773
0.001179654
0.0011782668
0.0011774921
0.0011761634
0.0011781513
0.0011737034
0.0011789535
2.3348028e-06
1.8385197e-05
1.6789766e-05
2.0606706e-05
2.0132362e-05
2.0603638e-05
2.4299605e-05
2.0895319e-05
2.3906881e-05
2.0582752e-05
2.1730195e-05
1.9985771e-05
2.0299356e-05
1.9568411e-05
1.9677317e-05
1.9487327e-05
1.9646361e-05
1.9772908e-05
2.0073121e-05
2.0426619e-05
2.089853e-05
2.1457414e-05
2.2126585e-05
2.2903723e-05
2.3803763e-05
2.4837535e-05
2.6022676e-05
2.7378958e-05
2.8931736e-05
3.0711317e-05
3.2754833e-05
3.5107789e-05
3.7826654e-05
4.0980053e-05
4.4652283e-05
4.8947141e-05
5.3992077e-05
5.9943302e-05
6.6992655e-05
7.5378218e-05
8.538588e-05
9.7368383e-05
0.0001117591
0.00012908862
0.00015000116
0.0001752863
0.00020590712
0.00024303198
0.0002880833
0.00034278274
0.00040921491
0.00048989872
0.00058787253
0.00070679743
0.00085108461
0.0010260639
0.0012184287
0.0012173797
0.0012159387
0.0012143927
0.0012127323
0.0012109371
0.0012089787
0.0012068138
0.0012043703
0.0012015087
0.0011979525
0.0011941926
0.0011908193
0.0011878495
0.0011852471
0.0011829904
0.0011810654
0.0011794507
0.0011781379
0.0011772365
0.00117615
0.0011775895
0.00117377
0.0011785803
2.1226709e-06
1.7794315e-05
1.5658344e-05
1.8687373e-05
1.8919921e-05
1.8446457e-05
2.2368233e-05
1.8592408e-05
2.1222527e-05
1.8216818e-05
1.9126315e-05
1.7653224e-05
1.7873377e-05
1.7286826e-05
1.7367744e-05
1.7241393e-05
1.7391277e-05
1.7537133e-05
1.7826321e-05
1.8173404e-05
1.8623985e-05
1.9157905e-05
1.9792298e-05
2.0528043e-05
2.1377788e-05
2.2352739e-05
2.346927e-05
2.4746342e-05
2.6207928e-05
2.7882838e-05
2.9806177e-05
3.2020899e-05
3.4580526e-05
3.755003e-05
4.1009227e-05
4.5056441e-05
4.9812585e-05
5.5425929e-05
6.207773e-05
6.9995109e-05
7.9448988e-05
9.0774112e-05
0.00010438103
0.00012077377
0.00014056265
0.00016449597
0.0001934872
0.00022864315
0.00027131265
0.00032312811
0.00038606708
0.0004625215
0.00055538046
0.00066813088
0.0008049803
0.00097101754
0.0011723869
0.0012167455
0.0012152492
0.0012136523
0.0012119478
0.001210117
0.001208134
0.001205962
0.0012035427
0.001200773
0.0011974377
0.0011937455
0.0011904226
0.0011875002
0.0011849414
0.001182724
0.0011808328
0.0011792441
0.0011779872
0.0011770111
0.0011761279
0.0011770721
0.0011738504
0.0011782172
1.9380709e-06
1.7141803e-05
1.4590849e-05
1.6846878e-05
1.7781019e-05
1.6493869e-05
2.0403724e-05
1.6516363e-05
1.8712894e-05
1.6089216e-05
1.6767486e-05
1.5557674e-05
1.5696108e-05
1.5239974e-05
1.5301039e-05
1.5230914e-05
1.5376995e-05
1.5540589e-05
1.5823338e-05
1.6166434e-05
1.6601126e-05
1.7115434e-05
1.7722203e-05
1.8424513e-05
1.9233471e-05
2.0160416e-05
2.1220794e-05
2.2432863e-05
2.3819498e-05
2.5408318e-05
2.7232802e-05
2.933379e-05
3.1762454e-05
3.4580835e-05
3.7865135e-05
4.1709232e-05
4.6228897e-05
5.1566151e-05
5.7893042e-05
6.5429292e-05
7.4433171e-05
8.522468e-05
9.8195912e-05
0.00011383123
0.00013271246
0.00015555492
0.00018323254
0.00021680238
0.00025755438
0.00030704894
0.00036717712
0.00044022794
0.00052896894
0.00063674452
0.00076759619
0.00092641565
0.0011191204
0.0012160925
0.0012145421
0.001212895
0.0012111469
0.0012092805
0.0012072723
0.00120509
0.0012026858
0.0011999821
0.0011968301
0.0011932276
0.0011899698
0.0011871079
0.001184604
0.0011824358
0.0011805844
0.0011790347
0.0011778202
0.001176814
0.0011760972
0.0011766098
0.0011739506
0.0011778743
1.7778096e-06
1.6389695e-05
1.359927e-05
1.507634e-05
1.6690956e-05
1.4724573e-05
1.8393487e-05
1.4640625e-05
1.6391611e-05
1.4173432e-05
1.464361e-05
1.3674763e-05
1.374816e-05
1.3405285e-05
1.345543e-05
1.3433832e-05
1.3581076e-05
1.3760893e-05
1.3983252e-05
1.4315199e-05
1.4731663e-05
1.5225357e-05
1.5805561e-05
1.6476316e-05
1.7247297e-05
1.8129594e-05
1.9137705e-05
2.0289067e-05
2.1605435e-05
2.3113286e-05
2.4844627e-05
2.6838229e-05
2.9143163e-05
3.1818797e-05
3.4938098e-05
3.8590972e-05
4.2888591e-05
4.7967966e-05
5.4351897e-05
6.1581697e-05
7.0224512e-05
8.0588622e-05
9.305121e-05
0.00010808213
0.00012623985
0.00014821318
0.00017484542
0.00020715321
0.00024638019
0.00029402909
0.00035192177
0.00042226466
0.00050772744
0.00061153949
0.00073760778
0.00089066456
0.0010764418
0.0012154112
0.0012138094
0.0012121139
0.001210324
0.0012084234
0.0012063909
0.0012041976
0.0012018032
0.0011991478
0.0011961335
0.0011926443
0.0011894657
0.0011866765
0.0011842388
0.0011821288
0.0011803252
0.0011788236
0.0011776432
0.0011766427
0.0011760579
0.0011762153
0.0011740705
0.0011775406
1.6383766e-06
1.5520262e-05
1.2671057e-05
1.3368593e-05
1.5608169e-05
1.3116228e-05
1.6363081e-05
1.2939026e-05
1.4265183e-05
1.2444764e-05
1.2740423e-05
1.1982807e-05
1.2010081e-05
1.1763092e-05
1.1755836e-05
1.1755332e-05
1.1896387e-05
1.2084886e-05
1.2360957e-05
1.2700237e-05
1.3114886e-05
1.3601886e-05
1.4169057e-05
1.4821655e-05
1.5568792e-05
1.6421648e-05
1.7394267e-05
1.8503647e-05
1.977085e-05
2.1221641e-05
2.2887167e-05
2.4804614e-05
2.7021678e-05
2.9595921e-05
3.2598045e-05
3.6115095e-05
4.0254886e-05
4.5151985e-05
5.0967429e-05
5.7901027e-05
6.6197294e-05
7.6154666e-05
8.8821563e-05
0.00010338024
0.00012097338
0.00014226827
0.00016808574
0.00019940933
0.00023744721
0.00028365678
0.00033980525
0.00040803386
0.00049093493
0.0005916466
0.00071396914
0.00086250818
0.0010428481
0.0012146926
0.0012130439
0.0012113031
0.0012094741
0.001207542
0.0012054873
0.0012032841
0.0012008974
0.0011982776
0.0011953517
0.0011920025
0.0011889158
0.0011862112
0.00118385
0.0011818068
0.0011800598
0.0011786125
0.0011774625
0.0011764941
0.0011760095
0.0011758942
0.0011742048
0.0011772701
1.5176862e-06
1.4524588e-05
1.1807409e-05
1.18205e-05
1.4496681e-05
1.1648237e-05
1.4389237e-05
1.139115e-05
1.2338203e-05
1.0884231e-05
1.1043673e-05
1.0464755e-05
1.0383604e-05
1.0190835e-05
1.0230313e-05
1.0282274e-05
1.0444307e-05
1.0656013e-05
1.0942161e-05
1.1288321e-05
1.1702877e-05
1.2185594e-05
1.2743499e-05
1.338267e-05
1.411181e-05
1.494215e-05
1.5887405e-05
1.6964187e-05
1.8192999e-05
1.9599056e-05
2.1213024e-05
2.3070646e-05
2.521868e-05
2.7713353e-05
3.0623725e-05
3.4034644e-05
3.8050861e-05
4.2805322e-05
4.8455e-05
5.5195464e-05
6.3266005e-05
7.2959178e-05
8.4635683e-05
9.8730016e-05
0.00011577486
0.0001375496
0.00016275226
0.00019333172
0.00023047048
0.00027559117
0.00033041898
0.00039704503
0.00047800203
0.00057635791
0.0006958308
0.00084092924
0.0010171253
0.0012139287
0.0012122396
0.0012104575
0.0012085934
0.0012066334
0.0012045598
0.0012023494
0.0011999713
0.0011973834
0.001194526
0.0011913102
0.001188327
0.0011857174
0.0011834423
0.0011814738
0.0011797919
0.0011784031
0.0011772837
0.0011763646
0.0011759497
0.0011756383
0.0011743474
0.0011770502
1.4134628e-06
1.3401406e-05
1.1000601e-05
1.0416772e-05
1.3316219e-05
1.0307093e-05
1.2505942e-05
9.9834861e-06
1.0611494e-05
9.4777683e-06
9.4482622e-06
8.9727581e-06
8.9393612e-06
8.8363021e-06
8.9030701e-06
8.9972931e-06
9.1788756e-06
9.4102737e-06
9.7064985e-06
1.0059608e-05
1.0475848e-05
1.0956716e-05
1.1508859e-05
1.2138975e-05
1.2855422e-05
1.3669471e-05
1.4594608e-05
1.5647134e-05
1.6847066e-05
1.8219176e-05
1.9718745e-05
2.1516267e-05
2.3594872e-05
2.6009464e-05
2.8827587e-05
3.2132148e-05
3.6230713e-05
4.087834e-05
4.6404474e-05
5.3001813e-05
6.090595e-05
7.040357e-05
8.1851982e-05
9.5677064e-05
0.00011240347
0.00013267256
0.00015725756
0.00018871898
0.00022521043
0.00026954648
0.00032342125
0.00038888894
0.00046843828
0.00056508547
0.00068248812
0.0008250847
0.00099826692
0.0012085749
0.0012113917
0.0012095734
0.001207679
0.0012056956
0.0012036071
0.0012013931
0.0011990264
0.001196471
0.0011936774
0.0011905769
0.0011877068
0.0011852012
0.0011830203
0.0011811339
0.0011795247
0.001178197
0.0011771113
0.0011762514
0.0011758771
0.0011754146
0.0011744916
0.0011768798
1.3243927e-06
1.2161087e-05
1.0241998e-05
9.1427158e-06
1.202778e-05
9.0794887e-06
1.07445e-05
8.7029518e-06
9.0787698e-06
8.0709032e-06
8.0200808e-06
7.7003767e-06
7.6919067e-06
7.6594514e-06
7.7523947e-06
7.8811946e-06
8.0812192e-06
8.3298995e-06
8.6363997e-06
8.9969009e-06
9.4165953e-06
9.8980032e-06
1.044761e-05
1.1046781e-05
1.1748621e-05
1.2544856e-05
1.3448512e-05
1.4475356e-05
1.5644715e-05
1.698049e-05
1.8511833e-05
2.0274563e-05
2.2312755e-05
2.4680726e-05
2.7445423e-05
3.0689414e-05
3.4514526e-05
3.9046224e-05
4.4438867e-05
5.0882718e-05
5.8610347e-05
6.8417107e-05
7.9711537e-05
9.3355719e-05
0.00010986686
0.00012988171
0.00015416345
0.00018364703
0.00022145837
0.00026527431
0.00031851572
0.00038321151
0.00046182031
0.0005573228
0.00067333527
0.00081425029
0.00098540775
0.0011932917
0.0012104975
0.0012086488
0.0012067295
0.0012047277
0.0012026291
0.0012004157
0.0011980639
0.0011955428
0.0011928108
0.0011898124
0.0011870632
0.0011846688
0.0011825884
0.0011807905
0.0011792605
0.0011779955
0.001176949
0.0011761521
0.001175794
0.0011752346
0.0011746283
0.0011767361
1.2500017e-06
1.0817118e-05
9.5229665e-06
7.9855209e-06
1.0678485e-05
7.9547254e-06
9.1323872e-06
7.4787003e-06
7.5352431e-06
6.8472639e-06
6.7996162e-06
6.6000189e-06
6.6184216e-06
6.6419206e-06
6.7598324e-06
6.9175107e-06
7.1350574e-06
7.3994294e-06
7.7165451e-06
8.0850992e-06
8.4907443e-06
8.9696432e-06
9.5145297e-06
1.0132129e-05
1.083106e-05
1.1621826e-05
1.2517432e-05
1.353354e-05
1.4689199e-05
1.6008139e-05
1.7519267e-05
1.9258129e-05
2.1268519e-05
2.3604446e-05
2.633253e-05
2.9534967e-05
3.3313109e-05
3.7791689e-05
4.3124241e-05
4.9500625e-05
5.7153945e-05
6.6364533e-05
7.747745e-05
9.0912665e-05
0.00010806772
0.00012793853
0.00015204662
0.00018132494
0.00021689329
0.00026255186
0.00031543664
0.0003796954
0.0004577691
0.00055261727
0.00066783164
0.00080777939
0.00097777354
0.0011842712
0.0012095559
0.0012076832
0.0012057449
0.0012037304
0.0012016268
0.0011994184
0.0011970853
0.0011946013
0.0011919311
0.0011890275
0.0011864045
0.001184126
0.0011821507
0.0011804467
0.0011790002
0.0011777992
0.0011767992
0.0011760646
0.0011757001
0.0011750883
0.0011747431
0.0011765981
1.1911795e-06
9.3838918e-06
8.8246452e-06
6.9332432e-06
9.2855663e-06
6.9208819e-06
7.7286935e-06
6.2693718e-06
6.2653296e-06
5.794231e-06
5.7601407e-06
5.6530573e-06
5.699232e-06
5.767718e-06
5.9093392e-06
6.0917627e-06
6.3261013e-06
6.605163e-06
6.9156219e-06
7.2886796e-06
7.7159385e-06
8.2013019e-06
8.7504537e-06
9.3703672e-06
1.0069737e-05
1.0859044e-05
1.1751299e-05
1.2762167e-05
1.3910391e-05
1.5219674e-05
1.6718809e-05
1.8443249e-05
2.0436738e-05
2.2753267e-05
2.5459485e-05
2.8637675e-05
3.2389246e-05
3.683876e-05
4.2139521e-05
4.8481106e-05
5.6097578e-05
6.5267929e-05
7.6338903e-05
8.9730811e-05
0.00010595255
0.00012562348
0.00015078089
0.00017998714
0.00021547155
0.00025858717
0.00031393357
0.00037804152
0.00045592728
0.00055054246
0.00066546828
0.00080506497
0.00097464041
0.0011806518
0.0012085679
0.0012066779
0.0012047272
0.0012027059
0.0012006025
0.0011984037
0.0011960928
0.0011936486
0.0011910422
0.0011882323
0.0011857386
0.0011835786
0.0011817108
0.0011801041
0.0011787434
0.0011776075
0.0011766618
0.001175987
0.0011755995
0.0011749653
0.0011748376
0.0011764606
1.1517652e-06
7.8796344e-06
8.115516e-06
5.9811402e-06
7.905504e-06
6.0450289e-06
6.5880116e-06
5.2354126e-06
5.198061e-06
4.8915482e-06
4.8788986e-06
4.8435477e-06
4.9175695e-06
5.0230386e-06
5.1871148e-06
5.3913012e-06
5.6265386e-06
5.9158118e-06
6.2520695e-06
6.6366791e-06
7.073282e-06
7.5662985e-06
8.1215844e-06
8.7462613e-06
9.449105e-06
1.0240495e-05
1.113347e-05
1.2117765e-05
1.3256375e-05
1.4552993e-05
1.6036096e-05
1.7740843e-05
1.9710722e-05
2.1999499e-05
2.4673683e-05
2.7815482e-05
3.152621e-05
3.5930244e-05
4.1180571e-05
4.7778004e-05
5.5390659e-05
6.4559352e-05
7.5634972e-05
8.9037764e-05
0.00010527638
0.00012497191
0.00014887853
0.00017948611
0.00021501996
0.00025819812
0.00031065713
0.00037795128
0.00045593752
0.00055067213
0.00066573643
0.00080549982
0.00097528429
0.0011815706
0.0012075367
0.0012056364
0.0012036798
0.0012016579
0.0011995603
0.0011973754
0.0011950898
0.001192687
0.0011901459
0.001187437
0.0011850734
0.0011830315
0.0011812714
0.0011797631
0.0011784883
0.0011774184
0.0011765331
0.001175913
0.0011754976
0.0011748757
0.0011749172
0.0011763075
1.135782e-06
6.777489e-06
7.3854293e-06
5.6643474e-06
7.4015195e-06
5.069952e-06
5.0109876e-06
4.3483177e-06
4.3080873e-06
4.123557e-06
4.1373147e-06
4.1586513e-06
4.2597816e-06
4.3962838e-06
4.5698369e-06
4.78906e-06
5.0521062e-06
5.357252e-06
5.7066616e-06
6.1026894e-06
6.5492561e-06
7.051125e-06
7.6142761e-06
8.2458863e-06
8.9417109e-06
9.7339619e-06
1.0625834e-05
1.163265e-05
1.2773204e-05
1.4070632e-05
1.5553508e-05
1.7257172e-05
1.9225395e-05
2.1512355e-05
2.4185158e-05
2.7326783e-05
3.1039421e-05
3.5448716e-05
4.070977e-05
4.7012699e-05
5.4587041e-05
6.4178553e-05
7.5296402e-05
8.8755012e-05
0.00010506387
0.00012484681
0.00014886101
0.00017802599
0.00021535661
0.00025872659
0.00031141319
0.0003754213
0.00045742559
0.00055255948
0.00066810217
0.00080844564
0.00097894258
0.0011861164
0.0012064674
0.0012045639
0.0012026083
0.0012005922
0.0011985061
0.0011963398
0.0011940819
0.0011917194
0.0011892377
0.0011866505
0.0011844155
0.0011824894
0.0011808345
0.0011794227
0.0011782317
0.0011772284
0.0011764062
0.0011758322
0.0011753945
0.0011748157
0.0011749619
0.0011761257
1.1428766e-06
6.9998894e-06
6.6138028e-06
6.324362e-06
6.5301908e-06
3.9836056e-06
4.0643421e-06
3.5975972e-06
3.5702363e-06
3.4800971e-06
3.5215205e-06
3.588075e-06
3.7146652e-06
3.8654911e-06
4.0662466e-06
4.3058235e-06
4.5852775e-06
4.9047519e-06
5.2667502e-06
5.6742709e-06
6.1314618e-06
6.6432991e-06
7.2080696e-06
7.8456901e-06
8.5593544e-06
9.3593482e-06
1.0258186e-05
1.1271178e-05
1.2417142e-05
1.3719304e-05
1.5206423e-05
1.6914141e-05
1.8886639e-05
2.1178684e-05
2.3858173e-05
2.7009013e-05
3.0734391e-05
3.5161468e-05
4.044742e-05
4.6783731e-05
5.4401465e-05
6.3585482e-05
7.5249007e-05
8.8796693e-05
0.0001052153
0.00012513222
0.00014930854
0.0001786683
0.00021628329
0.00025993807
0.00031296354
0.00037737514
0.00045998165
0.00055571409
0.00067197889
0.00081320027
0.00098477424
0.0011932814
0.0012053668
0.0012034672
0.0012015194
0.0011995156
0.0011974472
0.0011953049
0.0011930784
0.0011907562
0.0011883257
0.0011858797
0.0011837702
0.0011819558
0.0011804016
0.0011790812
0.0011779694
0.0011770323
0.0011762718
0.0011757358
0.0011752916
0.0011747683
0.0011749499
0.0011759009
1.014819e-06
7.3097536e-06
5.7815844e-06
4.5084307e-06
4.2431711e-06
3.3049442e-06
3.2492851e-06
2.9882271e-06
2.968922e-06
2.9495391e-06
3.0185014e-06
3.1205352e-06
3.260084e-06
3.4415231e-06
3.6622437e-06
3.9190326e-06
4.2131868e-06
4.5460197e-06
4.9203554e-06
5.3395921e-06
5.808025e-06
6.3252796e-06
6.9062664e-06
7.554327e-06
8.2779352e-06
9.0873349e-06
9.9950044e-06
1.1016255e-05
1.216997e-05
1.3479524e-05
1.4973928e-05
1.6689205e-05
1.867006e-05
2.0971982e-05
2.3663781e-05
2.6830305e-05
3.0575933e-05
3.5029862e-05
4.0351443e-05
4.6732479e-05
5.4405248e-05
6.413131e-05
7.5411927e-05
8.9068622e-05
0.00010562031
0.00012569875
0.00015006999
0.00017966389
0.00021757585
0.00026156645
0.00031499302
0.00037988441
0.00046313945
0.00055957796
0.00067669801
0.00081896241
0.0009918181
0.0012019118
0.0012042431
0.0012023541
0.0012004207
0.0011984357
0.0011963913
0.0011942791
0.00119209
0.0011898139
0.0011874396
0.0011851299
0.001183141
0.0011814333
0.0011799741
0.0011787382
0.0011776985
0.0011768241
0.0011761227
0.0011756212
0.0011751736
0.0011746786
0.0011748712
0.0011756175
7.8708229e-07
6.5836744e-06
4.5963526e-06
3.2058201e-06
3.2946966e-06
2.6775747e-06
2.6197093e-06
2.4734045e-06
2.483371e-06
2.5149259e-06
2.6119345e-06
2.7358244e-06
2.9035986e-06
3.1063381e-06
3.3441352e-06
3.6160377e-06
3.9237504e-06
4.2693294e-06
4.6558399e-06
5.0869093e-06
5.5637519e-06
6.096431e-06
6.6887967e-06
7.3478884e-06
8.0821249e-06
8.9017014e-06
9.8190741e-06
1.0849575e-05
1.2012181e-05
1.3330461e-05
1.4833727e-05
1.6558427e-05
1.8549861e-05
2.0864323e-05
2.3571491e-05
2.6757089e-05
3.0526925e-05
3.5012539e-05
4.0375226e-05
4.6806108e-05
5.4916582e-05
6.4323677e-05
7.5697727e-05
8.9467751e-05
0.00010615727
0.00012640227
0.00015097435
0.00018080911
0.00021898288
0.00026331168
0.000317143
0.00038251992
0.0004663711
0.00056351819
0.00068149993
0.00082481956
0.00099897707
0.0012049428
0.0012031056
0.0012012335
0.0011993206
0.0011973603
0.0011953457
0.0011932693
0.001191123
0.001188898
0.0011865847
0.0011844038
0.001182529
0.0011809223
0.0011795523
0.001178394
0.0011774192
0.0011766018
0.0011759527
0.0011754766
0.001175028
0.001174574
0.0011747518
0.001175268
6.132303e-07
3.5197211e-06
3.6488295e-06
2.611224e-06
2.5414739e-06
2.1665122e-06
2.1231635e-06
2.0592504e-06
2.0986496e-06
2.1702606e-06
2.2921815e-06
2.44074e-06
2.6288343e-06
2.8489328e-06
3.1014319e-06
3.3868112e-06
3.7071223e-06
4.0648524e-06
4.4631949e-06
4.9058631e-06
5.3972157e-06
5.9394498e-06
6.5430412e-06
7.2130252e-06
7.9577659e-06
8.7874186e-06
9.7144332e-06
1.0754185e-05
1.1925765e-05
1.325295e-05
1.476536e-05
1.6499885e-05
1.8502451e-05
2.0830127e-05
2.355332e-05
2.6758608e-05
3.055328e-05
3.5261495e-05
4.0704223e-05
4.7230605e-05
5.5082141e-05
6.4558003e-05
7.6015809e-05
8.9886989e-05
0.00010669872
0.00012709039
0.00015183926
0.00018348197
0.00022022881
0.00026484266
0.00031901519
0.00038480237
0.0004690819
0.00056681857
0.00068552119
0.00082972937
0.0010049908
0.0012037819
0.0012019645
0.0012001152
0.0011982283
0.0011962981
0.0011943184
0.0011922826
0.0011901835
0.0011880137
0.0011857648
0.0011837023
0.0011819328
0.0011804195
0.0011791324
0.0011780457
0.0011771308
0.0011763669
0.0011757633
0.0011753066
0.0011748695
0.0011744755
0.0011746204
0.0011749553
4.9640486e-07
2.5804871e-06
2.7995021e-06
2.0615534e-06
1.9785561e-06
1.7604542e-06
1.7386157e-06
1.733496e-06
1.8010511e-06
1.9042592e-06
2.0480333e-06
2.2188961e-06
2.4236907e-06
2.6584133e-06
2.9239187e-06
3.2215153e-06
3.5534773e-06
3.9225045e-06
4.3318377e-06
4.7852055e-06
5.2869241e-06
5.8420021e-06
6.4563249e-06
7.1368898e-06
7.8921204e-06
8.7322723e-06
9.6699496e-06
1.0720754e-05
1.1904092e-05
1.3244145e-05
1.4771052e-05
1.652237e-05
1.8544891e-05
2.0896605e-05
2.3648883e-05
2.6889897e-05
3.0729362e-05
3.5301637e-05
4.0766952e-05
4.7320683e-05
5.5208741e-05
6.4731178e-05
7.6245805e-05
9.0185208e-05
0.0001070776
0.00012864046
0.00015368283
0.00018407074
0.00022095467
0.00026573093
0.00032009678
0.00038976226
0.00047051545
0.00056857457
0.00068767914
0.00083239405
0.0010083012
0.0012026222
0.0012008302
0.0011990087
0.0011971529
0.0011952574
0.0011933168
0.0011913254
0.001189277
0.001187165
0.0011849827
0.0011830252
0.001181349
0.0011799191
0.001178706
0.0011776832
0.0011768231
0.0011761088
0.0011755448
0.0011751042
0.0011746865
0.0011743507
0.0011744529
0.0011746362
3.8549926e-07
2.0131395e-06
2.1001061e-06
1.6367456e-06
1.5507726e-06
1.4372836e-06
1.439729e-06
1.4781658e-06
1.5711174e-06
1.6991865e-06
1.8609908e-06
2.0500275e-06
2.2679256e-06
2.5143103e-06
2.79041e-06
3.0979851e-06
3.4394228e-06
3.8175163e-06
4.2355134e-06
4.6971411e-06
5.2066898e-06
5.769124e-06
6.390266e-06
7.0770472e-06
7.8378244e-06
8.6827931e-06
9.6245108e-06
1.067856e-05
1.1864357e-05
1.3206125e-05
1.4734094e-05
1.6486004e-05
1.850885e-05
2.0860686e-05
2.3613123e-05
2.6855412e-05
3.06979e-05
3.5273495e-05
4.0740979e-05
4.7298818e-05
5.5195055e-05
6.5203077e-05
7.6814728e-05
9.0866745e-05
0.00010788921
0.00012852548
0.00015355616
0.00018392876
0.0002207939
0.00026554531
0.00032279567
0.00038923776
0.00046990802
0.00056787666
0.00068688766
0.00083151366
0.0010073483
0.001201477
0.0011997152
0.001197926
0.0011961051
0.001194248
0.0011923498
0.0011904054
0.0011884095
0.0011863566
0.0011842409
0.0011823724
0.0011807756
0.0011794163
0.0011782658
0.0011772971
0.0011764846
0.0011758138
0.0011752827
0.0011748574
0.0011744644
0.0011741753
0.0011742298
0.0011742907
2.5409565e-07
1.5823181e-06
1.5393836e-06
1.313779e-06
1.2345164e-06
1.1912243e-06
1.2205865e-06
1.2938971e-06
1.4106347e-06
1.5597562e-06
1.7377078e-06
1.9419229e-06
2.172445e-06
2.4301109e-06
2.7165712e-06
3.0333567e-06
3.3838857e-06
3.7705941e-06
4.1967493e-06
4.6661137e-06
5.1829922e-06
5.7522954e-06
6.3797848e-06
7.0723309e-06
7.8382163e-06
8.6875655e-06
9.6328659e-06
1.0689638e-05
1.187724e-05
1.3219845e-05
1.4747678e-05
1.6498502e-05
1.8519165e-05
2.0867379e-05
2.3703478e-05
2.6961784e-05
3.0822873e-05
3.5417563e-05
4.0905673e-05
4.7489799e-05
5.541737e-05
6.4981558e-05
7.6538609e-05
9.0523728e-05
0.00010746253
0.00012799418
0.00015289375
0.00018473658
0.0002216651
0.0002664754
0.0003208614
0.0003868834
0.00046704952
0.00056441616
0.00068271207
0.00082649288
0.001001334
0.0012003549
0.0011986279
0.0011968746
0.0011950921
0.0011932761
0.0011914225
0.0011895267
0.0011875841
0.0011855899
0.0011835391
0.0011817416
0.0011802079
0.0011789047
0.0011778035
0.0011768775
0.0011761029
0.0011754666
0.0011749605
0.0011745489
0.0011741826
0.00117393
0.0011739344
0.0011738963
3.1024997e-07
1.276241e-06
1.1292203e-06
1.0581269e-06
1.0126062e-06
1.011469e-06
1.0632495e-06
1.1590613e-06
1.2905503e-06
1.4507392e-06
1.6362549e-06
1.8461376e-06
2.0807875e-06
2.3414674e-06
2.6299355e-06
2.9483752e-06
3.2993265e-06
3.6857134e-06
4.1108685e-06
4.5785494e-06
5.0929273e-06
5.6584061e-06
6.2807789e-06
6.9669117e-06
7.725058e-06
8.5652746e-06
9.4999615e-06
1.0544515e-05
1.1718128e-05
1.3044788e-05
1.4554519e-05
1.6284763e-05
1.828179e-05
2.0602781e-05
2.3319211e-05
2.6519676e-05
3.0310563e-05
3.4819235e-05
4.0206095e-05
4.667215e-05
5.4456836e-05
6.3846858e-05
7.5776341e-05
8.9612237e-05
0.00010636707
0.00012667251
0.00015129517
0.00018116584
0.00021741508
0.00026141691
0.00031484232
0.00037972514
0.00045854282
0.00055431617
0.00067073255
0.00081229944
0.00098453607
0.0011941991
0.0011975691
0.0011958565
0.0011941164
0.0011923451
0.0011905388
0.0011886934
0.0011868052
0.00118487
0.0011828836
0.0011811359
0.0011796465
0.0011783826
0.0011773153
0.0011764184
0.0011756696
0.0011750557
0.0011745633
0.0011741587
0.001173813