/*--------------------------------*- C++ -*----------------------------------*\
  =========                 |
  \\      /  F ield         | OpenFOAM: The Open Source CFD Toolbox
   \\    /   O peration     | Website:  https://openfoam.org
    \\  /    A nd           | Version:  6
     \\/     M anipulation  |
\*---------------------------------------------------------------------------*/
FoamFile
{
    version     2.0;
    format      ascii;
    class       volScalarField;
    location    "450";
    object      k;
}
// * * * * * * * * * * * * * * * * * * * * * * * * * * * * * * * * * * * * * //

dimensions      [0 2 -2 0 0 0 0];

internalField   nonuniform List<scalar> 
16000
(
0.12144055
0.031697573
0.021666667
0.017604774
0.015236757
0.014288833
0.013294175
0.012941156
0.012481223
0.012256549
0.012005687
0.011837202
0.011678407
0.011549416
0.011438203
0.011346934
0.01127062
0.011206406
0.011151726
0.011104846
0.011064321
0.011029075
0.01099822
0.010971066
0.010947045
0.0109257
0.010906648
0.010889575
0.010874213
0.01086034
0.010847763
0.010836318
0.010825859
0.01081626
0.010807404
0.01079919
0.010791521
0.010784307
0.01077746
0.010770899
0.010764545
0.010758322
0.010752157
0.010745978
0.010739714
0.010733296
0.010726654
0.010719719
0.010712419
0.010704685
0.010696444
0.010687622
0.010678142
0.010667922
0.010656863
0.010644831
0.010631645
0.010617039
0.010600502
0.0105805
0.010555848
0.010525678
0.010489627
0.01044664
0.01039652
0.010341261
0.010284977
0.010232943
0.010186848
0.010147777
0.010112962
0.010086713
0.010059902
0.010046029
0.010026208
0.010040889
0.010025237
0.010102981
0.010027897
0.010103858
0.10339484
0.032213465
0.021128741
0.017472193
0.015040046
0.014203561
0.013189007
0.012867938
0.012404507
0.012186489
0.011938076
0.011770111
0.011615088
0.011488256
0.011384338
0.011299079
0.011227784
0.011167809
0.011116742
0.011072966
0.011035129
0.01100222
0.01097341
0.010948049
0.010925604
0.010905647
0.010887817
0.010871819
0.0108574
0.010844351
0.010832489
0.01082166
0.010811727
0.010802571
0.010794079
0.010786157
0.010778711
0.010771659
0.01076492
0.010758418
0.010752077
0.010745826
0.010739597
0.010733323
0.010726938
0.010720376
0.010713572
0.01070646
0.010698974
0.010691047
0.010682609
0.010673589
0.010663912
0.010653498
0.010642255
0.010630066
0.010616773
0.010602173
0.010586002
0.010567844
0.010546683
0.010519556
0.010486333
0.010445816
0.010397466
0.010342886
0.010286348
0.010233525
0.010187041
0.010147217
0.0101125
0.010085037
0.010059814
0.010045563
0.010025904
0.010034469
0.010021262
0.010092373
0.010026712
0.010102911
0.089819699
0.032694016
0.020569944
0.017316055
0.014837171
0.01410292
0.013080032
0.012784923
0.012324863
0.01210987
0.011867695
0.011698364
0.011548888
0.011430696
0.011333822
0.011254359
0.011187913
0.01113203
0.011084456
0.011043678
0.011008435
0.010977783
0.010950942
0.010927306
0.010906374
0.010887745
0.01087108
0.010856101
0.010842572
0.010830293
0.010819093
0.010808827
0.010799365
0.010790595
0.010782414
0.010774729
0.010767454
0.010760508
0.01075382
0.010747317
0.01074093
0.010734592
0.01072824
0.010721811
0.010715243
0.010708477
0.010701451
0.010694103
0.010686371
0.010678191
0.010669497
0.010660221
0.01065029
0.010639626
0.010628142
0.010615731
0.010602249
0.01058751
0.010571288
0.010553301
0.010533096
0.010509663
0.010479852
0.010442383
0.01039637
0.010342994
0.010286513
0.010233179
0.01018636
0.010146119
0.010111479
0.01008343
0.010058989
0.010044475
0.010025753
0.010030423
0.010019009
0.010082792
0.010024769
0.010094245
0.080667064
0.032950029
0.020010115
0.017136623
0.014632933
0.013985232
0.012970081
0.012690454
0.012243115
0.012025528
0.011794505
0.011625605
0.011486611
0.011376703
0.01128662
0.011212732
0.011150961
0.011099019
0.01105481
0.011016919
0.010984171
0.010955684
0.010930731
0.010908744
0.010889254
0.010871885
0.010856319
0.010842296
0.010829594
0.010818024
0.010807425
0.010797661
0.01078861
0.010780165
0.010772232
0.010764724
0.010757559
0.010750663
0.010743965
0.010737403
0.010730912
0.010724429
0.010717897
0.010711256
0.010704452
0.010697427
0.010690126
0.01068249
0.010674461
0.010665979
0.010656981
0.010647402
0.010637172
0.010626214
0.010614444
0.010601762
0.010588038
0.010573097
0.010556728
0.010538685
0.010518631
0.010496001
0.010469579
0.010435827
0.01039282
0.010341257
0.010285244
0.010231674
0.010184706
0.010144295
0.010109739
0.010081397
0.010057617
0.010041954
0.010025509
0.010028041
0.010017292
0.010071967
0.010023191
0.010088575
0.072634758
0.032870319
0.019460785
0.016932303
0.014428813
0.013849749
0.012859638
0.012584083
0.012159285
0.011933228
0.011717884
0.01155727
0.011428353
0.011326382
0.011242832
0.011174302
0.011117031
0.01106888
0.011027907
0.01099279
0.010962436
0.010936023
0.010912874
0.010892456
0.010874332
0.01085815
0.010843613
0.010830477
0.010818532
0.010807602
0.010797536
0.010788205
0.010779496
0.010771309
0.010763554
0.010756152
0.010749029
0.010742114
0.010735343
0.010728655
0.010721994
0.010715303
0.010708528
0.010701616
0.010694516
0.010687175
0.010679543
0.010671566
0.010663188
0.010654354
0.010645003
0.010635074
0.010624498
0.010613202
0.010601103
0.010588107
0.010574093
0.010558899
0.010542325
0.010524141
0.010504058
0.010481638
0.010456132
0.010425938
0.010386671
0.010337599
0.010282517
0.010228991
0.010182075
0.01014172
0.010107365
0.010078992
0.010055756
0.010039426
0.010024828
0.010025367
0.010016029
0.010061933
0.010022157
0.010079562
0.065584269
0.032308764
0.018934445
0.016701637
0.0142266
0.013695428
0.012749367
0.012465081
0.012073306
0.011841136
0.011642088
0.011493428
0.011374175
0.011279798
0.011202519
0.01113913
0.011086179
0.011041664
0.011003794
0.010971331
0.010943265
0.010918828
0.010897391
0.010878456
0.010861614
0.010846538
0.010832949
0.010820619
0.010809353
0.010798986
0.010789374
0.010780398
0.010771952
0.010763944
0.010756291
0.01074892
0.010741761
0.010734753
0.010727837
0.010720955
0.010714056
0.010707092
0.010700011
0.010692768
0.010685314
0.010677604
0.010669589
0.01066122
0.010652446
0.010643215
0.010633468
0.010623147
0.010612186
0.010600514
0.010588051
0.010574705
0.010560363
0.010544875
0.01052805
0.010509673
0.01048948
0.010467096
0.010441938
0.01041295
0.01037776
0.010331952
0.010278327
0.010225134
0.010178487
0.010138398
0.010104357
0.01007617
0.010053429
0.010036775
0.010023662
0.010022339
0.010014956
0.010053736
0.010021154
0.010073155
0.059397355
0.031282486
0.018438225
0.016442614
0.014028079
0.013521286
0.012639788
0.012332926
0.011984121
0.011754986
0.011571493
0.011434189
0.011324178
0.011237054
0.01116578
0.011107311
0.011058495
0.011017458
0.01098255
0.010952618
0.010926726
0.01090416
0.010884334
0.010866785
0.010851133
0.010837072
0.010824341
0.010812728
0.010802051
0.010792155
0.010782909
0.010774199
0.010765928
0.010758012
0.010750374
0.010742948
0.010735672
0.01072849
0.010721349
0.0107142
0.010706993
0.010699689
0.01069224
0.010684605
0.010676742
0.010668608
0.010660161
0.010651355
0.010642142
0.010632472
0.010622291
0.010611542
0.010600162
0.010588082
0.010575224
0.010561498
0.010546796
0.010530981
0.010513871
0.010495262
0.010474909
0.010452478
0.010427481
0.010399123
0.010365896
0.010324234
0.010272671
0.010220107
0.010173956
0.010134338
0.010100754
0.010072935
0.010050674
0.010034012
0.010022035
0.01001899
0.010013876
0.010046243
0.010020152
0.010066325
0.053969495
0.030121848
0.017965404
0.016153316
0.013835145
0.013326727
0.01253134
0.012206143
0.011889962
0.011674848
0.011506156
0.011379638
0.011278443
0.011198237
0.011132697
0.011078926
0.011034056
0.010996331
0.010964241
0.010936708
0.010912867
0.010892056
0.010873732
0.010857463
0.010842896
0.010829745
0.010817769
0.01080677
0.010796579
0.010787053
0.010778069
0.010769524
0.010761329
0.010753407
0.010745689
0.010738116
0.010730634
0.010723193
0.010715746
0.010708253
0.010700669
0.010692956
0.010685077
0.010676993
0.010668668
0.010660063
0.01065114
0.010641856
0.010632166
0.010622024
0.010611377
0.010600171
0.010588345
0.010575832
0.010562554
0.010548426
0.010533343
0.010517176
0.010499755
0.010480884
0.010460337
0.01043781
0.010412876
0.010384887
0.010352758
0.010314382
0.010265588
0.010213957
0.010168527
0.010129578
0.010096601
0.010069309
0.010047549
0.010031122
0.010020027
0.01001566
0.010012678
0.010039026
0.010018871
0.010060143
0.049203618
0.029061013
0.017504553
0.01583313
0.013649331
0.013114222
0.012422477
0.012087772
0.011798603
0.011600795
0.011446142
0.011329861
0.011237053
0.011163438
0.011103358
0.011054059
0.011012941
0.01097836
0.010948933
0.010923658
0.010901737
0.010882554
0.010865608
0.010850499
0.010836897
0.010824538
0.010813199
0.010802695
0.010792872
0.010783598
0.010774761
0.010766268
0.010758037
0.010750001
0.0107421
0.010734281
0.010726498
0.01071871
0.010710875
0.010702961
0.010694929
0.010686744
0.010678377
0.010669793
0.010660959
0.010651841
0.010642404
0.010632608
0.010622412
0.01061177
0.010600634
0.01058895
0.010576658
0.010563693
0.01054998
0.010535434
0.010519955
0.01050342
0.010485671
0.010466521
0.010445759
0.010423105
0.010398179
0.010370429
0.010338987
0.010302303
0.010257136
0.010206749
0.010162259
0.010124169
0.010091957
0.010065333
0.010044128
0.010028124
0.010017711
0.010012578
0.010011333
0.010032182
0.010017463
0.010053789
0.04501059
0.02807636
0.017060279
0.015481585
0.013471455
0.012914842
0.012310764
0.011978202
0.011714421
0.011532898
0.011391521
0.011284951
0.011200102
0.01113275
0.011077853
0.011032799
0.010995231
0.010963614
0.010936686
0.010913514
0.010893366
0.01087567
0.010859963
0.010845875
0.0108331
0.010821396
0.010810556
0.010800412
0.010790821
0.010781667
0.010772847
0.010764278
0.010755891
0.010747625
0.01073943
0.010731262
0.010723083
0.010714858
0.010706555
0.010698146
0.010689599
0.010680886
0.01067198
0.01066285
0.010653468
0.010643804
0.010633824
0.010623492
0.010612769
0.010601611
0.01058997
0.010577795
0.010565026
0.0105516
0.010537443
0.010522473
0.010506591
0.010489681
0.010471596
0.010452157
0.010431167
0.010408371
0.010383424
0.010355849
0.010324937
0.010289529
0.010247399
0.010198577
0.010155237
0.010118186
0.010086893
0.010061064
0.010040492
0.010025046
0.010015167
0.010009731
0.010009847
0.010025861
0.010015917
0.010047557
0.04131405
0.027146658
0.016633218
0.015097329
0.013300115
0.012729022
0.012193156
0.01187741
0.01163741
0.011471227
0.011342371
0.011245005
0.011167687
0.011106273
0.011056277
0.011015231
0.010981001
0.010952158
0.010927547
0.010906309
0.010887767
0.010871394
0.010856765
0.010843538
0.010831431
0.010820222
0.010809723
0.010799782
0.010790272
0.010781088
0.010772141
0.01076336
0.010754685
0.010746067
0.010737465
0.010728844
0.010720174
0.010711429
0.010702583
0.010693613
0.010684494
0.010675204
0.010665716
0.010656006
0.010646048
0.010635815
0.010625274
0.010614392
0.010603131
0.010591448
0.010579298
0.010566627
0.01055338
0.010539492
0.010524892
0.010509497
0.010493215
0.010475932
0.01045751
0.010437782
0.010416564
0.01039362
0.01036864
0.010341203
0.010310715
0.010276291
0.010236476
0.01018956
0.010147563
0.010111719
0.010081492
0.010056573
0.010036725
0.010021932
0.010012489
0.010007107
0.010008253
0.010020277
0.010014427
0.010041399
0.038047688
0.026249257
0.016225347
0.014681936
0.013133404
0.012557468
0.012073763
0.011785368
0.01156758
0.011415857
0.011298781
0.011210126
0.011139912
0.011084109
0.011038722
0.011001436
0.010970317
0.010944037
0.010921542
0.010902042
0.010884917
0.010869678
0.010855938
0.010843383
0.010831758
0.010820861
0.010810522
0.010800608
0.010791007
0.01078163
0.010772402
0.010763262
0.010754166
0.010745073
0.010735953
0.01072678
0.010717532
0.01070819
0.010698736
0.01068915
0.010679414
0.01066951
0.010659413
0.010649101
0.010638552
0.010627739
0.010616632
0.010605197
0.010593399
0.010581194
0.010568538
0.010555379
0.01054166
0.010527318
0.010512283
0.010496474
0.010479801
0.010462154
0.010443406
0.010423397
0.010401957
0.01037887
0.010353857
0.010326544
0.010296418
0.010262753
0.010224473
0.010179843
0.010139361
0.010104876
0.010075847
0.010051941
0.010032915
0.010018836
0.010009777
0.010004694
0.010006571
0.01001555
0.010013073
0.010036271
0.035153505
0.025360126
0.015838253
0.014302768
0.012968332
0.012400658
0.011964978
0.011702034
0.011504949
0.01136686
0.011260844
0.011180418
0.011116879
0.011066353
0.011025271
0.010991477
0.010963219
0.010939267
0.010918661
0.010900675
0.010884741
0.010870414
0.010857342
0.010845241
0.010833882
0.010823085
0.010812703
0.010802621
0.010792743
0.010782999
0.010773328
0.010763684
0.010754034
0.010744349
0.010734608
0.010724794
0.010714893
0.010704893
0.01069478
0.01068454
0.010674159
0.01066362
0.010652902
0.010641982
0.010630841
0.010619451
0.010607785
0.010595808
0.010583484
0.010570771
0.010557624
0.010543992
0.010529818
0.010515039
0.010499586
0.010483381
0.010466334
0.010448342
0.010429283
0.010409009
0.010387363
0.010364148
0.010339112
0.010311926
0.010282141
0.010249145
0.010212063
0.010169591
0.010130768
0.010097775
0.010070058
0.010047257
0.010029145
0.010015814
0.010007126
0.010002476
0.010004785
0.010011577
0.010011802
0.010031855
0.032581726
0.024454314
0.015471048
0.013957651
0.012800639
0.01225817
0.0118666
0.011627398
0.01144957
0.01132433
0.011228668
0.011155989
0.011098691
0.011053089
0.011015996
0.0109854
0.010959719
0.010937822
0.010918834
0.010902094
0.010887087
0.010873408
0.010860744
0.010848843
0.010837504
0.010826572
0.010815924
0.010805464
0.010795118
0.01078483
0.010774559
0.010764271
0.010753945
0.010743565
0.010733119
0.010722595
0.010711987
0.010701287
0.010690487
0.010679575
0.010668539
0.010657363
0.010646029
0.010634512
0.010622793
0.010610845
0.01059864
0.010586143
0.010573316
0.01056012
0.010546506
0.010532425
0.010517821
0.01050263
0.010486785
0.010470208
0.010452813
0.0104345
0.010415156
0.010394641
0.010372812
0.010349489
0.010324449
0.010297402
0.010267962
0.010235605
0.010199614
0.010158986
0.01012194
0.010090543
0.010064231
0.010042615
0.010025491
0.010012925
0.010004618
0.010000452
0.010002889
0.010007885
0.010010596
0.010028217
0.030289155
0.02350408
0.015122603
0.013644876
0.012624244
0.012129579
0.011778457
0.011561444
0.011401504
0.011288357
0.011202356
0.011136937
0.011085447
0.011044392
0.011010925
0.010983189
0.010959753
0.010939584
0.010921893
0.010906079
0.010891684
0.010878347
0.010865793
0.010853806
0.010842216
0.010830895
0.010819747
0.010808698
0.010797693
0.010786696
0.01077568
0.010764629
0.01075353
0.010742377
0.010731165
0.010719889
0.010708547
0.010697133
0.010685642
0.010674063
0.010662384
0.010650592
0.010638665
0.010626577
0.01061431
0.010601836
0.010589125
0.010576141
0.010562846
0.010549199
0.010535153
0.010520656
0.010505654
0.010490084
0.010473878
0.010456962
0.010439251
0.01042065
0.010401051
0.010380327
0.010358343
0.01033494
0.010309919
0.010283031
0.010253945
0.010222215
0.010187242
0.010148224
0.010113037
0.010083313
0.010058472
0.010038104
0.010022026
0.010010229
0.010002334
0.0099986364
0.010000961
0.010004672
0.010009288
0.010025129
0.028238873
0.022479279
0.014791086
0.013363716
0.012461225
0.012014487
0.011700424
0.011504173
0.011360825
0.011259028
0.011182031
0.011123367
0.011077204
0.011040265
0.011010007
0.010984726
0.010963139
0.010944307
0.010927527
0.010912264
0.010898115
0.010884769
0.010871993
0.010859609
0.010847483
0.010835517
0.01082364
0.010811803
0.010799972
0.010788127
0.010776256
0.010764353
0.010752417
0.010740448
0.010728444
0.010716407
0.010704334
0.010692221
0.010680062
0.010667845
0.01065556
0.01064319
0.010630711
0.010618097
0.010605326
0.010592369
0.010579195
0.010565768
0.010552049
0.010537993
0.010523554
0.010508683
0.010493322
0.010477411
0.010460884
0.010443666
0.010425677
0.010406826
0.010387011
0.010366114
0.010344011
0.01032056
0.010295587
0.010268879
0.010240159
0.010209056
0.010175065
0.010137506
0.010104225
0.010076215
0.010052885
0.010033811
0.01001881
0.010007781
0.010000346
0.0099970656
0.0099990425
0.010001824
0.010007723
0.010022339
0.026399856
0.021347791
0.01447339
0.013112324
0.012315431
0.011912548
0.011632437
0.011455596
0.011327612
0.011236466
0.011167782
0.011115309
0.011073928
0.011040596
0.01101305
0.010989739
0.010969522
0.01095156
0.010935239
0.010920092
0.010905778
0.010892042
0.010878695
0.010865601
0.010852662
0.010839812
0.010827006
0.010814218
0.010801432
0.010788643
0.010775849
0.010763055
0.010750262
0.010737476
0.010724697
0.010711925
0.010699158
0.01068639
0.010673613
0.010660813
0.010647976
0.010635085
0.01062211
0.010609026
0.010595807
0.010582422
0.010568839
0.01055502
0.010540925
0.010526509
0.010511726
0.010496525
0.01048085
0.010464643
0.010447837
0.010430361
0.010412138
0.010393081
0.010373093
0.010352066
0.010329885
0.010306423
0.010281529
0.010255023
0.01022668
0.010196203
0.010163184
0.01012703
0.010095665
0.010069374
0.010047565
0.010029806
0.01001589
0.010005621
0.0099986975
0.0099957876
0.0099972618
0.0099992866
0.010006032
0.010019775
0.024747022
0.020076792
0.014163841
0.01288893
0.012186153
0.011823519
0.01157449
0.011415729
0.011301989
0.011220731
0.011159607
0.011112673
0.011075431
0.011045094
0.011019655
0.010997726
0.010978309
0.010960673
0.010944294
0.010928788
0.010913876
0.010899362
0.010885105
0.010871013
0.010857024
0.010843099
0.010829219
0.010815376
0.010801568
0.010787798
0.010774073
0.0107604
0.010746782
0.010733224
0.010719725
0.010706283
0.010692891
0.010679541
0.010666219
0.010652908
0.010639594
0.010626252
0.01061285
0.010599361
0.010585759
0.010572009
0.010558076
0.010543922
0.010529506
0.010514784
0.010499707
0.010484227
0.010468287
0.010451831
0.010434795
0.010417109
0.010398699
0.010379484
0.010359372
0.010338263
0.010316051
0.010292621
0.010267841
0.010241559
0.010213594
0.010183726
0.010151662
0.010116985
0.010087515
0.010062911
0.010042596
0.010026143
0.010013297
0.010003779
0.0099973967
0.0099948023
0.0099957593
0.0099973046
0.010004479
0.010017278
0.023261828
0.018849333
0.013851839
0.012692218
0.012072839
0.01174702
0.011526534
0.011384694
0.01128403
0.011211792
0.011157354
0.011115165
0.011081276
0.011053178
0.011029114
0.011007872
0.010988598
0.010970685
0.010953703
0.010937353
0.010921426
0.010905782
0.010890332
0.010875021
0.010859818
0.01084471
0.010829692
0.010814768
0.010799946
0.010785231
0.01077063
0.010756148
0.010741787
0.010727546
0.01071342
0.010699402
0.010685481
0.010671642
0.010657867
0.010644136
0.010630428
0.010616716
0.010602964
0.010589145
0.010575228
0.010561178
0.010546959
0.010532531
0.010517853
0.01050288
0.010487564
0.010471857
0.010455705
0.010439052
0.010421835
0.01040399
0.010385446
0.010366124
0.010345941
0.010324801
0.01030261
0.010279262
0.010254638
0.010228606
0.010201018
0.010171703
0.010140467
0.010107546
0.010079915
0.010056933
0.010038052
0.010022856
0.010011039
0.01000226
0.0099964177
0.0099940491
0.0099945478
0.0099958788
0.010002927
0.010014711
0.021927247
0.017806919
0.013541467
0.012521377
0.011975324
0.011682926
0.011488448
0.011362591
0.011273666
0.011209369
0.011160548
0.011122109
0.011090612
0.011063845
0.011040305
0.011018972
0.010999145
0.010980342
0.010962237
0.010944613
0.01092733
0.010910302
0.010893479
0.010876837
0.010860369
0.010844072
0.010827953
0.010812016
0.010796269
0.010780713
0.010765352
0.010750184
0.010735203
0.010720403
0.010705771
0.010691295
0.010676956
0.010662736
0.01064861
0.010634554
0.010620545
0.010606548
0.010592526
0.010578452
0.010564293
0.010550012
0.010535571
0.010520931
0.01050605
0.010490883
0.010475385
0.010459506
0.010443194
0.010426397
0.010409053
0.010391102
0.010372476
0.010353103
0.010332903
0.01031179
0.010289676
0.010266465
0.010242049
0.010216311
0.010189118
0.010160322
0.010129756
0.010098857
0.010072988
0.010051541
0.010034
0.010019969
0.010009108
0.010001044
0.0099957098
0.0099934743
0.0099936161
0.0099948605
0.010001227
0.010011923
0.020723252
0.016921989
0.013266595
0.012372808
0.011891955
0.011630741
0.011460348
0.011348982
0.011270286
0.011212618
0.01116813
0.011132249
0.011102025
0.011075568
0.011051649
0.01102944
0.011008401
0.010988176
0.010968537
0.010949344
0.010930511
0.010911993
0.010893768
0.010875827
0.01085817
0.010840797
0.010823712
0.010806914
0.010790401
0.010774169
0.01075821
0.010742514
0.010727067
0.010711853
0.010696854
0.010682049
0.010667415
0.010652926
0.010638554
0.010624273
0.010610054
0.010595858
0.010581647
0.010567394
0.010553063
0.010538618
0.010524021
0.01050923
0.010494205
0.010478902
0.010463277
0.01044728
0.010430864
0.010413976
0.01039656
0.010378557
0.010359904
0.010340534
0.010320374
0.010299345
0.010277367
0.010254353
0.010230206
0.010204822
0.010178084
0.010149863
0.010120014
0.010091034
0.01006683
0.010046817
0.010030511
0.010017529
0.010007515
0.010000105
0.0099952449
0.0099931067
0.0099928696
0.0099937299
0.009999255
0.010008577
0.019631064
0.016147688
0.013023418
0.01224086
0.011821414
0.01159077
0.011441733
0.011343069
0.011272738
0.011220068
0.011178373
0.011143674
0.011113501
0.011086326
0.011061174
0.011037418
0.011014669
0.01099268
0.010971305
0.010950457
0.010930085
0.010910161
0.010890671
0.010871607
0.010852962
0.010834727
0.010816894
0.010799451
0.010782385
0.010765678
0.010749312
0.010733267
0.01071752
0.010702048
0.010686824
0.010671821
0.010657013
0.010642366
0.010627852
0.010613443
0.010599103
0.010584787
0.010570464
0.010556105
0.010541672
0.010527129
0.010512437
0.010497556
0.010482446
0.010467064
0.010451367
0.010435309
0.010418842
0.010401918
0.010384483
0.010366482
0.010347858
0.010328548
0.010308484
0.010287596
0.010265811
0.010243051
0.010219231
0.010194258
0.010168032
0.010140439
0.010111357
0.010084162
0.010061504
0.010042821
0.010027647
0.010015604
0.010006326
0.0099994838
0.0099950284
0.00999295
0.0099923727
0.0099928741
0.0099974721
0.01000483
0.018638998
0.015455109
0.012811484
0.012127013
0.011764993
0.011562151
0.011431367
0.011343085
0.011278877
0.011229272
0.011188672
0.011153742
0.011122495
0.011093738
0.01106674
0.011041048
0.011016388
0.010992591
0.010969556
0.010947218
0.010925533
0.010904471
0.010884006
0.010864115
0.010844774
0.010825961
0.01080765
0.010789814
0.010772427
0.010755461
0.010738886
0.010722672
0.01070679
0.010691209
0.010675897
0.010660822
0.010645952
0.010631254
0.010616696
0.010602247
0.010587865
0.010573508
0.010559147
0.010544751
0.010530281
0.010515703
0.010500977
0.010486064
0.010470926
0.010455521
0.010439807
0.010423741
0.010407278
0.010390371
0.010372972
0.010355028
0.010336486
0.01031729
0.010297377
0.010276684
0.010255147
0.010232695
0.010209254
0.010184744
0.010159076
0.010132156
0.010103879
0.010078296
0.010057038
0.010039561
0.010025414
0.010014214
0.010005594
0.0099992581
0.0099951426
0.0099930983
0.0099923294
0.0099927454
0.0099965856
0.0100025
0.017739664
0.014813693
0.012628839
0.012032714
0.011720939
0.011542473
0.011426406
0.011345737
0.011285208
0.011236695
0.01119563
0.011159324
0.011126235
0.011095452
0.01106643
0.011038831
0.011012445
0.010987132
0.010962795
0.010939361
0.01091677
0.010894972
0.010873918
0.010853564
0.010833867
0.010814786
0.010796279
0.010778307
0.010760831
0.010743813
0.010727216
0.010711003
0.010695138
0.010679585
0.01066431
0.010649277
0.010634449
0.010619794
0.010605281
0.010590873
0.010576524
0.010562198
0.010547868
0.010533499
0.010519057
0.010504503
0.010489802
0.010474915
0.010459804
0.010444431
0.010428755
0.010412736
0.01039633
0.010379495
0.010362184
0.01034435
0.010325945
0.010306914
0.010287205
0.010266759
0.010245518
0.010223422
0.010200405
0.010176398
0.010151325
0.010125108
0.010097658
0.010073477
0.010053437
0.010037011
0.010023757
0.010013292
0.010005252
0.009999368
0.0099955413
0.0099935238
0.0099926565
0.0099930603
0.0099962668
0.010000956
0.016933334
0.014261486
0.012474157
0.011955232
0.011686222
0.011527735
0.01142238
0.011346355
0.011287184
0.011238138
0.011195566
0.011157349
0.011122278
0.011089624
0.011058937
0.011029919
0.011002362
0.010976113
0.01095105
0.01092707
0.010904088
0.010882024
0.010860808
0.010840374
0.010820663
0.010801617
0.010783184
0.010765315
0.010747962
0.010731082
0.010714631
0.010698568
0.010682854
0.010667452
0.010652324
0.010637432
0.01062274
0.010608216
0.010593827
0.010579532
0.010565284
0.010551058
0.010536824
0.010522546
0.01050819
0.01049372
0.0104791
0.010464295
0.010449267
0.010433981
0.010418397
0.010402477
0.010386182
0.01036947
0.0103523
0.010334628
0.010316408
0.010297594
0.010278135
0.010257981
0.01023708
0.010215379
0.010192821
0.010169346
0.010144891
0.010119388
0.010092765
0.010069749
0.010050718
0.01003516
0.010022642
0.010012779
0.010005219
0.0099997124
0.0099961161
0.0099941295
0.0099932395
0.0099936515
0.009996326
0.010000015
0.016225236
0.013809989
0.012345604
0.011890587
0.011655492
0.011511954
0.011413414
0.011339572
0.011280276
0.011230035
0.011185896
0.011146135
0.011109717
0.011075971
0.011044452
0.011014837
0.010986887
0.010960413
0.010935262
0.010911304
0.010888427
0.010866532
0.010845532
0.010825348
0.010805907
0.010787146
0.010769004
0.010751426
0.010734362
0.010717764
0.010701588
0.01068579
0.010670332
0.010655173
0.010640277
0.010625605
0.010611123
0.010596801
0.010582601
0.010568477
0.010554394
0.010540328
0.010526246
0.010512114
0.0104979
0.010483567
0.010469084
0.010454414
0.010439523
0.010424375
0.010408936
0.010393168
0.010377035
0.010360497
0.010343517
0.010326055
0.010308068
0.010289514
0.010270349
0.010250525
0.010229999
0.010208723
0.010186648
0.010163722
0.010139889
0.010115092
0.01008927
0.010067148
0.010048891
0.010033996
0.010022035
0.010012624
0.010005426
0.0100002
0.0099967606
0.0099947922
0.00999391
0.0099943152
0.0099965347
0.0099994259
0.015546048
0.01341521
0.012229149
0.011827313
0.011617767
0.011485505
0.011391768
0.01131955
0.011260393
0.011209684
0.011164855
0.011124626
0.011088004
0.011054285
0.01102297
0.010993694
0.010966175
0.010940193
0.010915571
0.010892164
0.010869849
0.010848521
0.010828085
0.010808453
0.01078955
0.010771306
0.010753662
0.01073656
0.010719949
0.010703783
0.010688016
0.010672608
0.010657518
0.01064271
0.010628144
0.010613785
0.010599604
0.010585567
0.010571633
0.010557758
0.010543917
0.010530086
0.01051623
0.010502317
0.010488314
0.01047419
0.01045991
0.010445442
0.010430754
0.010415811
0.010400579
0.010385025
0.010369114
0.010352809
0.010336075
0.010318875
0.01030117
0.010282922
0.01026409
0.010244632
0.010224509
0.01020368
0.010182101
0.010159729
0.010136518
0.010112419
0.010087384
0.010065833
0.010048069
0.010033594
0.010021978
0.010012841
0.010005858
0.010000786
0.0099974062
0.0099954104
0.0099945286
0.0099949369
0.0099968377
0.0099992092
0.014469287
0.012812413
0.011975435
0.011670076
0.011504478
0.011396309
0.011317544
0.011255639
0.011204316
0.011160093
0.011120958
0.011085415
0.011052663
0.011022181
0.010993599
0.010966639
0.010941088
0.010916774
0.010893561
0.010871332
0.010849993
0.010829568
0.010809986
0.010791158
0.010773009
0.01075547
0.010738483
0.010721993
0.010705953
0.010690318
0.010675046
0.010660098
0.01064544
0.010631034
0.010616846
0.010602846
0.010589008
0.010575296
0.010561664
0.010548082
0.010534529
0.010520975
0.010507387
0.010493737
0.010479991
0.010466119
0.010452089
0.010437871
0.010423432
0.01040874
0.010393764
0.010378471
0.010362827
0.010346799
0.010330352
0.010313452
0.010296063
0.010278148
0.01025967
0.01024059
0.010220871
0.010200476
0.010179366
0.010157501
0.01013484
0.010111342
0.010086962
0.010065693
0.010048167
0.010033884
0.010022412
0.010013372
0.010006444
0.010001373
0.0099979157
0.009995802
0.0099948463
0.0099951
0.0099964908
0.0099983102
0.0140257
0.01260764
0.011847925
0.01157252
0.011423086
0.011325613
0.011254291
0.011197899
0.011150745
0.011109772
0.011073229
0.01104005
0.011009561
0.010981296
0.010954913
0.010930152
0.010906806
0.010884704
0.010863703
0.010843679
0.010824525
0.010806045
0.010788159
0.010770819
0.010753982
0.010737606
0.010721652
0.010706086
0.010690873
0.01067598
0.010661378
0.010647035
0.010632925
0.010619016
0.010605283
0.010591711
0.010578293
0.010564985
0.01055175
0.010538562
0.010525396
0.010512222
0.010499008
0.010485724
0.010472341
0.010458828
0.010445155
0.010431291
0.010417207
0.010402872
0.010388254
0.010373322
0.010358044
0.010342389
0.010326323
0.010309813
0.010292824
0.010275321
0.01025727
0.010238632
0.010219372
0.010199454
0.010178842
0.010157497
0.01013538
0.010112453
0.010088672
0.010067129
0.010049399
0.010034963
0.010023369
0.010014228
0.010007211
0.010002041
0.0099984625
0.0099962346
0.0099951957
0.0099952805
0.0099963216
0.0099979303
0.01361164
0.012403037
0.01168506
0.011443853
0.011314472
0.011232295
0.011172336
0.011124952
0.01108506
0.011050103
0.011018629
0.010989788
0.010963037
0.010938005
0.010914428
0.010892103
0.010870874
0.010850616
0.010831225
0.010812617
0.010794717
0.01077746
0.010760792
0.010744668
0.010729043
0.010713876
0.010699127
0.010684759
0.010670736
0.010657023
0.010643588
0.0106304
0.010617424
0.010604632
0.010591995
0.010579478
0.010567025
0.010554604
0.010542195
0.010529782
0.010517342
0.010504849
0.01049228
0.010479609
0.01046681
0.010453858
0.010440725
0.010427385
0.010413811
0.010399974
0.010385846
0.010371398
0.010356601
0.010341424
0.010325837
0.010309808
0.010293304
0.010276293
0.01025874
0.01024061
0.010221867
0.010202479
0.010182408
0.010161618
0.010140072
0.010117731
0.010094555
0.010072131
0.01005365
0.01003857
0.010026422
0.010016804
0.010009369
0.010003823
0.0099998998
0.0099973733
0.0099960678
0.0099958406
0.0099965187
0.0099979187
56.609267
103.0449
60.433086
40.536396
27.935013
19.434885
13.710532
9.8071936
7.0774623
5.1273079
3.7115034
2.6847854
1.9333087
1.3897442
0.98972323
0.70153553
0.49235887
0.34341482
0.23866157
0.16543452
0.11467306
0.079853696
0.056252
0.040453171
0.030021917
0.023225273
0.018860126
0.016091613
0.014356077
0.013277726
0.012610478
0.012196165
0.011935141
0.011765862
0.011651102
0.011568787
0.011506076
0.011455603
0.011413164
0.011376419
0.011343927
0.011314809
0.011288566
0.011264695
0.011242844
0.011222706
0.011203846
0.011184813
0.011157457
0.011117261
0.01106674
0.011010723
0.010953516
0.01089763
0.010845383
0.010799429
0.010759932
0.010725537
0.01069415
0.010665206
0.010634645