/*--------------------------------*- C++ -*----------------------------------*\
  =========                 |
  \\      /  F ield         | OpenFOAM: The Open Source CFD Toolbox
   \\    /   O peration     | Website:  https://openfoam.org
    \\  /    A nd           | Version:  6
     \\/     M anipulation  |
\*---------------------------------------------------------------------------*/
FoamFile
{
    version     2.0;
    format      ascii;
    class       volScalarField;
    location    "450";
    object      nut;
}
// * * * * * * * * * * * * * * * * * * * * * * * * * * * * * * * * * * * * * //

dimensions      [0 2 -1 0 0 0 0];

internalField   nonuniform List<scalar> 
16000
(
4.774815e-06
2.1008352e-05
2.3548069e-05
3.2895294e-05
2.8087941e-05
3.5926298e-05
3.4892252e-05
3.9382178e-05
4.0146355e-05
4.036899e-05
4.0782483e-05
3.9564317e-05
3.9626546e-05
3.8604962e-05
3.8599011e-05
3.8147647e-05
3.8320827e-05
3.8377179e-05
3.8796312e-05
3.9256931e-05
3.996201e-05
4.0787548e-05
4.1819107e-05
4.3019721e-05
4.4433707e-05
4.6064369e-05
4.794754e-05
5.0109536e-05
5.2593456e-05
5.5446391e-05
5.8729981e-05
6.2518323e-05
6.690325e-05
7.1996667e-05
7.7935136e-05
8.4886883e-05
9.3059065e-05
0.0001027078
0.00011414881
0.0001277687
0.00014404293
0.0001635598
0.00018704403
0.00021538699
0.00024968464
0.00029128273
0.00034182618
0.00040331766
0.00047818137
0.00056932901
0.00068022423
0.00081495049
0.00097832698
0.0010398097
0.0010408362
0.001040988
0.0010405299
0.0010397443
0.0010387938
0.0010376471
0.0010362393
0.0010345214
0.0010324716
0.0010300297
0.0010271817
0.0010240345
0.0010208143
0.0010178145
0.0010151304
0.0010128232
0.0010107376
0.001009114
0.0010074388
0.0010064663
0.0010051312
0.0010056993
0.0010045177
0.0010085075
0.0010038286
0.0010074266
3.9935313e-06
2.0781735e-05
2.1558037e-05
3.0065267e-05
2.5904646e-05
3.2409523e-05
3.2109509e-05
3.5271153e-05
3.6681179e-05
3.6087631e-05
3.6888765e-05
3.5328814e-05
3.555304e-05
3.4423872e-05
3.4498033e-05
3.4037549e-05
3.4217427e-05
3.4249786e-05
3.4631045e-05
3.5037602e-05
3.5668665e-05
3.6404913e-05
3.7326001e-05
3.8397605e-05
3.9659195e-05
4.1113788e-05
4.2792802e-05
4.4719799e-05
4.6932663e-05
4.9473132e-05
5.2395239e-05
5.5763967e-05
5.966025e-05
6.4182699e-05
6.9452689e-05
7.5618822e-05
8.2862702e-05
9.1407439e-05
0.00010152891
0.00011356763
0.00012793935
0.00014515644
0.00016585013
0.000190796
0.00022094527
0.00025746504
0.00030178159
0.00035563184
0.00042112251
0.00050079352
0.00059768632
0.00071541419
0.00085826376
0.0010313198
0.001039715
0.0010400041
0.0010396038
0.0010388314
0.0010379001
0.0010368537
0.0010356367
0.0010340852
0.0010321906
0.0010298845
0.0010271343
0.0010240249
0.0010207909
0.0010177473
0.0010150416
0.0010126922
0.001010612
0.0010089201
0.0010073336
0.0010063393
0.0010050128
0.0010052362
0.0010041904
0.0010078061
0.0010036512
0.001007252
3.4196349e-06
2.0557215e-05
1.995495e-05
2.7642318e-05
2.4158036e-05
2.9396819e-05
2.998947e-05
3.1610531e-05
3.3717371e-05
3.2135977e-05
3.33034e-05
3.1378857e-05
3.1750622e-05
3.0592898e-05
3.0735129e-05
3.0283062e-05
3.0470236e-05
3.0494396e-05
3.084692e-05
3.1216186e-05
3.1788959e-05
3.245618e-05
3.3288863e-05
3.4257406e-05
3.5395949e-05
3.6708301e-05
3.8221902e-05
3.9958426e-05
4.1951487e-05
4.4238627e-05
4.6868051e-05
4.9898045e-05
5.3400741e-05
5.7463804e-05
6.2195555e-05
6.7728886e-05
7.4226983e-05
8.1889052e-05
9.0958703e-05
0.00010173743
0.00011459588
0.00012998838
0.00014847213
0.0001707319
0.00019760608
0.00023012092
0.00026952966
0.00031735723
0.00037545347
0.00044605209
0.00053183606
0.00063600851
0.0007623797
0.00091549622
0.0010385886
0.0010390298
0.0010386945
0.0010379304
0.0010369954
0.0010359569
0.0010347912
0.0010334418
0.0010317339
0.0010295952
0.0010269735
0.0010239307
0.0010206998
0.0010176275
0.0010149028
0.0010125297
0.0010104534
0.0010087282
0.001007185
0.0010061752
0.0010049007
0.0010049042
0.0010039576
0.0010071609
0.0010034315
0.0010066503
3.039779e-06
2.0267078e-05
1.858456e-05
2.5372675e-05
2.2520556e-05
2.6640637e-05
2.7943264e-05
2.8321612e-05
3.0847177e-05
2.8591276e-05
2.9926328e-05
2.7845635e-05
2.8292931e-05
2.7183456e-05
2.7347139e-05
2.693393e-05
2.7114158e-05
2.7144343e-05
2.7468684e-05
2.7811431e-05
2.8334035e-05
2.8944623e-05
2.9702334e-05
3.05841e-05
3.161838e-05
3.2810333e-05
3.4183816e-05
3.5759162e-05
3.7566468e-05
3.9639912e-05
4.2022927e-05
4.4768252e-05
4.7941037e-05
5.1620737e-05
5.590494e-05
6.0913285e-05
6.6792991e-05
7.3725179e-05
8.1930916e-05
9.1679872e-05
0.00010330476
0.00011721612
0.00013391488
0.00015401483
0.00017826806
0.00020759397
0.00024311408
0.00028619299
0.00033848635
0.00040199571
0.00047913127
0.00057278165
0.00068639489
0.00082409117
0.00099080629
0.0010380583
0.001037799
0.0010370437
0.0010360995
0.0010350564
0.0010338975
0.0010325907
0.0010310681
0.0010291331
0.0010266766
0.0010237336
0.001020528
0.0010174421
0.0010147085
0.0010123252
0.0010102529
0.0010085106
0.0010070037
0.0010059287
0.0010047812
0.0010046635
0.0010037533
0.0010064451
0.0010032333
0.0010062251
2.7246291e-06
1.9877493e-05
1.7457903e-05
2.3270607e-05
2.1018527e-05
2.4122877e-05
2.6025766e-05
2.5335371e-05
2.8090477e-05
2.5359265e-05
2.6732716e-05
2.4675008e-05
2.5127491e-05
2.4110923e-05
2.4270481e-05
2.3912502e-05
2.4080243e-05
2.4124569e-05
2.442398e-05
2.4747848e-05
2.5228213e-05
2.5792037e-05
2.6486379e-05
2.7294761e-05
2.8240389e-05
2.932981e-05
3.0583846e-05
3.2021719e-05
3.3670635e-05
3.5561993e-05
3.7735269e-05
4.0238613e-05
4.3131444e-05
4.6486187e-05
5.0391824e-05
5.4957654e-05
6.0317562e-05
6.6636102e-05
7.4116223e-05
8.3005142e-05
9.3603375e-05
0.00010628421
0.00012150529
0.00013982408
0.00016192322
0.00018863837
0.0002209872
0.00026020846
0.00030780588
0.00036559896
0.00043578342
0.00052099871
0.0006244078
0.00074979619
0.00090171252
0.0010370821
0.0010369135
0.001036169
0.0010352124
0.00103416
0.0010329977
0.0010317008
0.001030227
0.0010284866
0.0010262354
0.0010234292
0.0010202744
0.00101719
0.0010144583
0.0010120772
0.0010100152
0.0010082703
0.0010067931
0.0010056798
0.0010046352
0.0010044048
0.0010035731
0.0010057732
0.0010030673
0.0010056213
2.4605866e-06
1.8273542e-05
1.6498184e-05
2.1292329e-05
1.9640319e-05
2.1792069e-05
2.4205528e-05
2.260259e-05
2.5435507e-05
2.2454361e-05
2.3758983e-05
2.1841833e-05
2.2252807e-05
2.1357462e-05
2.1497755e-05
2.1203539e-05
2.1357094e-05
2.1420016e-05
2.1698594e-05
2.2009255e-05
2.2454909e-05
2.298053e-05
2.3622172e-05
2.4369295e-05
2.5240682e-05
2.6244054e-05
2.7397778e-05
2.8720149e-05
3.0236051e-05
3.1974596e-05
3.3972034e-05
3.6272746e-05
3.8931469e-05
4.2014936e-05
4.5605119e-05
4.980267e-05
5.4731223e-05
6.0542192e-05
6.7421999e-05
7.5600356e-05
8.5354127e-05
9.7025706e-05
0.00011103651
0.00012790102
0.00014824572
0.00017283953
0.00020261814
0.00023871982
0.00028252781
0.00033571623
0.00040030867
0.00047874315
0.00057394972
0.00068944315
0.00082945213
0.00099906203
0.0010360334
0.0010353041
0.0010343325
0.0010332677
0.0010320975
0.0010308006
0.001029344
0.0010276683
0.0010256406
0.0010230136
0.0010199384
0.0010168713
0.0010141534
0.001011786
0.0010097405
0.001008005
0.0010065546
0.0010054223
0.0010044603
0.0010041248
0.0010034027
0.0010052043
0.0010029055
0.0010051709
2.2256182e-06
1.62274e-05
1.550337e-05
1.9417828e-05
1.8390497e-05
1.9634469e-05
2.2477676e-05
2.0100768e-05
2.2891866e-05
1.9878682e-05
2.1040255e-05
1.9317192e-05
1.9658774e-05
1.8895179e-05
1.9008352e-05
1.8778084e-05
1.8917489e-05
1.8999336e-05
1.9260517e-05
1.9561068e-05
1.9977875e-05
2.0471539e-05
2.1068943e-05
2.1764381e-05
2.2573155e-05
2.350381e-05
2.4572796e-05
2.579759e-05
2.7201174e-05
2.8810792e-05
3.0660027e-05
3.2790106e-05
3.5251959e-05
3.8107601e-05
4.1433228e-05
4.5322509e-05
4.9890469e-05
5.5278107e-05
6.1658619e-05
6.9246421e-05
7.8299738e-05
8.9136838e-05
0.00010214901
0.00011781613
0.00013672016
0.00015957572
0.00018725334
0.00022081068
0.00026153449
0.00031098248
0.00037103961
0.00044398106
0.0005325471
0.00064003349
0.00077040802
0.00092845757
0.0010351533
0.0010344462
0.0010334579
0.0010323783
0.0010311973
0.0010298958
0.0010284459
0.0010268028
0.0010248816
0.0010224823
0.00101952
0.0010164863
0.0010137945
0.0010114522
0.001009431
0.0010077149
0.0010062905
0.0010051569
0.0010042581
0.0010038257
0.0010032315
0.0010046756
0.0010027466
0.0010047039
2.0091838e-06
1.5744849e-05
1.4401418e-05
1.7646914e-05
1.7247918e-05
1.7635024e-05
2.079739e-05
1.7871706e-05
2.0441892e-05
1.7589819e-05
1.8563261e-05
1.7064486e-05
1.7324633e-05
1.6692716e-05
1.6777873e-05
1.6607962e-05
1.6735682e-05
1.6835594e-05
1.7083339e-05
1.7376283e-05
1.7769824e-05
1.8237135e-05
1.8798e-05
1.9450387e-05
2.0206945e-05
2.1076825e-05
2.2074963e-05
2.3218099e-05
2.4527712e-05
2.6029479e-05
2.7754862e-05
2.9742421e-05
3.204001e-05
3.4705791e-05
3.7811216e-05
4.1444271e-05
4.571301e-05
5.0749889e-05
5.6717599e-05
6.3818078e-05
7.2293871e-05
8.2444373e-05
9.4637329e-05
0.00010932319
0.00012704898
0.00014848528
0.00017445025
0.00020593665
0.00024415339
0.00029056407
0.00034694122
0.00041542713
0.0004986065
0.00059959445
0.00072214516
0.0008707956
0.0010342668
0.001033593
0.0010325865
0.0010314904
0.0010302966
0.0010289876
0.001027539
0.0010259139
0.001024051
0.0010218317
0.0010190212
0.0010160376
0.0010133844
0.0010110778
0.0010090893
0.0010074015
0.0010060042
0.001004883
0.0010040334
0.0010035271
0.0010030537
0.0010041636
0.0010025755
0.0010042797
1.8238583e-06
1.5215374e-05
1.3410226e-05
1.5977487e-05
1.6182757e-05
1.576212e-05
1.9111538e-05
1.5874123e-05
1.8114022e-05
1.5539418e-05
1.6308318e-05
1.5044208e-05
1.5224608e-05
1.4717415e-05
1.4779048e-05
1.4664176e-05
1.478442e-05
1.4901163e-05
1.5139695e-05
1.5427308e-05
1.5802708e-05
1.6248719e-05
1.6779849e-05
1.7396806e-05
1.8110287e-05
1.8929767e-05
1.9869102e-05
2.0944341e-05
2.217578e-05
2.3587813e-05
2.5210166e-05
2.7079219e-05
2.9240301e-05
3.1748447e-05
3.4671273e-05
3.8092086e-05
4.2113345e-05
4.6860717e-05
5.2487859e-05
5.9187335e-05
6.7188924e-05
7.6776625e-05
8.8298785e-05
0.00010218317
0.00011894792
0.00013922846
0.00016380067
0.00019360491
0.00022978741
0.00027373575
0.00032713132
0.00039200827
0.00047082414
0.00056654567
0.00068275352
0.00082377922
0.00099485381
0.0010327421
0.0010317166
0.001030603
0.0010293951
0.0010280767
0.0010266262
0.0010250119
0.0010231846
0.0010210565
0.0010184452
0.0010155288
0.0010129262
0.001010666
0.0010087188
0.0010070673
0.0010057002
0.0010046021
0.0010037908
0.0010032421
0.0010028682
0.0010036743
0.0010024009
0.0010038519
1.6623845e-06
1.4631787e-05
1.2474043e-05
1.4377538e-05
1.5180381e-05
1.4066759e-05
1.7399025e-05
1.4073482e-05
1.5939394e-05
1.3695999e-05
1.4266703e-05
1.3229781e-05
1.334068e-05
1.2945944e-05
1.2991054e-05
1.2924726e-05
1.3042039e-05
1.317419e-05
1.3407388e-05
1.3691697e-05
1.4053571e-05
1.4482823e-05
1.4990308e-05
1.5578614e-05
1.6257128e-05
1.7035438e-05
1.7926608e-05
1.8946085e-05
2.0113226e-05
2.14514e-05
2.2988946e-05
2.476043e-05
2.6809166e-05
2.918768e-05
3.196049e-05
3.5207097e-05
3.902556e-05
4.3536194e-05
4.8884798e-05
5.5257589e-05
6.2873554e-05
7.200408e-05
8.2981823e-05
9.6217741e-05
0.00011220571
0.00013155304
0.00015500193
0.00018345036
0.00021799442
0.00025996035
0.00031095589
0.00037292753
0.00044822928
0.00053970645
0.00065079821
0.00078566806
0.00094935367
0.0010318914
0.0010308469
0.0010297151
0.0010284922
0.0010271636
0.0010257094
0.0010241022
0.0010223016
0.0010202418
0.0010177968
0.0010149653
0.0010124249
0.0010102211
0.0010083238
0.0010067157
0.0010053832
0.0010043161
0.001003535
0.0010029705
0.0010026759
0.0010032167
0.0010022226
0.0010034366
1.5219738e-06
1.3962232e-05
1.1603245e-05
1.2839985e-05
1.4219854e-05
1.2530768e-05
1.5650245e-05
1.2447109e-05
1.3930013e-05
1.2036913e-05
1.2429813e-05
1.1600389e-05
1.1656242e-05
1.1359004e-05
1.1395239e-05
1.1370734e-05
1.1489321e-05
1.1635504e-05
1.1817765e-05
1.2092711e-05
1.2439121e-05
1.285081e-05
1.3335611e-05
1.3896932e-05
1.4542949e-05
1.5283037e-05
1.6129455e-05
1.709695e-05
1.820392e-05
1.9472758e-05
2.093054e-05
2.2610065e-05
2.4552846e-05
2.6809118e-05
2.9440629e-05
3.2523481e-05
3.6151793e-05
4.0441587e-05
4.5834369e-05
5.1944247e-05
5.9250518e-05
6.801455e-05
7.8556318e-05
9.127436e-05
0.00010664265
0.00012524593
0.00014780029
0.00017516928
0.00020840954
0.00024879824
0.00029788414
0.00035754342
0.0004300467
0.0005181413
0.00062515173
0.00075510557
0.00091288223
0.0010310393
0.0010299764
0.0010288262
0.0010275882
0.0010262489
0.0010247902
0.0010231881
0.0010214083
0.0010194004
0.0010170816
0.0010143538
0.0010118863
0.0010097482
0.0010079092
0.0010063509
0.0010050584
0.0010040278
0.0010032718
0.0010027123
0.0010024791
0.001002803
0.0010020516
0.0010030307
1.3995669e-06
1.3192438e-05
1.0787207e-05
1.1359256e-05
1.3266037e-05
1.1135066e-05
1.3888168e-05
1.0972657e-05
1.2091575e-05
1.0541038e-05
1.0785367e-05
1.0137465e-05
1.015456e-05
9.9397243e-06
9.9278958e-06
9.9218864e-06
1.003557e-05
1.0189381e-05
1.0417164e-05
1.0698332e-05
1.1043126e-05
1.1449e-05
1.192255e-05
1.2468219e-05
1.3093709e-05
1.380847e-05
1.4624372e-05
1.5555787e-05
1.6620517e-05
1.7840343e-05
1.9241597e-05
2.0855724e-05
2.2723053e-05
2.4892265e-05
2.7423164e-05
3.0389398e-05
3.3882208e-05
3.8015497e-05
4.2925638e-05
4.8781885e-05
5.5791431e-05
6.4207237e-05
7.4915315e-05
8.7228302e-05
0.00010211258
0.00012013456
0.00014199116
0.00016851776
0.00020074079
0.00023989879
0.00028749401
0.00034534708
0.00041566273
0.00050111055
0.00060492408
0.00073102294
0.00088416072
0.0010301843
0.0010291044
0.0010279362
0.0010266835
0.0010253336
0.0010238705
0.0010222725
0.00102051
0.0010185416
0.0010163055
0.0010137027
0.0010113176
0.0010092538
0.0010074805
0.001005978
0.0010047311
0.0010037408
0.0010030075
0.0010024671
0.0010022795
0.0010024407
0.0010018927
0.0010026873
1.2933282e-06
1.2315711e-05
1.0026901e-05
1.0017889e-05
1.2288778e-05
9.8620403e-06
1.2178953e-05
9.6326792e-06
1.0427939e-05
9.1921134e-06
9.3210054e-06
8.8263597e-06
8.7524413e-06
8.5845547e-06
8.6127111e-06
8.6515252e-06
8.783177e-06
8.9567574e-06
9.1930951e-06
9.4800393e-06
9.8246448e-06
1.0226727e-05
1.0692217e-05
1.1226256e-05
1.1836202e-05
1.2531547e-05
1.3323878e-05
1.4227238e-05
1.5258945e-05
1.6440308e-05
1.7797235e-05
1.9359943e-05
2.1167945e-05
2.3268769e-05
2.572081e-05
2.8595829e-05
3.1982442e-05
3.5993137e-05
4.0760811e-05
4.6451085e-05
5.3266681e-05
6.145553e-05
7.1323491e-05
8.3239064e-05
9.765419e-05
0.0001160736
0.00013740316
0.00016329232
0.0001947456
0.00023297196
0.00027943785
0.00033592122
0.00040457604
0.00048801206
0.0005893928
0.0007125551
0.0008621567
0.0010293254
0.0010282312
0.0010270458
0.0010257791
0.0010244195
0.0010229524
0.0010213586
0.0010196124
0.0010176783
0.0010155063
0.0010130212
0.0010107268
0.0010087447
0.0010070436
0.0010056023
0.0010044063
0.0010034586
0.0010027476
0.0010022346
0.0010020765
0.0010021241
0.0010017429
0.0010023883
1.2012697e-06
1.1332175e-05
9.3157386e-06
8.8027664e-06
1.1254737e-05
8.7001565e-06
1.0552072e-05
8.4156272e-06
8.9395827e-06
7.9780592e-06
7.9478928e-06
7.5424821e-06
7.5094832e-06
7.4181232e-06
7.4697031e-06
7.5445106e-06
7.6928208e-06
7.8830965e-06
8.1279278e-06
8.4206622e-06
8.7665582e-06
9.1669019e-06
9.6273063e-06
1.015344e-05
1.075237e-05
1.1433619e-05
1.2208581e-05
1.3091025e-05
1.409786e-05
1.5250004e-05
1.6510234e-05
1.8021547e-05
1.977017e-05
2.1802494e-05
2.4175607e-05
2.6959606e-05
3.0413315e-05
3.4332058e-05
3.8993394e-05
4.4560477e-05
5.1232864e-05
5.9253482e-05
6.8925261e-05
8.0609374e-05
9.4750913e-05
0.00011189416
0.00013269559
0.00015932159
0.00019022021
0.00022777472
0.00027342515
0.00032891799
0.00039636978
0.00047834616
0.00057795908
0.00069898564
0.00084601502
0.0010246149
0.0010273575
0.0010261563
0.0010248767
0.0010235084
0.0010220384
0.0010204496
0.0010187198
0.0010168185
0.0010147046
0.00101232
0.0010101228
0.0010082285
0.0010066049
0.0010052294
0.001004089
0.0010031851
0.0010024976
0.0010020154
0.0010018705
0.0010018271
0.0010016013
0.001002137
1.1222068e-06
1.0251967e-05
8.6463523e-06
7.7012626e-06
1.0132161e-05
7.6380576e-06
9.0343782e-06
7.3103166e-06
7.6208088e-06
6.7690328e-06
6.7215773e-06
6.4488305e-06
6.4373914e-06
6.4060898e-06
6.480024e-06
6.5841721e-06
6.7481138e-06
6.9529689e-06
7.206413e-06
7.5052814e-06
7.8539517e-06
8.254581e-06
8.712649e-06
9.2126999e-06
9.799119e-06
1.0465124e-05
1.1221718e-05
1.2082219e-05
1.3062945e-05
1.4184075e-05
1.547022e-05
1.6951624e-05
1.8665506e-05
2.0657746e-05
2.2984909e-05
2.571678e-05
2.8939453e-05
3.2759049e-05
3.7306184e-05
4.2741923e-05
4.926323e-05
5.7540785e-05
6.7079813e-05
7.8608073e-05
9.2564327e-05
0.0001094889
0.00013002974
0.00015498081
0.00018698731
0.00022409609
0.00026920421
0.0003240367
0.00039068443
0.00047168281
0.00057010858
0.00068969968
0.00083500104
0.0010115325
0.0010264851
0.0010252696
0.0010239789
0.0010226034
0.0010211317
0.001019549
0.0010178361
0.0010159671
0.0010139074
0.0010116103
0.0010095151
0.0010077129
0.0010061709
0.0010048651
0.0010037837
0.0010029242
0.0010022623
0.0010018107
0.0010016662
0.0010015612
0.0010014585
0.0010019205
1.0556556e-06
9.0879821e-06
8.0114198e-06
6.7023813e-06
8.9622806e-06
6.6666347e-06
7.6491215e-06
6.2572702e-06
6.2998325e-06
5.7195506e-06
5.6754575e-06
5.5046931e-06
5.516324e-06
5.5324644e-06
5.6276121e-06
5.7561657e-06
5.9348846e-06
6.1529174e-06
6.4152268e-06
6.7207721e-06
7.0576918e-06
7.4561197e-06
7.9101053e-06
8.4253435e-06
9.0091234e-06
9.6703189e-06
1.0419912e-05
1.1271128e-05
1.2240043e-05
1.3346685e-05
1.4615449e-05
1.6076337e-05
1.7766318e-05
1.9731e-05
2.2026656e-05
2.472274e-05
2.7904932e-05
3.1678717e-05
3.6174e-05
4.1551485e-05
4.800856e-05
5.5782741e-05
6.5166584e-05
7.6516189e-05
9.1011671e-05
0.00010781198
0.00012820326
0.00015297776
0.00018308679
0.00022174698
0.00026654959
0.00032100815
0.00038719852
0.00046763811
0.00056538278
0.00068414881
0.00082845818
0.0010038076
0.0010256165
0.0010243888
0.0010230888
0.001021708
0.0010202362
0.0010186608
0.0010169656
0.001015129
0.0010131215
0.0010109037
0.0010089134
0.0010072059
0.0010057479
0.0010045145
0.0010034943
0.0010026796
0.0010020465
0.0010016231
0.0010014663
0.0010013201
0.0010013058
0.0010017244
1.0022664e-06
7.8540411e-06
7.3951528e-06
5.7959202e-06
7.7610348e-06
5.7757975e-06
6.4454728e-06
5.2225064e-06
5.2148725e-06
4.8183488e-06
4.7862994e-06
4.693837e-06
4.7291484e-06
4.7832884e-06
4.8984745e-06
5.0478521e-06
5.2406699e-06
5.470997e-06
5.7278546e-06
6.0371502e-06
6.3920096e-06
6.79576e-06
7.2532198e-06
7.7702924e-06
8.3543276e-06
9.0141808e-06
9.7608344e-06
1.0607508e-05
1.1570021e-05
1.2668366e-05
1.3926837e-05
1.5375348e-05
1.7050818e-05
1.8998827e-05
2.1275664e-05
2.3950847e-05
2.7110092e-05
3.0858735e-05
3.5326483e-05
4.0673795e-05
4.7098853e-05
5.4838052e-05
6.4185385e-05
7.5497217e-05
8.9205292e-05
0.00010583526
0.00012710908
0.0001518213
0.00018185801
0.00021836904
0.00026524904
0.0003195789
0.00038560924
0.0004658508
0.00056335052
0.00068181878
0.00082577318
0.0010007105
0.0010247551
0.0010235176
0.0010222106
0.0010208266
0.0010193565
0.0010177898
0.001016113
0.0010143088
0.0010123533
0.0010102119
0.0010083272
0.001006715
0.0010053418
0.0010041824
0.0010032241
0.0010024541
0.0010018532
0.0010014557
0.0010012785
0.0010011011
0.0010011506
0.0010015445
9.6511041e-07
6.5671961e-06
6.7712954e-06
4.9776292e-06
6.5769532e-06
5.0211073e-06
5.4677807e-06
4.3400803e-06
4.3053802e-06
4.0478068e-06
4.0342922e-06
4.0023169e-06
4.061218e-06
4.1464659e-06
4.2805365e-06
4.4481582e-06
4.6419118e-06
4.8808117e-06
5.1591149e-06
5.4780342e-06
5.8406748e-06
6.2507979e-06
6.7133664e-06
7.2344072e-06
7.8213365e-06
8.4829226e-06
9.2301672e-06
1.0054771e-05
1.100924e-05
1.2096972e-05
1.3341985e-05
1.477394e-05
1.6429532e-05
1.8354145e-05
2.060394e-05
2.3248366e-05
2.6373054e-05
3.0083179e-05
3.4508182e-05
4.006954e-05
4.6491041e-05
5.4228522e-05
6.3579475e-05
7.4900229e-05
8.8622369e-05
0.00010527304
0.00012549258
0.00015138646
0.00018146558
0.00021803043
0.00026247227
0.0003194962
0.00038561414
0.00046596007
0.00056358113
0.0006821956
0.00082633314
0.0010015105
0.0010239054
0.0010226608
0.0010213495
0.0010199647
0.0010184984
0.0010169416
0.0010152835
0.0010135109
0.0010116066
0.001009546
0.001007766
0.0010062475
0.0010049579
0.0010038724
0.0010029755
0.00100225
0.0010016833
0.0010013091
0.0010011109
0.001000918
0.0010010076
0.0010013714
9.4727045e-07
5.6216823e-06
6.1315619e-06
4.6901527e-06
6.1257e-06
4.1891817e-06
4.1367387e-06
3.5853965e-06
3.5491129e-06
3.3941588e-06
3.4031772e-06
3.4188054e-06
3.5005368e-06
3.6117815e-06
3.7539778e-06
3.9342362e-06
4.1511085e-06
4.403254e-06
4.692544e-06
5.0210165e-06
5.3920118e-06
5.8095774e-06
6.2787799e-06
6.8056916e-06
7.3869702e-06
8.0494048e-06
8.7958657e-06
9.6392798e-06
1.0595498e-05
1.1684031e-05
1.2928975e-05
1.436014e-05
1.6014458e-05
1.7937656e-05
2.0186399e-05
2.2830787e-05
2.5957193e-05
2.9671872e-05
3.4106057e-05
3.942068e-05
4.5810153e-05
5.3902985e-05
6.3290073e-05
7.4658618e-05
8.8440974e-05
0.00010516667
0.00012547866
0.00015015799
0.00018175551
0.00021848581
0.00026312418
0.00031737542
0.00038689658
0.00046758789
0.00056562288
0.00068473918
0.00082949279
0.0010054369
0.001023073
0.0010218243
0.0010205117
0.0010191289
0.0010176689
0.0010161237
0.0010144843
0.0010127405
0.0010108804
0.0010089165
0.0010072384
0.0010058103
0.0010046012
0.001003587
0.0010027495
0.0010020683
0.001001536
0.0010011803
0.0010009646
0.001000771
0.0010008691
0.0010011976
9.4810782e-07
5.775138e-06
5.4605628e-06
5.2074952e-06
5.3731852e-06
3.2721648e-06
3.3353954e-06
2.948981e-06
2.9241805e-06
2.8482779e-06
2.8807165e-06
2.9341515e-06
3.0372153e-06
3.1606208e-06
3.3254452e-06
3.5226667e-06
3.7532374e-06
4.0173694e-06
4.3172202e-06
4.6553635e-06
5.035329e-06
5.4613408e-06
5.9321341e-06
6.4642555e-06
7.0605274e-06
7.7296358e-06
8.4821416e-06
9.3309588e-06
1.0291957e-05
1.1384721e-05
1.2633503e-05
1.4068364e-05
1.5726584e-05
1.7654387e-05
1.990911e-05
2.2561643e-05
2.5699211e-05
2.9429368e-05
3.3885117e-05
3.9228567e-05
4.5655466e-05
5.3407302e-05
6.3254295e-05
7.4699639e-05
8.8576645e-05
0.00010541796
0.00012586993
0.00015071758
0.00018256013
0.00021953678
0.00026446843
0.00031906906
0.00038910988
0.00047031939
0.00056897949
0.0006888555
0.00083454054
0.0010116368
0.0010222642
0.0010210146
0.0010197039
0.0010183265
0.0010168758
0.0010153448
0.0010137254
0.0010120086
0.0010101843
0.0010083322
0.001006752
0.0010054096
0.001004276
0.0010033283
0.0010025464
0.0010019084
0.0010014089
0.0010010668
0.0010008392
0.0010006519
0.0010007267
0.0010010143
8.3686959e-07
5.9950311e-06
4.7437329e-06
3.6885119e-06
3.46877e-06
2.6972906e-06
2.6493939e-06
2.4341024e-06
2.4168175e-06
2.3998864e-06
2.4554571e-06
2.5384379e-06
2.6525248e-06
2.8013094e-06
2.982759e-06
3.1943438e-06
3.4372243e-06
3.7125805e-06
4.0228365e-06
4.3708964e-06
4.7604115e-06
5.1912155e-06
5.6756958e-06
6.2167789e-06
6.8216271e-06
7.4988912e-06
8.2591017e-06
9.1151742e-06
1.0083032e-05
1.1182387e-05
1.2437702e-05
1.3879366e-05
1.5545098e-05
1.7481744e-05
1.9747414e-05
2.2413809e-05
2.5569181e-05
2.9322825e-05
3.3809603e-05
3.9191937e-05
4.5666671e-05
5.3875856e-05
6.340367e-05
7.494356e-05
8.8935997e-05
0.00010591742
0.00012653854
0.00015158944
0.00018368981
0.00022095821
0.00026623841
0.00032125603
0.00039185954
0.00047368242
0.00057308519
0.00069386639
0.00084066289
0.0010191336
0.0010214861
0.0010202388
0.0010189335
0.0010175649
0.0010161271
0.0010146139
0.001013018
0.0010113317
0.0010095461
0.0010078003
0.0010063128
0.001005051
0.0010039872
0.0010030997
0.0010023676
0.0010017695
0.0010013011
0.0010009705
0.0010007297
0.0010005316
0.0010005733
0.0010008025
6.4464957e-07
5.3626302e-06
3.7444315e-06
2.6043577e-06
2.6741898e-06
2.1700172e-06
2.1214555e-06
2.0015545e-06
2.0089883e-06
2.0343623e-06
2.1132992e-06
2.2145633e-06
2.3520084e-06
2.518488e-06
2.7141827e-06
2.9384236e-06
3.1927095e-06
3.4788307e-06
3.7994099e-06
4.1575395e-06
4.5543497e-06
4.9982242e-06
5.4924875e-06
6.043097e-06
6.6571697e-06
7.3433164e-06
8.1120506e-06
8.9763062e-06
9.9520875e-06
1.1059271e-05
1.2322579e-05
1.377276e-05
1.5448046e-05
1.7395968e-05
1.9675386e-05
2.2358759e-05
2.5535574e-05
2.931713e-05
3.3839962e-05
3.9265983e-05
4.6110461e-05
5.4054654e-05
6.366417e-05
7.5303153e-05
8.9416079e-05
0.0001065431
0.00012733977
0.00015260123
0.00018493178
0.00022249616
0.00026813056
0.00032357302
0.00039469864
0.00047714109
0.00057729676
0.00069899909
0.00084693068
0.001021937
0.0010207463
0.0010195049
0.0010182083
0.0010168519
0.0010154305
0.0010139384
0.0010123695
0.0010107169
0.0010089731
0.0010073265
0.0010059254
0.0010047384
0.0010037391
0.0010029058
0.0010022174
0.0010016544
0.0010012133
0.001000892
0.0010006401
0.001000432
0.0010004348
0.0010005709
4.9827823e-07
2.8448211e-06
2.9487541e-06
2.1047638e-06
2.0469294e-06
1.7429336e-06
1.7073531e-06
1.6556117e-06
1.6876595e-06
1.7461337e-06
1.8457255e-06
1.9674198e-06
2.1217197e-06
2.302656e-06
2.510665e-06
2.7462481e-06
3.0111877e-06
3.3076264e-06
3.6382922e-06
4.0063479e-06
4.415498e-06
4.8676901e-06
5.37167e-06
5.9317555e-06
6.5550196e-06
7.2500416e-06
8.0273312e-06
8.8998614e-06
9.8837366e-06
1.0999011e-05
1.2270672e-05
1.3729851e-05
1.5415316e-05
1.7375268e-05
1.9669201e-05
2.2370325e-05
2.5569408e-05
2.9539155e-05
3.4131238e-05
3.9639918e-05
4.6270008e-05
5.427525e-05
6.3959061e-05
7.5687729e-05
8.9908964e-05
0.00010716595
0.00012811922
0.0001549159
0.0001860527
0.00022387022
0.00026980755
0.00032561404
0.00039712336
0.00048008857
0.00058088253
0.00070337027
0.00085227574
0.0010212382
0.001020054
0.0010188216
0.001017537
0.001016196
0.0010147941
0.0010133264
0.0010117874
0.0010101713
0.0010084717
0.0010069148
0.0010055922
0.0010044733
0.0010035327
0.0010027485
0.0010020995
0.0010015683
0.0010011507
0.0010008372
0.001000582
0.0010003786
0.0010003509
0.0010004213
3.9966615e-07
2.0679086e-06
2.2429207e-06
1.6481529e-06
1.581101e-06
1.4060759e-06
1.3889304e-06
1.3855594e-06
1.4409195e-06
1.5253778e-06
1.6430173e-06
1.7831217e-06
1.9513094e-06
2.1444787e-06
2.3634382e-06
2.6093621e-06
2.8842129e-06
3.1903062e-06
3.530408e-06
3.907694e-06
4.3258336e-06
4.7890791e-06
5.3024198e-06
5.8717802e-06
6.5042846e-06
7.208598e-06
7.9953623e-06
8.8777448e-06
9.8721181e-06
1.0998887e-05
1.2283484e-05
1.3757615e-05
1.5460794e-05
1.7442021e-05
1.9761632e-05
2.2494217e-05
2.5732627e-05
2.9590623e-05
3.4203965e-05
3.9738334e-05
4.6402352e-05
5.4450533e-05
6.4186618e-05
7.5977993e-05
9.0273396e-05
0.00010852573
0.00012973592
0.00015548406
0.00018674865
0.00022471757
0.000270835
0.00032994403
0.0003984926
0.00048175805
0.0005829245
0.00070587931
0.00085537649
0.001020593
0.0010194185
0.0010181981
0.0010169285
0.0010156059
0.0010142263
0.0010127854
0.0010112786
0.001009701
0.0010080471
0.0010065687
0.0010053146
0.0010042553
0.001003366
0.0010026248
0.0010020108
0.0010015084
0.0010011113
0.0010008048
0.001000551
0.0010003556
0.0010003031
0.0010003182
3.0740423e-07
1.5988779e-06
1.6677764e-06
1.2980706e-06
1.2301838e-06
1.1406454e-06
1.1438668e-06
1.1761119e-06
1.2523342e-06
1.3571746e-06
1.4896963e-06
1.6448165e-06
1.8239672e-06
2.0269649e-06
2.2549176e-06
2.5093641e-06
2.7923574e-06
3.1062884e-06
3.4539286e-06
3.838452e-06
4.263507e-06
4.7333097e-06
5.252798e-06
5.8278429e-06
6.4655147e-06
7.1744309e-06
7.9651981e-06
8.8509718e-06
9.8481412e-06
1.0977152e-05
1.2263527e-05
1.3739141e-05
1.5443697e-05
1.7426271e-05
1.9747435e-05
2.2482722e-05
2.5725553e-05
2.9588517e-05
3.4206238e-05
3.9747098e-05
4.6421567e-05
5.4882651e-05
6.4705703e-05
7.659817e-05
9.101055e-05
0.00010848978
0.00012969965
0.00015544611
0.00018670809
0.00022467166
0.00027324934
0.00032965284
0.00039815691
0.00048137607
0.00058249901
0.00070542069
0.00085490618
0.0010200121
0.0010188503
0.0010176448
0.0010163929
0.0010150911
0.001013736
0.0010123238
0.0010108508
0.0010093125
0.0010077047
0.0010062915
0.0010050944
0.0010040848
0.001003238
0.0010025324
0.0010019479
0.0010014698
0.0010010897
0.0010007899
0.0010005411
0.0010003538
0.0010002809
0.0010002514
2.0062e-07
1.2454128e-06
1.2121317e-06
1.0345859e-06
9.7348837e-07
9.4093509e-07
9.6625177e-07
1.0267894e-06
1.12239e-06
1.2444395e-06
1.3902752e-06
1.5579727e-06
1.7476898e-06
1.960211e-06
2.1969798e-06
2.4593456e-06
2.7501943e-06
3.0716268e-06
3.4264294e-06
3.8178043e-06
4.2494112e-06
4.7254217e-06
5.2507245e-06
5.8311411e-06
6.4736822e-06
7.1869093e-06
7.9813747e-06
8.8701884e-06
9.8696977e-06
1.1000319e-05
1.2287584e-05
1.3763401e-05
1.5467375e-05
1.7448322e-05
1.9841115e-05
2.2591735e-05
2.5852371e-05
2.9733918e-05
3.4371977e-05
3.99385e-05
4.664346e-05
5.4735836e-05
6.4518315e-05
7.6360787e-05
9.0710142e-05
0.00010810997
0.00012921962
0.00015622188
0.00018755302
0.0002255847
0.00027175923
0.00032783112
0.00039593662
0.00047867927
0.0005792358
0.00070148782
0.00085018625
0.0010195069
0.0010183611
0.0010171729
0.0010159408
0.0010146618
0.0010133328
0.0010119506
0.0010105118
0.0010090128
0.0010074497
0.0010060869
0.0010049338
0.0010039622
0.001003148
0.0010024696
0.0010019076
0.0010014482
0.0010010804
0.0010007861
0.0010005431
0.001000362
0.0010002716
0.001000207
2.4259876e-07
9.9752705e-07
8.8395594e-07
8.299315e-07
7.9634438e-07
7.9777954e-07
8.4126496e-07
9.2002389e-07
1.0277037e-06
1.1589395e-06
1.3111941e-06
1.4838188e-06
1.6772458e-06
1.8925966e-06
2.131396e-06
2.3955183e-06
2.6871354e-06
3.0087412e-06
3.3631734e-06
3.7536295e-06
4.1836596e-06
4.6570192e-06
5.1786213e-06
5.754284e-06
6.3909948e-06
7.0972617e-06
7.883569e-06
8.7629291e-06
9.7515623e-06
1.0869741e-05
1.2142844e-05
1.3602531e-05
1.5287947e-05
1.7247493e-05
1.9541699e-05
2.2245621e-05
2.5449432e-05
2.9261194e-05
3.3817078e-05
3.9287739e-05
4.5876468e-05
5.3826923e-05
6.3929425e-05
7.5653144e-05
8.9855624e-05
0.00010707433
0.0001279617
0.0001533101
0.00018408214
0.00022144798
0.00026683092
0.00032196362
0.00038895696
0.00047038514
0.00056939071
0.0006898156
0.00083636454
0.0010147975
0.0010179672
0.0010167986
0.0010155883
0.0010143335
0.0010130316
0.00101168
0.0010102756
0.0010088154
0.0010072964
0.0010059658
0.0010048408
0.0010038936
0.0010031
0.0010024384
0.0010018905
0.0010014421
0.0010010807
0.0010007885
0.0010005498