/*--------------------------------*- C++ -*----------------------------------*\
  =========                 |
  \\      /  F ield         | OpenFOAM: The Open Source CFD Toolbox
   \\    /   O peration     | Website:  https://openfoam.org
    \\  /    A nd           | Version:  6
     \\/     M anipulation  |
\*---------------------------------------------------------------------------*/
FoamFile
{
    version     2.0;
    format      ascii;
    class       volScalarField;
    location    "450";
    object      omega;
}
// * * * * * * * * * * * * * * * * * * * * * * * * * * * * * * * * * * * * * //

dimensions      [0 0 -1 0 0 0 0];

internalField   nonuniform List<scalar> 
16000
(
1403.1961
1508.8082
781.13989
498.30938
336.39251
257.8151
193.08852
159.74751
129.19643
110.40337
93.503784
81.377007
70.832788
62.499215
55.384952
49.535186
44.553042
40.342949
36.720701
33.602218
30.891325
28.526957
26.451787
24.623658
23.006181
21.570538
20.292306
19.151414
18.13093
17.216695
16.396762
15.661047
15.000902
14.408852
13.878398
13.403829
12.980065
12.602541
12.267107
11.969942
11.707514
11.476606
11.274207
11.097489
10.943813
10.810733
10.695966
10.597412
10.513172
10.441565
10.381165
10.330874
10.290125
10.259495
10.238751
10.2257
10.21753
10.211202
10.204626
10.196626
10.186689
10.174442
10.159724
10.142076
10.121404
10.098548
10.075268
10.053839
10.035014
10.019298
10.005527
9.9956122
9.9856213
9.9814859
9.975024
9.9839877
9.9801494
10.017755
9.9896502
10.029373
1314.0346
1550.0854
783.12911
505.61817
338.25972
261.55621
194.65476
161.78399
130.33469
111.49405
94.204092
81.915349
71.184482
62.731063
55.560855
49.676778
44.663104
40.430677
36.790178
33.657796
30.93605
28.563427
26.481984
24.649111
23.028089
21.58983
20.309708
19.167473
18.146045
17.231127
16.410672
15.674524
15.013996
14.421571
13.890722
13.415729
12.991506
12.613493
12.277551
11.979862
11.716881
11.485403
11.282428
11.105132
10.950882
10.817239
10.701926
10.602837
10.518066
10.445908
10.384894
10.333825
10.291868
10.258808
10.235742
10.221177
10.212327
10.205865
10.199441
10.192224
10.183767
10.172813
10.1593
10.142706
10.122792
10.100229
10.076841
10.055074
10.036082
10.020041
10.006314
9.9958727
9.9865766
9.982282
9.9758969
9.9822002
9.9794447
10.014201
9.9902358
10.030172
1089.611
1590.3913
782.85705
512.09347
339.41376
264.79213
195.86469
163.48344
131.24133
112.3231
94.708177
82.229173
71.347705
62.858233
55.645184
49.734728
44.698394
40.450333
36.798181
33.657393
30.929877
28.553456
26.469816
24.635855
23.01461
21.576758
20.29751
19.156466
18.13643
17.222991
16.404011
15.669278
15.010079
14.418867
13.889103
13.41506
12.991653
12.614325
12.278956
11.981747
11.719134
11.487924
11.285135
11.107955
10.953751
10.820104
10.704742
10.605564
10.520662
10.448319
10.387045
10.335591
10.293005
10.258776
10.233255
10.216964
10.207284
10.200597
10.194152
10.187008
10.178958
10.169575
10.157514
10.142223
10.123309
10.101264
10.077903
10.055918
10.036784
10.020564
10.006874
9.9961814
9.9872311
9.9828286
9.9768596
9.9814725
9.979514
10.011104
9.9904874
10.027558
1115.9189
1625.7908
780.82566
517.68119
339.96413
267.44551
196.77849
164.77554
131.92371
112.83206
94.996693
82.333291
71.392641
62.874304
55.633436
49.704651
44.655426
40.398835
36.742146
33.598829
30.870982
28.495537
26.414028
24.582871
22.964932
21.530685
20.255223
19.118031
18.101832
17.192126
16.376695
15.64529
14.989186
14.400817
13.873641
13.401937
12.98063
12.605168
12.271455
11.975722
11.714386
11.484273
11.28242
11.106033
10.952484
10.819373
10.704446
10.605609
10.520959
10.448779
10.387565
10.336044
10.293197
10.258338
10.231317
10.21307
10.202397
10.195421
10.188914
10.181749
10.173766
10.164726
10.154109
10.140405
10.122779
10.101512
10.078355
10.056272
10.037076
10.020787
10.007137
9.9963228
9.9876663
9.9827689
9.9778031
9.9814921
9.9798355
10.007468
9.9908883
10.026161
1139.9877
1653.6451
777.40616
522.27248
339.93701
269.43606
197.40249
165.60025
132.37022
112.97289
95.037589
82.292823
71.318622
62.778888
55.524884
49.586112
44.533624
40.275783
36.62167
33.481813
30.759106
28.389463
26.314469
24.490058
22.878989
21.451581
20.182851
19.052202
18.04231
17.138612
16.328827
15.602678
14.951449
14.367567
13.844492
13.376521
12.958596
12.586181
12.255204
11.961942
11.70279
11.474594
11.27442
11.099495
10.947198
10.815155
10.701136
10.603057
10.519033
10.447346
10.386493
10.335188
10.29238
10.257294
10.229555
10.209517
10.197661
10.190325
10.183731
10.176512
10.16852
10.159572
10.149348
10.137164
10.121139
10.100943
10.078188
10.056127
10.036958
10.020698
10.007141
9.9963193
9.9879068
9.9827257
9.9785752
9.981401
9.9803685
10.004177
9.9915099
10.023218
1161.7898
1670.3754
773.09577
525.74349
339.37571
270.66306
197.75134
165.87816
132.56417
112.831
94.869585
82.105225
71.123024
62.569844
55.317387
49.377448
44.331432
40.079922
36.435643
33.305428
30.593472
28.234606
26.170622
24.356999
22.756456
21.339203
20.080219
18.958861
17.957795
17.062423
16.260417
15.541481
14.896931
14.319195
13.80175
13.338916
12.925665
12.557479
12.230311
11.940517
11.684453
11.45899
11.261229
11.088431
10.937976
10.807525
10.694877
10.597966
10.514928
10.444057
10.383852
10.333028
10.290515
10.25549
10.227442
10.206343
10.193072
10.185293
10.178593
10.171298
10.163265
10.154336
10.144265
10.132599
10.11832
10.099525
10.077399
10.055485
10.036438
10.020299
10.006885
9.9961509
9.9879618
9.9826463
9.9791517
9.981169
9.980994
10.001684
9.9921219
10.021336
1181.3425
1673.0257
768.26067
527.92212
338.33331
271.00384
197.83952
165.51637
132.46584
112.49178
94.554126
81.770775
70.805017
62.247178
55.010494
49.078628
44.048681
39.811253
36.184088
33.069818
30.374256
28.03121
25.982767
24.184033
22.597708
21.193956
19.947758
18.83846
17.848753
16.964036
16.17195
15.462184
14.826112
14.256178
13.745877
13.289568
12.882264
12.519467
12.197152
11.911794
11.659695
11.437753
11.243111
11.073077
10.925028
10.796666
10.685829
10.590472
10.508762
10.439007
10.379718
10.329614
10.287623
10.252895
10.224848
10.203271
10.188632
10.180308
10.173488
10.166101
10.158006
10.149064
10.139066
10.127673
10.114238
10.097225
10.075988
10.054349
10.03552
10.019592
10.006384
9.9958178
9.9878456
9.9825336
9.9795408
9.9808064
9.9816204
9.9994894
9.9927057
10.019196
1198.7257
1666.2275
762.6928
528.60148
336.88474
270.32241
197.68513
164.82349
132.00978
111.95977
94.092015
81.291671
70.3648
61.811842
54.604346
48.690138
43.685582
39.470103
35.867286
32.775317
30.101824
27.779672
25.751342
23.971631
22.403244
21.016372
19.786025
18.691573
17.715766
16.844039
16.064017
15.365375
14.739571
14.179077
13.677419
13.228998
12.828887
12.472616
12.156158
11.876169
11.628881
11.411216
11.220362
11.053699
10.90859
10.782784
10.674172
10.580728
10.500663
10.432303
10.374176
10.325014
10.283746
10.249514
10.221687
10.199932
10.184357
10.175355
10.168403
10.160913
10.152743
10.143767
10.133801
10.122572
10.109611
10.094012
10.07397
10.052736
10.034225
10.018594
10.005657
9.9953282
9.9875817
9.9823777
9.9797739
9.9804584
9.9821953
9.9974003
9.9931341
10.017272
1214.087
1660.7582
755.94649
527.60863
335.12304
268.54623
197.26701
163.87211
131.31624
111.24396
93.485484
80.672143
69.803792
61.266051
54.100063
48.213296
43.243117
39.057427
35.486136
32.422826
29.777061
27.480886
25.477243
23.72071
22.173999
20.807394
19.595966
18.519144
17.55977
16.703356
15.937531
15.251941
14.638168
14.08872
13.597163
13.15795
12.76623
12.417582
12.107924
11.834188
11.592507
11.379827
11.193379
11.030649
10.888972
10.766148
10.660137
10.568932
10.490797
10.424082
10.367339
10.319315
10.27895
10.245382
10.21796
10.196281
10.180281
10.17042
10.163325
10.155725
10.147473
10.13845
10.128496
10.117375
10.104714
10.089845
10.071368
10.050674
10.032576
10.017324
10.004728
9.9946976
9.9871997
9.9821844
9.9798795
9.9802214
9.9827005
9.9954552
9.9934695
10.015211
1227.5942
1656.2438
748.29969
524.73079
333.12582
266.38314
196.52139
162.6876
130.46973
110.35254
92.735507
79.916057
69.12309
60.611749
53.498701
47.649402
42.722337
38.57429
35.041689
32.013436
29.40108
27.135992
25.16163
23.432453
21.911169
20.568227
19.378793
18.322377
17.38195
16.543147
15.793631
15.122986
14.52296
13.986118
13.50607
13.077324
12.695127
12.355155
12.053157
11.786492
11.551152
11.344108
11.162619
11.004331
10.866529
10.747064
10.643988
10.555305
10.47935
10.414501
10.359335
10.312621
10.273312
10.240554
10.213682
10.192252
10.176098
10.165489
10.158245
10.150533
10.142193
10.133119
10.123164
10.112125
10.099697
10.085382
10.068217
10.048203
10.030608
10.015814
10.003625
9.9939479
9.9867314
9.9819625
9.9798879
9.9800844
9.9831333
9.9937148
9.9937051
10.013146
1239.4549
1652.2424
739.83481
519.63067
330.9143
263.88074
195.33604
161.28762
129.47087
109.29372
91.843005
79.027243
68.323961
59.850967
52.801564
46.999944
42.124601
38.022005
34.535336
31.548581
28.975355
26.746485
24.806025
23.108422
21.616326
20.300446
19.136077
18.102827
17.183821
16.364881
15.633749
14.979883
14.395259
13.872513
13.405309
12.988209
12.616574
12.28628
11.992691
11.733834
11.505494
11.304671
11.12861
10.975212
10.84167
10.72588
10.626027
10.540102
10.466535
10.403736
10.350309
10.305047
10.266926
10.235097
10.208895
10.187843
10.171697
10.160555
10.153156
10.145331
10.136905
10.127777
10.117817
10.106845
10.094607
10.080721
10.064557
10.04537
10.028363
10.0141
10.002381
9.9931071
9.9862109
9.9817272
9.9798361
9.9800383
9.9835028
9.9922682
9.9939229
10.011059
1249.9233
1648.1456
730.73732
511.96313
328.48817
261.1033
193.75181
159.69218
128.32008
108.07635
90.809362
78.009584
67.407959
58.985729
52.010092
46.266515
41.451508
37.40209
33.962213
31.0232
28.495045
26.307894
24.4064
22.745079
21.286398
20.001412
18.865565
17.85858
16.963755
16.167166
15.456734
14.821665
14.254253
13.747231
13.294331
12.890158
12.530171
12.210702
11.927476
11.677063
11.456288
11.262204
11.091936
10.943803
10.814847
10.70298
10.606582
10.523599
10.452581
10.391975
10.340415
10.296722
10.259892
10.22909
10.203654
10.18309
10.167091
10.155614
10.148053
10.14012
10.13161
10.122432
10.112467
10.101557
10.089482
10.075929
10.060433
10.042237
10.025891
10.012225
10.001035
9.9922073
9.9856721
9.9814973
9.9797635
9.9800722
9.9838136
9.9911654
9.9941572
10.009373
1259.2648
1643.0861
721.17672
503.79631
325.78127
258.109
192.07629
157.91702
127.01427
106.70649
89.634372
76.865122
66.375691
58.017066
51.11357
45.435645
40.689248
36.702863
33.323421
30.440186
27.964151
25.824817
23.967641
22.347462
20.926406
19.676037
18.572016
17.594204
16.726079
15.954044
15.266413
14.651896
14.103241
13.613307
13.175927
12.78573
12.43814
12.130036
11.857022
11.615771
11.403192
11.216477
11.053227
10.910656
10.786553
10.678769
10.586011
10.506092
10.437735
10.379421
10.329819
10.28778
10.252318
10.222618
10.198023
10.178034
10.162301
10.150669
10.142936
10.134903
10.126316
10.117094
10.10713
10.096283
10.084363
10.071104
10.05613
10.038872
10.023251
10.010238
9.9996251
9.9912833
9.9851465
9.9812928
9.9797053
9.9801736
9.9840525
9.9903569
9.994383
10.007954
1267.7884
1635.9432
711.29099
495.18729
322.64366
254.93728
190.30293
155.9796
125.55166
105.19046
88.318868
75.595915
65.202396
56.917004
50.105339
44.508384
39.843019
35.930778
32.621278
29.802072
27.385456
25.300147
23.492647
21.918549
20.539313
19.327233
18.258275
17.312462
16.473425
15.72792
15.065116
14.472748
13.94423
13.472584
13.051794
12.676556
12.341969
12.045855
11.783573
11.551921
11.347879
11.168623
11.012124
10.875473
10.756592
10.653676
10.564695
10.487897
10.422254
10.366287
10.318695
10.27836
10.24432
10.215772
10.192071
10.17272
10.157351
10.145733
10.13781
10.129686
10.121034
10.111777
10.101821
10.091044
10.07928
10.066304
10.051806
10.03535
10.020504
10.008191
9.998194
9.9903708
9.9846634
9.9811341
9.9796929
9.9803376
9.9842133
9.9896325
9.9945922
10.006832
1275.7953
1625.0457
701.2117
486.18398
318.76727
251.62348
188.41695
153.89439
123.92904
103.53177
86.818921
74.145258
63.877068
55.688156
48.985535
43.48578
38.914722
35.088241
31.858708
29.11201
26.762455
24.737513
22.984964
21.461985
20.128709
18.958482
17.927699
17.016596
16.208892
15.491491
14.853146
14.284411
13.777307
13.325054
12.921845
12.562666
12.243156
11.959497
11.708313
11.486566
11.291365
11.119655
10.970083
10.839466
10.725749
10.627418
10.54245
10.469346
10.406412
10.352794
10.307221
10.268608
10.236013
10.208646
10.18587
10.167199
10.152258
10.140793
10.132685
10.124485
10.115778
10.106498
10.096562
10.085862
10.074259
10.061561
10.047508
10.031753
10.017717
10.006137
9.9967833
9.9895047
9.9842486
9.9810424
9.9797564
9.9805646
9.984325
9.9890768
9.9947112
10.005912
1283.5648
1607.8934
691.0433
476.8377
314.90848
248.19853
186.3943
151.67171
122.14175
101.63499
85.103143
72.515229
62.39602
54.329029
47.754462
42.369339
37.907001
34.178495
31.039666
28.374098
26.099681
24.141613
22.448961
20.978411
19.694912
18.569862
17.580217
16.706502
15.932487
15.245568
14.634773
14.090908
13.606226
13.17416
12.789095
12.446189
12.141226
11.870513
11.630808
11.419276
11.233382
11.070356
10.9278
10.803315
10.694702
10.60094
10.519857
10.450237
10.390492
10.339172
10.295581
10.258669
10.227516
10.201337
10.179498
10.161524
10.147042
10.135781
10.127578
10.119316
10.11057
10.101281
10.091376
10.080764
10.069326
10.056905
10.043282
10.028162
10.014958
10.004126
9.995433
9.9887165
9.9839229
9.9810357
9.9799218
9.9808659
9.9844019
9.9886371
9.9946718
10.005086
1291.3253
1580.6564
680.84388
467.11934
311.20533
244.6933
184.20339
149.24543
120.01995
99.479615
83.159262
70.698405
60.755348
52.838531
46.413463
41.161799
36.824078
33.206225
30.169785
27.593719
25.396967
23.51207
21.885524
20.474648
19.24506
18.168467
17.222685
16.388759
15.650249
14.995271
14.413188
13.895108
13.433563
13.022236
12.65574
12.329434
12.03927
11.781683
11.553518
11.352053
11.1752
11.020166
10.88478
10.766716
10.663969
10.574749
10.497374
10.43106
10.374286
10.325665
10.283966
10.248693
10.218946
10.193945
10.173037
10.155765
10.141758
10.130737
10.122509
10.114204
10.105437
10.096155
10.086293
10.075777
10.06451
10.052366
10.039168
10.024659
10.012291
10.002209
9.9941788
9.9880319
9.9837013
9.9811262
9.9802025
9.9812577
9.9844967
9.9882881
9.9945322
10.004324
1299.2291
1537.2363
670.51182
456.93484
307.55293
241.13412
181.87265
146.43733
117.55304
97.045
80.972493
68.686169
58.951502
51.216729
44.965835
39.867835
35.672648
32.17797
29.247169
26.770797
24.663577
22.858879
21.304083
19.95736
18.785432
17.759997
16.860136
16.068079
15.366415
14.744391
14.191765
13.700004
13.261958
12.871601
12.523808
12.214171
11.938847
11.694424
11.477807
11.286111
11.118128
10.970815
10.842376
10.730455
10.633086
10.548595
10.475439
10.412194
10.358192
10.312082
10.272587
10.238836
10.210421
10.186569
10.166573
10.149993
10.136465
10.125707
10.117509
10.109181
10.100412
10.091154
10.081352
10.07094
10.059844
10.047968
10.035188
10.021321
10.009779
10.000433
9.9930517
9.9874681
9.9835911
9.9813204
9.9805966
9.9817351
9.9846676
9.9881353
9.9944083
10.003558
1307.1576
1481.9938
659.49183
446.10438
303.78585
237.7363
179.62236
143.20009
114.6955
94.301616
78.524289
66.468568
56.981705
49.465562
43.418052
38.494541
34.447658
31.091775
28.28484
25.918562
23.90908
22.191049
20.713037
19.434074
18.323166
17.350877
16.497785
15.746403
15.08237
14.493847
13.971041
13.505814
13.091374
12.722013
12.392893
12.099869
11.839338
11.608121
11.403368
11.222499
11.063151
10.923076
10.80128
10.695282
10.603067
10.523056
10.453806
10.39401
10.342497
10.298748
10.261275
10.229276
10.202055
10.179307
10.160191
10.144281
10.131226
10.120742
10.112612
10.104283
10.095534
10.086321
10.076595
10.0663
10.055373
10.043741
10.031321
10.018218
10.007477
9.9988367
9.9920769
9.9870328
9.983589
9.9816149
9.9810872
9.9822669
9.9849168
9.9881779
9.9942408
10.002732
1314.8448
1427.9651
648.32924
438.08217
301.74876
233.94155
176.12342
139.45157
111.39836
91.215481
75.797118
64.039957
54.848875
47.592411
41.763155
37.038394
33.167931
29.967159
27.296428
25.049648
23.145058
21.519133
20.122212
18.912816
17.861976
16.944442
16.139719
15.431094
14.804879
14.249825
13.756645
13.317651
12.92644
12.577646
12.266737
11.989835
11.743581
11.525001
11.331426
11.160433
11.009858
10.877692
10.762042
10.661681
10.574357
10.498574
10.432965
10.376291
10.32744
10.285906
10.250304
10.219875
10.193958
10.172255
10.153973
10.138705
10.126107
10.115898
10.107859
10.099552
10.090847
10.081702
10.072075
10.061913
10.051162
10.039759
10.027631
10.015407
10.005432
9.9974579
9.9912767
9.9867302
9.9836847
9.9819941
9.9816466
9.982825
9.9852366
9.9883494
9.9939648
10.001778
1321.8534
1398.9871
639.46799
438.56668
301.3815
228.46667
171.98068
135.09091
107.60598
87.762891
72.783891
61.406696
52.567687
45.594573
40.025788
35.527774
31.853838
28.822758
26.298722
24.178997
22.384696
20.854443
19.53779
18.400443
17.412553
16.550105
15.793662
15.127416
14.538451
14.016175
13.551871
13.138332
12.76957
12.440579
12.147136
11.885641
11.652979
11.446403
11.263426
11.101704
10.959199
10.834075
10.725148
10.630075
10.547332
10.47551
10.413316
10.359572
10.313227
10.273755
10.239898
10.210935
10.186235
10.165505
10.148004
10.133339
10.121176
10.111236
10.103294
10.095034
10.086396
10.077345
10.067841
10.057838
10.047289
10.036137
10.024321
10.01293
10.003678
9.996326
9.9906754
9.9865733
9.9838769
9.9824413
9.9822573
9.9834182
9.9855828
9.9884202
9.9935258
10.000552
1326.8189
1396.9485
631.69294
434.68632
296.70621
222.39693
166.88923
130.15466
103.29772
83.947053
69.499257
58.592311
50.139042
43.510102
38.237731
33.991491
30.53115
27.681272
25.311429
23.323519
21.642744
20.207122
18.973939
17.908677
16.983191
16.174899
15.465567
14.8404
14.287331
13.796486
13.35975
12.970426
12.622954
12.312686
12.035704
11.788668
11.5687
11.373302
11.200307
11.047306
10.912291
10.794332
10.69103
10.600829
10.522299
10.454117
10.395068
10.344024
10.30003
10.262444
10.230184
10.202567
10.178988
10.159146
10.142361
10.128255
10.116503
10.106834
10.098967
10.090776
10.08223
10.073296
10.063939
10.05412
10.043795
10.032917
10.021434
10.010818
10.002237
9.9954587
9.9902928
9.9865853
9.9841878
9.9829675
9.9829163
9.9840438
9.9859808
9.9885592
9.9931268
9.9991215
1327.4734
1415.4879
622.17592
424.04191
290.54896
215.13676
160.79387
124.51325
98.457117
79.769699
65.964049
55.605345
47.619477
41.383183
36.438421
32.464147
29.229988
26.568642
24.356402
22.500592
20.930832
19.593044
18.441988
17.446988
16.581808
15.825446
15.160976
14.574683
14.055401
13.594004
13.183003
12.81622
12.488529
12.195638
11.933915
11.700236
11.491868
11.30639
11.142672
10.997941
10.870375
10.758284
10.660092
10.574296
10.49955
10.434625
10.378415
10.329733
10.288023
10.252115
10.22128
10.194871
10.172322
10.15327
10.137122
10.123516
10.112139
10.102726
10.094933
10.086834
10.078402
10.069607
10.060419
10.050803
10.040723
10.030137
10.019002
10.009085
10.001109
9.9948504
9.9901215
9.986766
9.9846322
9.9836005
9.9836542
9.9847389
9.9865175
9.9889639
9.9930788
9.9982881
1320.8297
1378.3208
612.65952
412.31409
282.37356
206.56653
153.66644
118.20279
93.159684
75.323914
62.276399
52.542833
45.083023
39.275153
34.678946
30.988518
27.986502
25.515935
23.461127
21.735692
20.274211
19.0265
17.953605
17.024949
16.216302
15.508296
14.885344
14.334824
13.846475
13.411916
13.024277
12.677901
12.368095
12.09094
11.843113
11.621752
11.42434
11.248685
11.092813
10.954902
10.833259
10.726337
10.632714
10.550838
10.479413
10.417237
10.363694
10.317372
10.277382
10.24292
10.213293
10.187896
10.166342
10.147968
10.132368
10.119191
10.108137
10.098947
10.091248
10.083262
10.074963
10.066327
10.057326
10.047931
10.038109
10.027828
10.017049
10.00774
10.00029
9.9944811
9.9901303
9.9870778
9.9851732
9.9843073
9.9844451
9.9854871
9.9871535
9.9895083
9.9932373
9.9977746
1303.6919
1322.6444
602.99069
398.00666
272.33604
196.83222
145.66238
111.39537
87.592643
70.782776
58.588192
49.530838
42.628601
37.264314
33.02212
29.615265
26.841255
24.555692
22.6519
21.050463
19.691401
18.528792
17.527028
16.658169
15.900068
15.235013
14.64873
14.129653
13.668368
13.257183
12.889788
12.560987
12.266478
12.002672
11.766541
11.555497
11.367088
11.199277
11.050205
10.91814
10.80147
10.698702
10.609125
10.53079
10.462462
10.403025
10.351454
10.306823
10.268304
10.235066
10.206435
10.182048
10.161168
10.143346
10.12819
10.115363
10.10457
10.095561
10.087974
10.080119
10.071972
10.06351
10.05471
10.045547
10.035993
10.02602
10.015598
10.006791
9.9997743
9.9943356
9.9902931
9.9874859
9.9857679
9.9850363
9.9852355
9.9862411
9.9878355
9.9901173
9.9935185
9.9975007
1271.1843
1266.4823
594.10769
381.07239
260.08425
185.78027
136.74815
104.1393
81.847919
66.237043
54.977879
46.633625
40.294516
35.374701
31.484895
28.359244
25.804503
23.694468
21.932182
20.445628
19.180496
18.095225
17.157566
16.342192
15.628995
15.001858
14.447768
13.956155
13.518396
13.127428
12.777447
12.463659
12.182081
11.929369
11.70268
11.50044
11.319727
11.158649
11.015466
10.888559
10.77644
10.677728
10.591111
10.51536
10.44922
10.391614
10.341555
10.29814
10.26089
10.228749
10.201075
10.177301
10.156928
10.139518
10.124693
10.112121
10.101518
10.092638
10.085174
10.077466
10.069484
10.061208
10.052619
10.043693
10.034409
10.024741
10.014663
10.006241
9.9995551
9.9943964
9.9905843
9.9879579
9.9863763
9.985739
9.9859716
9.9869413
9.9884853
9.9906988
9.9938207
9.9973567
1220.5426
1199.1848
583.75324
362.08867
245.38937
173.98474
127.85762
97.435802
76.835328
62.438005
52.041845
44.331983
38.468036
33.908732
30.295768
27.384767
25.004868
23.03401
21.383318
19.98693
18.795215
17.77016
16.882186
16.108061
15.429318
14.831131
14.301506
13.830682
13.410682
13.034964
12.698146
12.395781
12.124175
11.880227
11.661301
11.465044
11.289466
11.132771
10.993297
10.869513
10.760006
10.663442
10.578547
10.5047
10.440199
10.384011
10.335184
10.292852
10.25623
10.224614
10.197378
10.173965
10.153887
10.136714
10.122073
10.109638
10.099125
10.090292
10.082928
10.075379
10.067573
10.059492
10.051119
10.042434
10.033419
10.024053
10.014316
10.006138
9.9996621
9.9946784
9.9910061
9.9884849
9.9869783
9.9863848
9.986614
9.9875356
9.9890361
9.9911985
9.9941176
9.9973502
1161.4272
1121.3156
556.20097
336.02242
222.90933
156.40717
115.07709
88.208361
70.168134
57.578134
48.472714
41.663786
36.439367
32.343861
29.073316
26.419071
24.234355
22.413728
20.879963
19.575485
18.456685
17.489777
16.648671
15.912666
15.265187
14.692835
14.184699
13.731851
13.326954
12.963963
12.637885
12.344578
12.080587
11.842995
11.630114
11.439012
11.267822
11.114854
10.978544
10.857464
10.750275
10.655698
10.572517
10.499585
10.435825
10.380237
10.331895
10.289955
10.253649
10.222288
10.195256
10.172007
10.152058
10.134986
10.120422
10.108041
10.097565
10.088751
10.081388
10.074003
10.066371
10.058477
10.050305
10.041838
10.033059
10.023951
10.014494
10.006434
10.000055
9.9951468
9.9915265
9.9890343
9.9875358
9.9869234
9.9870956
9.9879378
9.9893734
9.9914295
9.9940794
9.9970164
1121.7614
1161.7434
567.5882
339.86277
223.64662
155.89928
114.26954
87.583523
69.768747
57.348282
48.35097
41.620416
36.451419
32.392877
29.145387
26.504071
24.325121
22.505327
20.969113
19.660108
18.535502
17.562547
16.71546
15.973755
15.320956
14.743702
14.23109
13.774179
13.365611
12.999317
12.670279
12.374333
12.108002
11.868362
11.652931
11.459531
11.286184
11.131167
10.992933
10.870064
10.761217
10.665115
10.580544
10.506356
10.441473
10.384887
10.335667
10.292959
10.255988
10.224052
10.196528
10.172858
10.152551
10.135174
10.120351
10.107749
10.097084
10.088105
10.080597
10.0734
10.065964
10.058275
10.050315
10.042071
10.033525
10.024661
10.015462
10.007278
10.000804
9.9958208
9.9921387
9.9895928
9.988044
9.9873755
9.9874794
9.9882547
9.9896345
9.9915945
9.9940657
9.9968817
1153.6917
1226.9398
588.98204
355.15313
233.16338
162.51624
118.82859
90.847684
72.16503
59.1594
49.749161
42.718932
37.325525
33.095498
29.715016
26.969544
24.708408
22.823394
21.235192
19.884614
18.726729
17.726865
16.857808
16.097987
15.430118
14.840223
14.316913
13.850861
13.434397
13.061199
12.726044
12.424598
12.153248
11.908968
11.689204
11.491781
11.314809
11.156519
11.015328
10.889784
10.778513
10.680219
10.593673
10.517716
10.451256
10.393272
10.342821
10.299034
10.261121
10.228371
10.200142
10.175868
10.155045
10.13723
10.122036
10.109124
10.098199
10.089006
10.081324
10.074343
10.067128
10.059664
10.051937
10.043931
10.035631
10.02702
10.018083
10.009512
10.002707
9.9974389
9.9935103
9.9907507
9.9890144
9.9881761
9.9881247
9.988765
9.9900242
9.9918442
9.9941537
9.9968766
30748.93
33743.089
19244.117
13235.185
9532.2437
6910.2548
5024.8235
3676.6193
2709.8767
2014.5349
1505.986
1133.8776
856.16746
653.26033
495.65629
378.87866
286.89029
217.90798
166.79506
129.26559
101.40607
80.928081
65.785
54.561443
46.18935
39.863317
35.019211
31.223568
28.208219
25.749021
23.693404
21.946813
20.442269
19.132322
17.98283
16.968843
16.071574
15.276398
14.571634
13.947789
13.396705
12.911125
12.484718
12.111832
11.78725
11.506138
11.264052
11.057154
10.881881
10.7349
10.613745
10.514581
10.43341
10.36835
10.318104
10.281488
10.255895
10.237769
10.223598
10.211499
10.199053
10.186733
10.17107
10.155549
10.133033
10.114064
10.082849
10.063206
10.030181
10.016402
9.991
9.9854196
9.960843
9.9687014
9.9432489
9.9713234
9.9456279
9.9920308
9.9574337
9.9933504
33793.372
28808.582
21898.263
16483.671
12131.052
8781.9037
6337.6829
4583.5652
3334.59
2442.765
1800.8867
1334.1848
992.76054
741.0826
555.0233
417.1086
314.74672
238.8988
182.69466
141.10411
110.20437
87.394283
70.517368
58.047728
48.775968
41.800911
36.485961
32.342185
29.080838
26.447831
24.25935
22.409171
20.823097
19.447794
18.245107
17.187255
16.253479
15.4277
14.697182
14.051634
13.482235
12.981224
12.541851
12.158101
11.824453
11.535823
11.287485
11.07542
10.895913
10.745405
10.621475
10.519311
10.435688
10.368587
10.317251
10.280229
10.254546
10.236574
10.222666
10.210893
10.198737
10.186746
10.171309
10.156089
10.133667
10.11493
10.083663
10.064025
10.031292
10.017678
9.9919392
9.9866674
9.9618278
9.9698365
9.9443728
9.9722355
9.9469203
9.9931145
9.958659
9.9947927
37214.768
20466.04
13076.566
8195.8153
4428.9946
2100.8537
953.17269
463.00374
267.7168
184.64925
145.1346
120.61148
104.26742
90.97513
80.596519
72.195897
64.764242
58.829057
53.280911
48.81017
44.547982
41.038444
37.734532
34.943947
32.381269
30.074782
27.983988
26.043344
24.336051
22.773997
21.348165
20.063039
18.906406
17.864898
16.927562
16.084847
15.328315
14.650257
14.044039
13.503783
13.023742
12.598645
12.223835
11.894946
11.60781
11.358465
11.143165
10.958932
10.802768
10.671682
10.563735
10.473506
10.399407
10.340429
10.296669
10.26591
10.244825
10.22994
10.217745
10.207064
10.195243
10.183714
10.167965
10.153152
10.129939
10.112066
10.07958
10.061847
10.028437
10.017206
9.9903476
9.9871391
9.9609936
9.9710755
9.9440929
9.9740448
9.9471187
9.9949807
9.9591544
9.9963259
34448.384
23927.52
13816.418
7454.307
3302.8783
1260.3433
503.48528
265.52857
189.22556
151.74412
129.89698
111.46098
98.45424
86.476631
77.263746
69.622356
62.595585
57.168873
51.782371
47.625428
43.435074
40.15842
36.863666
34.265734
31.676486
29.514575
27.414767
25.559133
23.874156
22.348879
20.97497
19.73731
18.622609
17.618386
16.714006
15.90033
15.169323
14.513677
13.92713
13.404051
12.938936
12.526843
12.163344
11.844247
11.565547
11.323447
11.114333
10.935402
10.78375
10.656471
10.550931
10.46233
10.389614
10.332723
10.290856
10.261611
10.241659
10.227576
10.215917
10.205608
10.194041
10.182689
10.167065
10.15232
10.129187
10.111322
10.079018
10.061636
10.028623
10.018027
9.9907956
9.9882975
9.9616847
9.9724727
9.9450708
9.9755544
9.9481778
9.9967128
9.9601936
9.9979204
36487.5
23431.951
13290.366
6939.6667
2977.4745
1097.9587
446.04275
247.84997
182.38528
146.98792
125.96008
107.95235
95.445685
83.938048
75.473845
67.65623
61.289841
55.546946
50.700225
46.351487
42.580036
39.16799
36.180533
33.46028
31.043719
28.833312
26.842099
25.03785
23.410378
21.943813
20.622815
19.431812
18.357576
17.388646
16.51507
15.728328
15.020905
14.385945
13.81756
13.310361
12.859105
12.459137
12.106215
11.796297
11.525535
11.290267
11.087003
10.913097
10.765729
10.642069
10.538565
10.45146
10.380408
10.325664
10.2856
10.257765
10.238878
10.22551
10.21436
10.204348
10.193044
10.181782
10.166334
10.151542
10.128594
10.110571
10.078654
10.061237
10.028784
10.018076
9.9912654
9.988458
9.9624616
9.972964
9.9460236
9.9764743
9.9492143
9.9981379
9.961216
9.9993658
37070.709
23025.06
12824.011
6334.2364
2463.3402
840.41105
360.41833
221.75199
173.58284
141.28508
122.24087
104.45167
92.626464
81.326258
73.306378
65.670648
59.579321
53.999534
49.349884
45.145792
41.503212
38.235798
35.336767
32.727645
30.380429
28.258007
26.330161
24.584728
23.011528
21.593453
20.31519
19.161894
18.121111
17.181856
16.334625
15.571296
14.884658
14.268157
13.716141
13.223345
12.784757
12.395943
12.052795
11.751401
11.488036
11.259154
11.06137
10.892186
10.748848
10.628432
10.526669
10.440945
10.37209
10.31939
10.280994
10.254452
10.236529
10.223801
10.21309
10.20333
10.19224
10.181043
10.165731
10.15088
10.128082
10.109901
10.078408
10.061004
10.029102
10.018635
9.9918554
9.989328
9.9632763
9.9739192
9.9470228
9.9775599
9.9502747
9.9996285
9.962249
10.000824
38039.751
22676.622
12308.735
5764.0112
2120.9441
705.16773
322.35036
211.11416
168.84371
138.23952
119.60177
102.13265
90.567559
79.377198
71.628009
64.092091
58.216275
52.765397
48.266727
44.168987
40.637703
37.452027
34.638404
32.097435
29.819222
27.753082
25.879223
24.183846
22.656128
21.279006
20.037562
18.917214
17.905899
16.992987
16.169276
15.426952
14.759051
14.15927
13.622127
13.142472
12.715514
12.336983
12.002879
11.7094
11.452926
11.230011
11.037359
10.87261
10.733061
10.615385
10.515176
10.431277
10.36469
10.313888
10.277021
10.251656
10.234598
10.22243
10.212095
10.202534
10.191619
10.180448
10.165249
10.15031
10.127654
10.109286
10.078259
10.060834
10.02938
10.018663
9.9923432
9.9895137
9.9641221
9.9746459
9.9480099
9.9785525
9.9513378
10.001081
9.9632822
10.002259
38832.361