/*--------------------------------*- C++ -*----------------------------------*\
  =========                 |
  \\      /  F ield         | OpenFOAM: The Open Source CFD Toolbox
   \\    /   O peration     | Website:  https://openfoam.org
    \\  /    A nd           | Version:  6
     \\/     M anipulation  |
\*---------------------------------------------------------------------------*/
FoamFile
{
    version     2.0;
    format      ascii;
    class       volScalarField;
    location    "450";
    object      p;
}
// * * * * * * * * * * * * * * * * * * * * * * * * * * * * * * * * * * * * * //

dimensions      [1 -1 -2 0 0 0 0];

internalField   nonuniform List<scalar> 
16000
(
98941.199
99000.448
99004.546
99061.747
99074.101
99126.412
99148.084
99195.973
99225.639
99270.897
99306.623
99351.025
99391.141
99435.943
99479.256
99525.145
99570.861
99618.083
99665.641
99714.143
99763.083
99812.618
99862.492
99912.678
99963.004
100013.36
100063.61
100113.59
100163.16
100212.17
100260.45
100307.84
100354.17
100399.3
100443.06
100485.3
100525.88
100564.66
100601.52
100636.34
100669.03
100699.49
100727.66
100753.48
100776.89
100797.88
100816.42
100832.53
100846.2
100857.47
100866.36
100872.93
100877.21
100879.29
100879.21
100877.05
100872.89
100866.8
100858.86
100849.15
100837.74
100824.74
100810.15
100794.21
100776.65
100758.18
100737.61
100717.31
100693.02
100672.64
100641.67
100626.31
100580.65
100585.93
100498.2
100563.66
100369.78
100589.72
100180.59
100642.83
98986.416
99049.911
99053.98
99115.77
99128.433
99185.005
99207.718
99259.339
99290.763
99339.307
99377.305
99424.713
99467.388
99515.037
99561.019
99609.647
99658.015
99707.859
99757.958
99808.915
99860.202
99911.956
99963.903
100015.99
100068.03
100119.9
100171.42
100222.44
100272.78
100322.27
100370.74
100418.01
100463.92
100508.3
100550.99
100591.84
100630.72
100667.5
100702.07
100734.33
100764.21
100791.64
100816.57
100838.98
100858.85
100876.19
100891.01
100903.34
100913.23
100920.73
100925.9
100928.81
100929.54
100928.17
100924.78
100919.45
100912.28
100903.34
100892.73
100880.52
100866.79
100851.63
100835.08
100817.26
100798.13
100777.96
100756.35
100734.2
100709.85
100686.58
100658.07
100636.38
100598.12
100588.83
100521.49
100556.83
100401.82
100572.37
100210.77
100630.44
99052.673
99121.353
99125.431
99192.197
99205.594
99266.505
99290.793
99346.133
99379.806
99431.634
99472.29
99522.738
99568.244
99618.796
99667.619
99719.035
99770.141
99822.617
99875.263
99928.626
99982.185
100036.03
100089.89
100143.66
100197.16
100250.22
100302.65
100354.27
100404.9
100454.35
100502.42
100548.95
100593.76
100636.67
100677.54
100716.22
100752.6
100786.55
100817.98
100846.84
100873.06
100896.61
100917.47
100935.67
100951.21
100964.13
100974.49
100982.35
100987.79
100990.89
100991.74
100990.44
100987.09
100981.78
100974.62
100965.7
100955.13
100942.99
100929.36
100914.35
100898.01
100880.43
100861.67
100841.81
100820.85
100798.91
100775.88
100752.08
100726.9
100701.63
100673.55
100648.23
100613.93
100595.21
100540.63
100555.48
100428.2
100559.52
100237.82
100620.52
99141.778
99216.058
99220.148
99292.417
99306.63
99372.339
99398.4
99457.828
99494.033
99549.455
99593.077
99646.841
99695.468
99749.168
99801.076
99855.478
99909.501
99964.742
100020.03
100075.84
100131.67
100187.55
100243.19
100298.46
100353.16
100407.08
100460.03
100511.8
100562.18
100610.98
100658
100703.05
100745.96
100786.56
100824.71
100860.29
100893.19
100923.32
100950.63
100975.06
100996.61
101015.29
101031.11
101044.12
101054.39
101062
101067.03
101069.6
101069.8
101067.77
101063.61
101057.44
101049.4
101039.6
101028.15
101015.17
101000.75
100985.01
100968.02
100949.87
100930.64
100910.4
100889.2
100867.1
100844.13
100820.35
100795.72
100770.38
100744.07
100717.29
100688.91
100661.3
100628.87
100604.45
100557.7
100557.59
100452.04
100552.48
100264.67
100621.23
99252.944
99333.545
99337.795
99416.283
99431.605
99502.658
99530.915
99594.835
99634.042
99693.39
99740.412
99797.784
99849.887
99906.985
99962.236
100019.81
100076.9
100135
100192.97
100251.2
100309.2
100366.95
100424.14
100480.6
100536.11
100590.43
100643.35
100694.64
100744.08
100791.45
100836.57
100879.24
100919.3
100956.6
100991
101022.42
101050.76
101075.99
101098.08
101117.04
101132.87
101145.65
101155.45
101162.35
101166.46
101167.92
101166.84
101163.37
101157.67
101149.86
101140.12
101128.57
101115.36
101100.62
101084.49
101067.09
101048.51
101028.88
101008.27
100986.76
100964.43
100941.35
100917.55
100893.09
100867.99
100842.27
100815.95
100789.04
100761.45
100733.34
100704.24
100675.05
100643.31
100615.13
100573.75
100562.07
100473.9
100549.59
100290.09
100624.96
99388.081
99475.925
99480.487
99565.944
99582.641
99659.58
99690.455
99759.25
99801.922
99865.509
99916.347
99977.602
100033.51
100094.23
100153.06
100213.94
100274.22
100335.21
100395.84
100456.41
100516.41
100575.77
100634.16
100691.39
100747.18
100801.29
100853.47
100903.49
100951.1
100996.11
101038.31
101077.52
101113.6
101146.41
101175.87
101201.91
101224.49
101243.61
101259.29
101271.6
101280.61
101286.43
101289.18
101289
101286.07
101280.53
101272.57
101262.37
101250.11
101235.96
101220.1
101202.7
101183.9
101163.87
101142.72
101120.6
101097.61
101073.86
101049.43
101024.39
100998.82
100972.77
100946.27
100919.36
100892.05
100864.37
100836.3
100807.83
100778.92
100749.59
100719.63
100689.3
100657.65
100627.06
100589.27
100568.95
100495
100549.82
100315.85
100632.19
99549.347
99645.672
99650.493
99743.619
99761.867
99845.126
99879.011
99952.98
99999.563
100067.65
100122.7
100188.08
100248.1
100312.64
100375.22
100439.52
100503.03
100566.88
100630.06
100692.75
100754.45
100815.02
100874.11
100931.48
100986.84
101039.91
101090.43
101138.16
101182.85
101224.3
101262.33
101296.79
101327.54
101354.52
101377.66
101396.95
101412.42
101424.12
101432.14
101436.6
101437.63
101435.41
101430.12
101421.95
101411.11
101397.83
101382.31
101364.76
101345.41
101324.44
101302.06
101278.44
101253.75
101228.15
101201.77
101174.75
101147.19
101119.19
101090.83
101062.18
101033.29
101004.21
100974.97
100945.58
100916.06
100886.4
100856.58
100826.59
100796.37
100765.89
100735.04
100703.82
100671.94
100639.87
100604.55
100577.93
100515.79
100552
100341.78
100642.41
99737.393
99843.259
99848.217
99949.896
99970.054
100060.2
100097.67
100177.24
100228.33
100301.28
100361.05
100430.87
100495.36
100563.95
100630.48
100698.29
100765.03
100831.64
100897.14
100961.62
101024.56
101085.76
101144.84
101201.52
101255.48
101306.44
101354.11
101398.25
101438.64
101475.09
101507.45
101535.61
101559.49
101579.06
101594.35
101605.39
101612.3
101615.18
101614.22
101609.58
101601.5
101590.18
101575.89
101558.88
101539.39
101517.68
101494.01
101468.62
101441.75
101413.61
101384.4
101354.33
101323.55
101292.24
101260.51
101228.5
101196.31
101164.02
101131.71
101099.44
101067.24
101035.15
101003.18
100971.35
100939.64
100908.04
100876.53
100845.07
100813.6
100782.07
100750.38
100718.47
100686.24
100653.36
100619.63
100588.6
100536.55
100556.23
100369.15
100655.19
99952.079
100068.91
100074.3
100185.66
100208.34
100306.14
100347.99
100433.69
100490.05
100568.32
100633.39
100708.03
100777.36
100850.22
100920.85
100992.18
101062.04
101131.16
101198.6
101264.32
101327.81
101388.78
101446.85
101501.69
101552.97
101600.39
101643.68
101682.62
101717.01
101746.71
101771.62
101791.68
101806.9
101817.33
101823.07
101824.25
101821.05
101813.69
101802.41
101787.48
101769.18
101747.82
101723.67
101697.07
101668.29
101637.64
101605.38
101571.8
101537.13
101501.6
101465.42
101428.79
101391.87
101354.81
101317.74
101280.77
101243.99
101207.48
101171.29
101135.46
101100.04
101065.02
101030.42
100996.23
100962.42
100928.99
100895.87
100863.03
100830.41
100797.93
100765.5
100733.07
100700.49
100667.32
100634.57
100600.69
100557.23
100562.24
100398.18
100669.25
100195.53
100325.02
100331.05
100453.34
100479.2
100585.41
100632.5
100724.9
100787.3
100871.35
100942.29
101022.09
101096.57
101173.84
101248.58
101323.29
101395.97
101467.12
101535.83
101601.96
101664.97
101724.51
101780.18
101831.62
101878.52
101920.59
101957.58
101989.31
102015.65
102036.51
102051.89
102061.82
102066.4
102065.79
102060.18
102049.81
102034.97
102015.96
101993.11
101966.77
101937.29
101905.03
101870.34
101833.57
101795.05
101755.09
101714
101672.04
101629.46
101586.5
101543.36
101500.22
101457.23
101414.54
101372.25
101330.46
101289.24
101248.66
101208.75
101169.54
101131.04
101093.25
101056.16
101019.76
100984
100948.86
100914.27
100880.19
100846.55
100813.26
100780.24
100747.42
100714.6
100681.52
100649.34
100614.03
100577.72
100570.04
100429.02
100683.69
100469.85
100613.89
100620.77
100755.28
100785.13
100900.55
100953.9
101053.58
101122.88
101213.2
101290.57
101375.83
101455.68
101537.37
101616.05
101693.77
101768.68
101841.05
101910
101975.27
102036.3
102092.71
102144.09
102190.1
102230.42
102264.82
102293.13
102315.22
102331.07
102340.7
102344.21
102341.76
102333.58
102319.94
102301.16
102277.59
102249.62
102217.66
102182.13
102143.43
102102
102058.23
102012.52
101965.24
101916.74
101867.34
101817.36
101767.05
101716.65
101666.4
101616.46
101567.01
101518.19
101470.1
101422.84
101376.49
101331.09
101286.68
101243.29
101200.93
101159.59
101119.25
101079.89
101041.47
101003.95
100967.28
100931.41
100896.26
100861.76
100827.82
100794.36
100761.31
100728.41
100695.71
100663.86
100628.29
100597.7
100579.31
100460.42
100697.34
100776.41
100937.45
100945.68
101094.01
101128.98
101254.56
101315.39
101423.04
101500.18
101597.26
101681.56
101772.48
101857.72
101943.61
102025.75
102105.73
102181.83
102254.11
102321.7
102384.26
102441.22
102492.19
102536.77
102574.66
102605.63
102629.52
102646.26
102655.87
102658.45
102654.17
102643.27
102626.08
102602.96
102574.33
102540.64
102502.35
102459.98
102414
102364.91
102313.18
102259.3
102203.68
102146.74
102088.87
102030.42
101971.7
101913.01
101854.59
101796.67
101739.43
101683.05
101627.65
101573.35
101520.24
101468.38
101417.82
101368.58
101320.7
101274.15
101228.95
101185.05
101142.44
101101.06
101060.88
101021.84
100983.87
100946.91
100910.89
100875.72
100841.33
100807.62
100774.51
100741.74
100709.62
100678
100643.16
100616.91
100589.67
100491.64
100710.17
101118.81
101299.54
101309.69
101473.49
101514.87
101651.55
101721.18
101837.43
101923.29
102027.51
102119.04
102215.58
102305.89
102395.34
102479.95
102560.87
102636.49
102706.67
102770.58
102827.81
102877.82
102920.24
102954.76
102981.18
102999.38
103009.36
103011.21
103005.12
102991.38
102970.35
102942.45
102908.18
102868.06
102822.66
102772.56
102718.33
102660.57
102599.84
102536.68
102471.61
102405.12
102337.65
102269.61
102201.38
102133.29
102065.62
101998.65
101932.59
101867.62
101803.91
101741.59
101680.75
101621.47
101563.82
101507.82
101453.51
101400.87
101349.91
101300.61
101252.93
101206.83
101162.27
101119.19
101077.53
101037.23
100998.22
100960.42
100923.75
100888.14
100853.49
100819.74
100786.74
100754.33
100722.93
100691.61
100658.28
100635.23
100601.03
100522.25
100722.45
101500.46
101704.04
101716.85
101897.95
101947.34
102096.06
102175.95
102301.4
102396.73
102508.31
102607.04
102708.74
102803.27
102895
102980.38
103060.08
103132.65
103197.78
103254.7
103303
103342.22
103372.11
103392.5
103403.35
103404.77
103396.95
103380.23
103355.02
103321.84
103281.25
103233.9
103180.45
103121.59
103058.02
102990.42
102919.47
102845.81
102770.05
102692.75
102614.44
102535.61
102456.67
102378
102299.96
102222.83
102146.86
102072.26
101999.23
101927.89
101858.37
101790.75
101725.1
101661.45
101599.84
101540.27
101482.72
101427.19
101373.63
101322
101272.27
101224.36
101178.22
101133.77
101090.96
101049.71
101009.93
100971.55
100934.49
100898.66
100863.99
100830.39
100797.72
100765.91
100735.33
100704.49
100673.28
100652.41
100613.06
100551.95
100733.72
101925.53
102155.75
102172.33
102372.62
102431.97
102593.59
102685.26
102820.37
102925.65
103044.39
103149.73
103255.45
103352.49
103444.26
103527.57
103602.75
103668.47
103724.36
103769.76
103804.36
103827.9
103840.32
103841.7
103832.28
103812.44
103782.67
103743.59
103695.89
103640.33
103577.72
103508.88
103434.65
103355.85
103273.28
103187.69
103099.82
103010.31
102919.79
102828.8
102737.84
102647.34
102557.7
102469.24
102382.24
102296.94
102213.54
102132.2
102053.04
101976.16
101901.62
101829.48
101759.74
101692.42
101627.51
101564.97
101504.79
101446.9
101391.25
101337.79
101286.44
101237.14
101189.81
101144.37
101100.75
101058.86
101018.61
100979.94
100942.74
100906.95
100872.48
100839.25
100807.11
100776.12
100746.45
100716.37
100687.7
100668.05
100625.57
100580.82
100743.1
102399.24
102660.49
102682.3
102903.65
102975.33
103150.53
103255.46
103400.47
103515.55
103640.54
103750.91
103858.36
103954.88
104043
104119.91
104185.69
104239.21
104280.16
104308.12
104323.03
104324.93
104314.1
104291
104256.22
104210.51
104154.72
104089.77
104016.65
103936.35
103849.9
103758.27
103662.42
103563.26
103461.63
103358.31
103254
103149.35
103044.92
102941.21
102838.64
102737.6
102638.39
102541.26
102446.43
102354.07
102264.32
102177.26
102092.97
102011.49
101932.83
101857
101783.98
101713.74
101646.22
101581.39
101519.17
101459.5
101402.31
101347.51
101295.02
101244.77
101196.65
101150.59
101106.51
101064.3
101023.9
100985.21
100948.15
100912.63
100878.6
100845.95
100814.56
100784.59
100755.89
100726.93
100701.03
100681.86
100638.42
100608.5
100750.08
102927.05
103224.4
103253.57
103497.95
103585.24
103774.68
103893.66
104047.98
104171.69
104300.66
104412.94
104518.11
104609.23
104688.06
104752.25
104801.79
104835.92
104854.58
104857.79
104845.87
104819.38
104779.06
104725.82
104660.74
104584.95
104499.66
104406.12
104305.54
104199.14
104088.06
103973.36
103856.06
103737.07
103617.2
103497.19
103377.67
103259.22
103142.3
103027.32
102914.63
102804.49
102697.14
102592.73
102491.41
102393.27
102298.37
102206.74
102118.4
102033.33
101951.5
101872.88
101797.4
101725
101655.61
101589.15
101525.53
101464.66
101406.46
101350.82
101297.66
101246.88
101198.39
101152.09
101107.89
101065.7
101025.44
100987.01
100950.35
100915.36
100881.98
100850.11
100819.68
100790.88
100763.24
100735.78
100712.63
100693.22
100650.79
100634.21
100754.67
103516.99
103856.95
103897.39
104165.89
104271.52
104474.76
104606.93
104768.23
104897.84
105026.72
105135.61
105232.07
105310.32
105371.62
105414.27
105438.49
105444.1
105431.6
105401.61
105355.1
105293.25
105217.38
105128.94
105029.46
104920.46
104803.46
104679.93
104551.26
104418.73
104283.53
104146.72
104009.25
103871.96
103735.56
103600.69
103467.86
103337.51
103210
103085.62
102964.59
102847.09
102733.23
102623.09
102516.74
102414.18
102315.41
102220.41
102129.13
102041.51
101957.47
101876.95
101799.84
101726.06
101655.51
101588.07
101523.66
101462.16
101403.48
101347.49
101294.11
101243.23
101194.75
101148.57
101104.59
101062.73
101022.9
100985.01
100948.99
100914.75
100882.24
100851.34
100822.07
100794.54
100768.07
100742.44
100721.77
100701.64
100662.02
100656.8
100756.51
104189.78
104577.63
104633.61
104923.75
105044.11
105256.27
105401.42
105566.67
105696.54
105817.91
105914.4
105992.01
106046.36
106078.69
106088.27
106075.93
106042.4
105988.97
105917.13
105828.62
105725.28
105609.06
105481.88
105345.64
105202.14
105053.07
104899.97
104744.25
104587.15
104429.76
104273.03
104117.76
103964.64
103814.21
103666.95
103523.22
103383.31
103247.44
103115.76
102988.38
102865.38
102746.75
102632.51
102522.62
102417.04
102315.69
102218.5
102125.38
102036.22
101950.91
101869.34
101791.41
101716.97
101645.93
101578.16
101513.53
101451.94
101393.26
101337.4
101284.22
101233.63
101185.52
101139.8
101096.36
101055.12
101015.99
100978.89
100943.73
100910.46
100879
100849.25
100821.28
100795.09
100769.94
100746.32
100727.67
100706.94
100671.76
100675.29
100755.22
104954.84
105388.1
105455.66
105762.23
105909.06
106140.97
106287.4
106445.74
106564.26
106664.95
106735.05
106779.28
106795.06
106784.16
106747.18
106686
106602.51
106499.03
106377.96
106241.83
106093.08
105934.12
105767.19
105594.34
105417.44
105238.15
105057.91
104877.97
104699.39
104523.06
104349.68
104179.87
104014.08
103852.67
103695.92
103544.02
103397.11
103255.26
103118.49
102986.81
102860.19
102738.53
102621.77
102509.81
102402.54
102299.85
102201.6
102107.67
102017.92
101932.21
101850.41
101772.37
101697.97
101627.06
101559.52
101495.22
101434.02
101375.82
101320.48
101267.9
101217.96
101170.57
101125.61
101082.99
101042.63
101004.44
100968.34
100934.26
100902.13
100871.87
100843.43
100816.89
100792.11
100768.44
100746.87
100729.98
100709.73
100679.14
100688.46
100750.29
105812.85
106292.42
106386.04
106729.89
106886.89
107106.65
107251.51
107388.36
107480.29
107543.2
107568.84
107561.81
107521.9
107452.18
107355.01
107233.66
107091.29
106931.24
106756.71
106570.74
106376.15
106175.47
105970.95
105764.55
105557.92
105352.49
105149.4
104949.61
104753.87
104562.78
104376.79
104196.23
104021.35
103852.27
103689.11
103531.87
103380.55
103235.09
103095.4
102961.41
102832.97
102709.91
102592.12
102479.45
102371.74
102268.82
102170.55
102076.75
101987.27
101901.95
101820.63
101743.16
101669.4
101599.19
101532.4
101468.89
101408.53
101351.2
101296.77
101245.12
101196.16
101149.76
101105.84
101064.29
101025.04
100987.99
100953.08
100920.24
100889.4
100860.48
100833.47
100808.44
100785.14
100763.08
100743.61
100728.47
100709.07
100681.93
100696.03
100742.88
106801.71
107339.21
107460.74
107800.54
107963.85
108163.49
108281.88
108375.11
108414.96
108415.75
108373.6
108294.49
108181.02
108038.04
107869.75
107680.68
107475.04
107256.75
107029.37
106796.03
106559.42
106321.83
106085.16
105850.97
105620.51
105394.76
105174.47
104960.2
104752.36
104551.23
104356.96
104169.64
103989.29
103815.86
103649.28
103489.42
103336.14
103189.29
103048.7
102914.2
102785.56
102662.58
102545.11
102432.93
102325.87
102223.74
102126.34
102033.5
101945.05
101860.8
101780.6
101704.27
101631.68
101562.65
101497.06
101434.76
101375.61
101319.5
101266.3
101215.89
101168.16
101123.02
101080.36
101040.09
101002.13
100966.39
100932.82
100901.35
100871.9
100844.42
100818.92
100795.41
100773.61
100753.24
100735.81
100722.03
100703.57
100680.73
100697.12
100731.35
107957.84
108530.49
108669.38
108989.53
109129.41
109276.52
109334.99
109351.72
109308.66
109220.07
109087.14
108917.93
108717.82
108493.28
108249.81
107992.64
107726.23
107454.45
107180.54
106907.15
106636.39
106369.95
106109.1
105854.81
105607.79
105368.5
105137.25
104914.22
104699.47
104492.98
104294.66
104104.38
103921.97
103747.23
103579.96
103419.91
103266.86
103120.58
102980.85
102847.4
102719.97
102598.36
102482.34
102371.7
102266.23
102165.73
102069.98
101978.81
101892.02
101809.43
101730.88
101656.19
101585.21
101517.78
101453.77
101393.02
101335.41
101280.81
101229.1
101180.17
101133.91
101090.23
101049.01
101010.19
100973.67
100939.38
100907.26
100877.25
100849.28
100823.3
100799.32
100777.35
100757.05
100738.4
100722.85
100710.09
100693.01
100675.01
100691.17
100714
109287.59
109850.48
109973.91
110235.88
110314.32
110368.21
110327.37
110232.54
110076.89
109876.32
109636.98
109368.85
109079.18
108775.04
108462.11
108145.2
107828.11
107513.87
107204.75
106902.5
106608.33
106323.11
106047.39
105781.51
105525.6
105279.69
105043.66
104817.38
104600.6
104393.1
104194.57
104004.73
103823.29
103649.92
103484.34
103326.23
103175.3
103031.28
102893.9
102762.85
102637.84
102518.67
102405.09
102296.88
102193.8
102095.65
102002.22
101913.31
101828.73
101748.3
101671.86
101599.22
101530.24
101464.76
101402.64
101343.75
101287.94
101235.11
101185.13
101137.89
101093.29
101051.22
101011.61
100974.36
100939.4
100906.65
100876.06
100847.57
100821.12
100796.66
100774.22
100753.73
100734.93
100717.99
100704.07
100692.19
100676.88
100663.39
100677.71
100691.23
110685.92
111230.59
111309.9
111458.71
111423.16
111332.7
111149.56
110911.38
110622.51
110300.14
109953.49
109592.57
109224.45
108855.07
108488.77
108128.82
107777.54
107436.54
107106.85
106789.08
106483.53
106190.27
105909.21
105640.11
105382.7
105136.62
104901.48
104676.88
104462.42
104257.7
104062.29
103875.82
103697.91
103528.18
103366.28
103211.86
103064.6
102924.24
102790.43
102662.85
102541.25
102425.4
102315.05
102209.97
102109.93
102014.71
101924.11
101837.94
101756.01
101678.14
101604.16
101533.9
101467.22
101403.97
101344
101287.19
101233.4
101182.52
101134.43
101089.03
101046.22
101005.9
100967.99
100932.41
100899.08
100867.93
100838.91
100811.96
100787.02
100764.07
100743.11
100724.06
100706.7
100691.35
100678.81
100667.73
100654.39
100644.67
100656.2
100662.6
112220.18
112621.89
112588.1
112529.04
112311.87
112029.95
111678.15
111288.61
110872
110443.11
110010.25
109580.72
109159.13
108748.84
108351.9
107969.58
107602.5
107250.87
106914.57
106593.34
106286.76
105994.31
105715.45
105449.61
105196.2
104954.66
104724.43
104504.97
104295.79
104096.38
103906.3
103725.09
103552.35
103387.69
103230.72
103081.09
102938.5
102802.64
102673.15
102549.74
102432.17
102320.2
102213.58
102112.08
102015.49
101923.58
101836.17
101753.06
101674.07
101599.03
101527.77
101460.13
101395.97
101335.14
101277.51
101222.95
101171.34
101122.56
101076.51
101033.07
100992.16
100953.69
100917.57
100883.72
100852.07
100822.56
100795.14
100769.74
100746.31
100724.85
100705.33
100687.64
100671.68
100657.79
100646.41
100636.14
100624.77
100617.99
100626.49
100628.02
113670.81
113677.84
113442.47
113114.96
112691.86
112224.77
111728.28
111223.58
110720.47
110227.65
109749.48
109288.99
108847.66
108426.13
108024.37
107641.97
107278.3
106932.58
106604
106291.7
105994.84
105712.55
105444.03
105188.52
104945.33
104713.79
104493.3
104283.28
104083.2
103892.55
103710.88
103537.73
103372.71
103215.42
103065.48
102922.58
102786.41
102656.64
102532.92
102415.02
102302.71
102195.75
102093.9
101996.95
101904.69
101816.92
101733.45
101654.11
101578.71
101507.1
101439.12
101374.62
101313.46
101255.51
101200.63
101148.71
101099.63
101053.27
101009.54
100968.35
100929.58
100893.17
100859.03
100827.08
100797.26
100769.5
100743.76
100719.97
100698.1
100678.12
100660
100643.64
100629.01
100616.41
100605.97
100596.43
100586.81
100582.35
100588.71
100585.87
114258.98
113947.38
113504.21
112983.09
112427.59
111864.73
111308.42
110768.49
110249.21
109753.18
109281.11
108832.91
108407.72
108004.51
107622.08
107259.26
106914.88
106587.82
106277.01
105981.48
105700.36
105432.89
105178.28
104935.84
104704.89
104484.82
104275.06
104075.09
103884.42
103702.57
103529.13
103363.7
103205.89
103055.34
102911.71
102774.73
102644.13
102519.58
102400.8
102287.6
102179.75
102077.01
101979.18
101886.05
101797.42
101713.11
101632.94
101556.75
101484.36
101415.62
101350.39
101288.53
101229.89
101174.36
101121.8
101072.11
101025.16
100980.86
100939.11
100899.81
100862.87
100828.21
100795.75
100765.42
100737.15
100710.89
100686.56
100664.13
100643.55
100624.8
100607.83
100592.57
100579.02
100567.36
100557.58
100548.89
100541.03
100537.03
100539.27
100536.93
113081.85
112801.43
112386.28
111893.25
111381.15
110867.09
110364.56
109879.16
109413.57
108968.81
108544.75
108140.99
107756.76
107391.21
107043.42
106712.47
106397.45
106097.5
105811.8
105539.55
105279.98
105032.49
104796.48
104571.4
104356.72
104151.93
103956.54
103770.12
103592.25
103422.51
103260.56
103106.03
102958.6
102817.94
102683.81
102555.93
102433.98
102317.67
102206.77
102101.08
102000.39
101904.47
101813.15
101726.23
101643.53
101564.89
101490.14
101419.12
101351.68
101287.69
101227
101169.49
101115.02
101063.47
101014.74
100968.71
100925.27
100884.33
100845.79
100809.56
100775.56
100743.7
100713.92
100686.13
100660.27
100636.29
100614.13
100593.74
100575.07
100558.1
100542.77
100529.05
100516.94
100506.5
100497.67
100490.14
100483.92
100480.22
100479.72
100478.49
108776.96
109650.17
109744.72
109731.57
109543.74
109293.57
108994.09
108674.19
108343.28
108010.92
107681.54
107358.63
107044.05
106739.07
106444.34
106160.2
105886.74
105623.9
105371.53
105129.4
104897.23
104674.66
104461.34
104256.92
104061.07
103873.48
103693.83
103521.82
103357.16
103199.58
103048.8
102904.58
102766.64
102634.79
102508.81
102388.45
102273.42
102163.54
102058.63
101958.5
101862.99
101771.92
101685.11
101602.42
101523.69
101448.77
101377.52
101309.8
101245.47
101184.41
101126.5
101071.6
101019.62
100970.43
100923.93
100880.02
100838.6
100799.57
100762.85
100728.35
100695.98
100665.68
100637.35
100610.95
100586.39
100563.62
100542.59
100523.24
100505.53
100489.42
100474.86
100461.82
100450.29
100440.27
100431.7
100424.52
100418.76
100414.64
100412.25
100411.18
110545.42
110591.03
110468.75
110214.43
109842.02
109401.16
108919.08
108416.22
107904.42
107389.66
106886.13
106392.86
105920.55
105464.55
105029.6
104626.44
104250.07
103914.07
103611.71
103341.43
103102.29
102890.01
102702.83
102537.61
102391.6
102261.14
102143.48
102036.18
101938.69
101854.86
101779.81
101710.41
101645.95
101585.47
101528.31
101473.98
101422.16
101372.64
101325.24
101279.83
101236.36
101194.74
101154.91
101116.89
101080.6
101045.99
101013
100981.57
100951.65
100923.17
100896.05
100870.25
100845.64
100822.23
100799.77
100778.45
100757.73
100738.21
100718.66
100700.77
100681.61
100665.46
100645.47
100631.74
100608.87
100599.45
100570.09
100568.65
100526.86
100541.11
100475.42
100518.81
100413.05
100505.08
100333.54
100505.74
100232.1
100525.71
100102.97
100575.43
96972.283
97175.016
97573.956
98005.683
98468.398
98961.009
99380.465
99740.538
100078.12
100380.79
100641.86
100869.84
101066.09
101233.36
101375.19
101492.59
101589.68
101666.35
101725.47
101767.58
101795.87
101810.96
101815.63
101809.15
101793.81
101770.29
101740.87
101708.69
101672.35
101633.9
101593.72
101552.04
101508.71
101464.76
101420.88
101377.47
101334.88
101293.34
101253.04
101214.07
101176.46
101140.25
101105.44
101072.04
101040.01
101009.35
100980.02
100951.99
100925.2
100899.63
100875.19
100851.88
100829.55
100808.25
100787.73
100768.18
100749.07
100731.02
100712.83
100696.11
100678.14
100662.81
100643.95
100630.63
100609
100599.38
100571.59
100569.45
100529.98
100542.18
100480.67
100519.83
100418.67
100506.67
100339.44
100508.07
100235.92
100531.2
100103.47
100583.41
104116.1
104150.82
104149.38
104120.02
104061.19
103980.22
103883.03
103773.6
103655.6
103533.53
103408.24
103282.62
103156.8
103032.87
102910.48
102793.26
102677.97
102571.29
102467.23
102372.97
102277.29
102192.9
102105.29
102030.46
101957.84
101894.58
101836.38
101780.17
101729.82
101668.45
101611.04
101556.94
101505.26
101456.03
101409
101363.98
101320.79
101279.32
101239.45
101201.13
101164.35
101129.05
101095.2
101062.76
101031.69
101001.97
100973.56
100946.42
100920.52
100895.8
100872.2
100849.7
100828.14
100807.59
100787.76
100768.88
100750.37
100732.9
100715.2
100698.96
100681.36
100666.4
100647.8
100634.7
100613.29
100603.68
100576.14
100573.75
100534.02
100545.97
100485.07
100522.77
100423.74
100508.68
100344.56
100509.39
100240.82
100532.71
100106.99
100586.15
101584.86
101587.09
101594.99
101610.11
101629.46
101649.68
101670.97
101693.82
101716.31
101739.06
101760.24
101780.6
101798.22
101813.34
101824.55
101832.49
101835.76
101835.24
101829.6
101820.06
101806.53
101789.57
101769.45
101744.48
101714.85
101681.68
101646.72
101608.71
101570.48
101532.55
101493.78
101455.07
101416.43
101378.01
101340.02
101302.6
101265.9
101230.03
101195.09
101161.16
101128.3
101096.56
101065.95
101036.49
101008.19
100981.02
100954.99
100930.07
100906.23
100883.44
100861.62
100840.78
100820.76
100801.64
100783.12
100765.46
100748.06
100731.6
100714.8
100699.4
100682.48
100668.22
100650.09
100637.58
100616.4
100607.32
100579.86
100577.9
100538.17
100550.42
100489.02
100527.41
100427.3
100513.22
100347.7
100513.98
100243.6
100536.92
100109.03
100589.95
101983.21
101991
101992.06
101990.52
101987.08
101981.45
101974.29
101966.82
101957.9
101948.29
101936.59
101924.87
101910.75
101896.42
101879.89
101861.21
101841.86
101818.7
101795.89
101768.63
101742.46
101711.54
101682.26
101648.58
101616.97
101581.84
101547.84
101513.42
101478.91
101444.32
101409.89
101375.67
101341.78
101308.28
101275.26
101242.78
101210.89
101179.66
101149.14
101119.39
101090.45
101062.37
101035.18
101008.9
100983.55
100959.15
100935.68
100913.15
100891.53
100870.8
100850.9
100831.83
100813.47
100795.85
100778.73
100762.33
100746.08
100730.67
100714.8
100700.22
100684.03
100670.39
100652.81
100640.72
100619.94
100611.1
100583.95
100582.03
100542.33
100554.54
100493.34
100531.4
100431.75
100516.96
100351.94
100517.27
100247.25
100540.19
100111.59
100593.05
101453.45
101458.82
101463.96
101471.3
101478.27
101485.41
101490.51
101497.01
101500.81
101505.91
101507.92
101510.08
101509.63
101509.28
101506.43
101503.12
101497.83
101491.97
101484.2
101475.71
101465.34
101454.39
101441.34
101427.4
101411.37
101394.25
101375.44
101355.42
101334.21
101312.06
101289.05
101265.34
101241.08
101216.41
101191.47
101166.4
101141.32
101116.36
101091.63
101067.22
101043.23
101019.73
100996.79
100974.47
100952.79
100931.79
100911.49
100891.9
100873
100854.79
100837.22
100820.3
100803.91
100788.1
100772.64
100757.74
100742.86
100728.66
100713.9
100700.26
100684.95
100672
100655.08
100643.48
100623.19
100614.62
100587.82
100585.96
100546.69
100558.64
100497.53
100535.4
100435.82
100520.77
100355.65
100520.88
100250.59
100543.5
100113.99
100596.01
101266.09
101273.08
101278.35
101284.3
101290.58
101296.63
101301.39
101306.59
101309.21
101313.51
101314.6
101318.15
101318.25
101320.29
101319.83
101319.2
101316.33
101313.61
101309.13
101304.15
101297.75
101290.46
101281.96
101272.39
101261.73
101250
101237.25
101223.56
101208.94
101193.49
101177.27
101160.37
101142.86
101124.85
101106.41
101087.66
101068.68
101049.57
101030.4
101011.3
100992.34
100973.58
100955.11
100936.98
100919.23
100901.91
100885.03
100868.63
100852.7
100837.24
100822.21
100807.63
100793.4
100779.56
100765.9
100752.63
100739.23
100726.33
100712.75
100700.13
100685.74
100673.53
100657.33
100646.19
100626.45
100618.09
100591.76
100589.83
100550.95
100562.59
100501.97
100539.23
100440.15
100524.41
100359.84
100524.16
100254.12
100546.59
100116.45
100598.73
101001.45
101008.51
101014.21
101021
101028
101035.17
101041.46
101049.44
101054.75
101062.89