/*--------------------------------*- C++ -*----------------------------------*\
  =========                 |
  \\      /  F ield         | OpenFOAM: The Open Source CFD Toolbox
   \\    /   O peration     | Website:  https://openfoam.org
    \\  /    A nd           | Version:  6
     \\/     M anipulation  |
\*---------------------------------------------------------------------------*/
FoamFile
{
    version     2.0;
    format      ascii;
    class       surfaceScalarField;
    location    "450";
    object      phi;
}
// * * * * * * * * * * * * * * * * * * * * * * * * * * * * * * * * * * * * * //

dimensions      [1 0 -1 0 0 0 0];

internalField   nonuniform List<scalar> 
31760
(
-0.00058463595
-0.038631083
0.039215702
-0.0013002373
-0.042915599
0.043631184
-0.0020334776
-0.044003029
0.044736257
-0.002821409
-0.046591255
0.047379172
-0.0036290048
-0.04842451
0.049232097
-0.0044918394
-0.050898673
0.051761495
-0.0053833056
-0.053127857
0.054019317
-0.0063274775
-0.055698873
0.056643034
-0.0073089292
-0.058229915
0.059211363
-0.0083428645
-0.060983347
0.062017273
-0.009421873
-0.063793762
0.064872768
-0.01055523
-0.066779371
0.06791272
-0.011739847
-0.069872715
0.071057331
-0.012981878
-0.073127679
0.074369702
-0.014281169
-0.076520027
0.077819317
-0.015642066
-0.080076183
0.081437073
-0.017065736
-0.083791445
0.085215114
-0.018555516
-0.087680516
0.08917029
-0.020113393
-0.091747409
0.093305286
-0.021742463
-0.096002736
0.0976318
-0.023444968
-0.1004542
0.10215671
-0.025224011
-0.10511181
0.10689084
-0.027081576
-0.1099852
0.11184276
-0.029020575
-0.1150849
0.1170239
-0.031043339
-0.1204217
0.12244446
-0.033151967
-0.12600775
0.12811637
-0.035348799
-0.13185466
0.13405149
-0.037636151
-0.13797588
0.14026322
-0.04001565
-0.14438495
0.14676445
-0.0424887
-0.15109659
0.15356964
-0.045057027
-0.15812581
0.16069414
-0.047721442
-0.1654893
0.16815371
-0.050483009
-0.17320355
0.17596512
-0.053341649
-0.18128715
0.18414578
-0.056297335
-0.18975926
0.19271494
-0.059349727
-0.19863985
0.20169224
-0.062498002
-0.20795003
0.2110983
-0.065740052
-0.21771294
0.22095499
-0.06907402
-0.22795194
0.2312859
-0.072496862
-0.23869199
0.24211483
-0.076005251
-0.24995943
0.25346782
-0.07959456
-0.26178216
0.26537146
-0.083259896
-0.27418893
0.27785426
-0.086994769
-0.28721113
0.290946
-0.090792331
-0.30088024
0.3046778
-0.094644528
-0.31523074
0.31908293
-0.098541587
-0.33029792
0.33419497
-0.10247312
-0.34611948
0.35005101
-0.10642707
-0.36273449
0.36668844
-0.11038925
-0.38018473
0.3841469
-0.11434454
-0.39851303
0.40246831
-0.118275
-0.41776524
0.4216957
-0.12216087
-0.43798908
0.44187494
-0.12597946
-0.45923485
0.46305343
-0.12970601
-0.48155482
0.48528137
-0.1333119
-0.50500468
0.50861057
-0.13676547
-0.52964253
0.53309611
-0.14003039
-0.55552962
0.55879454
-0.14306667
-0.58272882
0.5857651
-0.14582883
-0.61130737
0.61406953
-0.1482659
-0.64133605
0.64377312
-0.15032064
-0.67288741
0.67494214
-0.15193003
-0.70604021
0.70764961
-0.15302028
-0.74087301
0.74196326
-0.15351513
-0.77747287
0.77796772
-0.15331674
-0.81592157
0.81572318
-0.15233833
-0.85631925
0.85534083
-0.15043934
-0.8987293
0.89683031
-0.14754775
-0.94329829
0.9404067
-0.14342828
-0.99001474
0.98589527
-0.13809685
-1.0391825
1.0338511
-0.13110696
-1.0905187
1.0835288
-0.12272189
-1.1448593
1.1364742
-0.1119723
-1.2009312
1.1901816
-0.099789698
-1.2613528
1.2491702
-0.084203382
-1.3214909
1.3059046
-0.067317113
-1.3894645
1.3725782
-0.045825984
-1.4519131
1.430422
-0.022708004
-1.5289705
1.5058525
-1.5945663
1.5659913
-0.00056422163
-0.038066869
-0.0012380457
-0.042241785
-0.0019316798
-0.043309402
-0.0026760162
-0.045846928
-0.0034429237
-0.047657608
-0.0042586619
-0.050082944
-0.0051048549
-0.052281668
-0.005999882
-0.054803855
-0.006932886
-0.057296915
-0.0079156038
-0.060000638
-0.0089428978
-0.062766471
-0.010022524
-0.065699755
-0.011152601
-0.068742641
-0.012338841
-0.071941447
-0.013580856
-0.075278013
-0.014883194
-0.078773852
-0.01624702
-0.08242762
-0.017675885
-0.086251658
-0.019171748
-0.090251547
-0.020737606
-0.094436885
-0.022375813
-0.098815997
-0.024088999
-0.10339863
-0.025880091
-0.1081941
-0.027751241
-0.11321376
-0.029704767
-0.11846817
-0.031743334
-0.12396919
-0.033868994
-0.129729
-0.036083828
-0.13576105
-0.038389291
-0.14207949
-0.040787414
-0.14869848
-0.043279342
-0.15563389
-0.04586611
-0.16290253
-0.048548375
-0.17052129
-0.051326114
-0.17850941
-0.054199749
-0.18688563
-0.057168381
-0.19567122
-0.060230729
-0.20488769
-0.063385666
-0.21455801
-0.066630882
-0.22470672
-0.069963441
-0.23535944
-0.073380093
-0.24654278
-0.076876661
-0.25828559
-0.08044799
-0.2706176
-0.084088561
-0.28357056
-0.08779161
-0.29717719
-0.091549688
-0.31147266
-0.095353817
-0.32649379
-0.099194247
-0.34227905
-0.10305955
-0.35886919
-0.10693738
-0.3763069
-0.11081311
-0.3946373
-0.11467084
-0.41390751
-0.1184924
-0.43416752
-0.12225727
-0.45546997
-0.12594244
-0.47786965
-0.12952212
-0.501425
-0.13296712
-0.52619754
-0.13624539
-0.55225136
-0.13931956
-0.57965465
-0.14214839
-0.60847854
-0.14468642
-0.63879802
-0.14688088
-0.67069295
-0.14867473
-0.70424635
-0.15000148
-0.73954627
-0.15078927
-0.77668508
-0.15095548
-0.81575536
-0.15041086
-0.85686387
-0.14904467
-0.90009549
-0.1467628
-0.94558017
-0.1433961
-0.99338144
-0.13888094
-1.0436977
-0.1329284
-1.0964712
-0.1256065
-1.1521812
-0.11631079
-1.2102269
-0.10548557
-1.272178
-0.091825474
-1.335151
-0.076657693
-1.4046323
-0.057586611
-1.4709842
-0.036915468
-1.5496416
-1.6200379
-0.00053114852
-0.03753573
-0.001179963
-0.041592982
-0.0018334571
-0.042655915
-0.0025414243
-0.045138972
-0.0032668541
-0.046932185
-0.0040439402
-0.049305869
-0.0048479745
-0.051477639
-0.0057019674
-0.053949873
-0.0065915726
-0.056407314
-0.0075314498
-0.059060771
-0.0085142286
-0.061783696
-0.009548975
-0.064665017
-0.010633432
-0.067658186
-0.011773021
-0.070801865
-0.012968494
-0.07408254
-0.014223226
-0.077519127
-0.015539435
-0.08111141
-0.016919671
-0.084871427
-0.018366903
-0.088804314
-0.019883494
-0.092920299
-0.02147227
-0.09722722
-0.023136063
-0.10173484
-0.024876653
-0.10645351
-0.026697444
-0.11139297
-0.028600611
-0.116565
-0.030588294
-0.12198151
-0.032662639
-0.12765466
-0.03482556
-0.13359813
-0.037079084
-0.13982596
-0.039424627
-0.14635294
-0.041863038
-0.15319548
-0.044395874
-0.1603697
-0.047023072
-0.16789409
-0.049745459
-0.17578703
-0.052562421
-0.18406866
-0.05547346
-0.19276019
-0.058477385
-0.20188376
-0.06157248
-0.21146292
-0.064756803
-0.2215224
-0.068028062
-0.23208818
-0.071382187
-0.24318866
-0.074815778
-0.25485201
-0.07832414
-0.26710924
-0.081902059
-0.27999264
-0.085543211
-0.29353604
-0.089240492
-0.30777538
-0.09298614
-0.32274814
-0.096771073
-0.33849412
-0.10058529
-0.35505497
-0.10441719
-0.372475
-0.1082539
-0.39080059
-0.112081
-0.41008042
-0.11588194
-0.43036659
-0.11963858
-0.45171333
-0.12333036
-0.47417787
-0.12693385
-0.49782151
-0.13042316
-0.52270823
-0.13376894
-0.54890558
-0.13693818
-0.5764854
-0.13989397
-0.60552275
-0.14259448
-0.63609751
-0.14499352
-0.66829391
-0.14703845
-0.70220143
-0.14867102
-0.7379137
-0.14982542
-0.77553068
-0.15042549
-0.81515529
-0.15039524
-0.85689413
-0.14963318
-0.90085754
-0.14804497
-0.94716839
-0.14550038
-0.99592603
-0.14190653
-1.0472916
-0.13705438
-1.1013234
-0.13091389
-1.1583217
-0.12308906
-1.2180517
-0.11377821
-1.2814889
-0.10206368
-1.3468655
-0.088801016
-1.4178949
-0.072201014
-1.4875842
-0.053888319
-1.5679543
-1.6423307
-0.00050071455
-0.037035024
-0.0011298939
-0.040963812
-0.0017495264
-0.042036289
-0.0024268509
-0.044461657
-0.0031178337
-0.046241208
-0.0038622172
-0.048561495
-0.0046313468
-0.050708515
-0.0054509891
-0.05313024
-0.0063051562
-0.05555315
-0.0072095726
-0.058156363
-0.0081565835
-0.060836688
-0.0091553448
-0.063666264
-0.010203536
-0.066609996
-0.011307092
-0.069698317
-0.012466121
-0.072923513
-0.013684846
-0.07630041
-0.01496484
-0.079831416
-0.016309588
-0.083526687
-0.017721292
-0.08739261
-0.019203116
-0.091438482
-0.020757382
-0.095672955
-0.022386713
-0.10010551
-0.024094114
-0.10474611
-0.025881929
-0.10960517
-0.027752342
-0.11469459
-0.029707979
-0.12002588
-0.031750584
-0.12561205
-0.033882436
-0.13146629
-0.036104959
-0.13760344
-0.038419737
-0.14403817
-0.04082778
-0.15078743
-0.043329886
-0.1578676
-0.045926821
-0.16529716
-0.04861826
-0.1730956
-0.051403993
-0.18128293
-0.054283668
-0.18988051
-0.057255946
-0.19891148
-0.060319162
-0.20839971
-0.063471339
-0.21837022
-0.066709952
-0.22884957
-0.070032121
-0.23986649
-0.073434022
-0.25145011
-0.076911437
-0.26363183
-0.080459622
-0.27644446
-0.084073009
-0.28992266
-0.087745371
-0.30410302
-0.091469684
-0.31902383
-0.095237996
-0.33472581
-0.099041286
-0.35125168
-0.10286943
-0.36864686
-0.10671143
-0.38695858
-0.11055389
-0.40623797
-0.11438299
-0.42653748
-0.11818255
-0.44791378
-0.12193387
-0.47042656
-0.12561695
-0.49413842
-0.12920907
-0.51911611
-0.13268371
-0.54543094
-0.13601203
-0.57315708
-0.13916134
-0.60237344
-0.14209472
-0.63316413
-0.14477078
-0.66561784
-0.14714335
-0.69982885
-0.14915989
-0.73589717
-0.1507623
-0.77392827
-0.15188475
-0.81403283
-0.15245331
-0.85632557
-0.15238333
-0.90092752
-0.15158772
-0.947964
-0.14995512
-0.99755864
-0.14738381
-1.0498629
-0.14372101
-1.1049862
-0.13888695
-1.1631557
-0.13260181
-1.2243369
-0.1249412
-1.2891495
-0.11522969
-1.356577
-0.10402358
-1.429101
-0.089957137
-1.5016506
-0.074274868
-1.5836365
-1.6614504
-0.00047304249
-0.036561985
-0.0010867992
-0.040350061
-0.0016775435
-0.041445549
-0.0023298591
-0.043809348
-0.0029922981
-0.045578772
-0.0037104901
-0.047843311
-0.0044517437
-0.049967264
-0.005244658
-0.052337334
-0.006071678
-0.054726133
-0.0069491387
-0.057278911
-0.0078696899
-0.059916138
-0.0088425801
-0.062693381
-0.0098655356
-0.065587041
-0.010944121
-0.068619737
-0.012079144
-0.071788489
-0.013274795
-0.075104764
-0.01453279
-0.078573419
-0.015856623
-0.08220286
-0.017248557
-0.086000675
-0.018711506
-0.089975539
-0.020248525
-0.094135935
-0.021862116
-0.09849193
-0.023555048
-0.10305318
-0.025329403
-0.10783082
-0.027188223
-0.11283577
-0.029133322
-0.11808079
-0.031166989
-0.12357839
-0.033290698
-0.12934258
-0.035506524
-0.13538762
-0.037815108
-0.14172959
-0.040218088
-0.14838446
-0.042715805
-0.15536989
-0.045308712
-0.16270425
-0.04799686
-0.17040745
-0.050779916
-0.17849988
-0.053656778
-0.18700366
-0.056626728
-0.19594154
-0.059688346
-0.20533809
-0.062839318
-0.21521925
-0.066077268
-0.22561163
-0.069399901
-0.23654386
-0.072803635
-0.24804638
-0.076284803
-0.26015066
-0.079839405
-0.27288986
-0.083462433
-0.28629963
-0.087148796
-0.30041666
-0.090892155
-0.31528047
-0.094685746
-0.33093222
-0.098522091
-0.34741534
-0.10239268
-0.36477628
-0.10628741
-0.38306384
-0.11019604
-0.40232934
-0.1141059
-0.42262762
-0.11800325
-0.44401642
-0.12187281
-0.466557
-0.12569669
-0.49031454
-0.12945501
-0.51535779
-0.1331257
-0.54176026
-0.13668346
-0.56959932
-0.14009986
-0.59895704
-0.14334257
-0.62992141
-0.1463759
-0.66258452
-0.14915915
-0.69704559
-0.15164678
-0.73340954
-0.15378759
-0.77178746
-0.15552356
-0.81229687
-0.15678961
-0.85505953
-0.15751336
-0.90020377
-0.15761466
-0.9478627
-0.15699534
-0.99817796
-0.1555666
-1.0512916
-0.15319859
-1.1073542
-0.14980066
-1.1665537
-0.14516228
-1.2289752
-0.13928354
-1.2950282
-0.13168053
-1.36418
-0.1226896
-1.438092
-0.1112375
-1.5131027
-0.098296478
-1.5965775
-1.67731
-0.00045084971
-0.036111149
-0.0010466431
-0.039754282
-0.0016152327
-0.040876969
-0.0022496783
-0.043174915
-0.0028914302
-0.044937028
-0.0035914494
-0.047143303
-0.0043136837
-0.049245035
-0.005088935
-0.051562093
-0.0058986201
-0.053916452
-0.006759942
-0.056417598
-0.0076650363
-0.059011046
-0.008623566
-0.061734859
-0.0096336954
-0.064576913
-0.010700961
-0.067552479
-0.011826377
-0.070663073
-0.013013647
-0.073917501
-0.014265469
-0.077321597
-0.01558469
-0.080883646
-0.016974371
-0.084610996
-0.018437464
-0.088512452
-0.019976336
-0.092597065
-0.021594435
-0.096873838
-0.023293726
-0.10135389
-0.025077308
-0.10604724
-0.026947181
-0.1109659
-0.028905552
-0.11612242
-0.03095455
-0.12152939
-0.033095717
-0.12720142
-0.035330518
-0.13315282
-0.037660153
-0.13939996
-0.04008556
-0.14595905
-0.042606928
-0.15284852
-0.045224834
-0.16008634
-0.047939
-0.16769329
-0.050749011
-0.17568987
-0.053654146
-0.18409853
-0.056653333
-0.19294235
-0.059745161
-0.20224627
-0.062927806
-0.21203661
-0.066199294
-0.22234014
-0.069557185
-0.23318597
-0.072998749
-0.24460482
-0.076521199
-0.25662821
-0.080120615
-0.26929045
-0.083793379
-0.28262687
-0.087535102
-0.29667494
-0.091341
-0.31147458
-0.095205792
-0.32706743
-0.099122782
-0.34349835
-0.10308546
-0.3608136
-0.10708611
-0.37906319
-0.11111568
-0.39829978
-0.11516437
-0.41857893
-0.1192207
-0.43996009
-0.12327177
-0.46250593
-0.12730328
-0.48628302
-0.13129875
-0.51136233
-0.13523922
-0.53781979
-0.13910386
-0.56573468
-0.14286801
-0.59519289
-0.14650538
-0.62628405
-0.14998456
-0.65910534
-0.15327145
-0.6937587
-0.15632696
-0.73035404
-0.15910704
-0.76900737
-0.16156186
-0.80984205
-0.1636364
-0.85298498
-0.165267
-0.89857318
-0.16637991
-0.94674979
-0.16689992
-0.99765795
-0.16673627
-1.0514553
-0.16579028
-1.1083002
-0.16396395
-1.16838
-0.1611028
-1.2318364
-0.15716423
-1.2989668
-0.15178829
-1.369556
-0.14518293
-1.4446973
-0.13648079
-1.5218049
-0.12647546
-1.6065829
-1.6898133
-0.00043538749
-0.03567577
-0.0010098487
-0.039179832
-0.0015637256
-0.0403231
-0.0021882809
-0.042550371
-0.0028178976
-0.044307417
-0.0035085935
-0.046452617
-0.0042215534
-0.04853208
-0.0049890774
-0.050794578
-0.0057925212
-0.053113011
-0.0066489476
-0.05556118
-0.0075512693
-0.058108726
-0.0085086877
-0.060777448
-0.0095198045
-0.063565796
-0.010590083
-0.066482207
-0.01172143
-0.069531726
-0.012917279
-0.072721658
-0.014180239
-0.076058637
-0.015514014
-0.079549878
-0.016920878
-0.083204132
-0.018404399
-0.087028938
-0.019967245
-0.091034218
-0.021612056
-0.095229033
-0.023341958
-0.09962399
-0.025158881
-0.10423033
-0.027065155
-0.10905962
-0.029063239
-0.11412435
-0.031154623
-0.11943801
-0.033341026
-0.12501502
-0.035623395
-0.13087045
-0.038002874
-0.13702048
-0.040480197
-0.14348173
-0.043055767
-0.15027296
-0.045729418
-0.15741269
-0.048501274
-0.16492144
-0.051370542
-0.1728206
-0.05433666
-0.18113241
-0.057398689
-0.18988032
-0.060554962
-0.19909
-0.063804758
-0.20878681
-0.0671458
-0.2189991
-0.070576446
-0.22975532
-0.074094768
-0.2410865
-0.077698132
-0.25302485
-0.081384374
-0.26560421
-0.085150581
-0.27886066
-0.088993504
-0.29283202
-0.092909558
-0.30755852
-0.096894796
-0.32308219
-0.10094514
-0.339448
-0.10505512
-0.35670362
-0.10921914
-0.37489917
-0.1134304
-0.39408853
-0.11768157
-0.41432776
-0.12196398
-0.43567768
-0.12626753
-0.45820238
-0.13058106
-0.4819695
-0.13489117
-0.50705222
-0.13918343
-0.53352754
-0.14344032
-0.56147779
-0.14764305
-0.59099016
-0.15176879
-0.62215831
-0.1557929
-0.65508123
-0.15968648
-0.68986511
-0.16341759
-0.72662293
-0.16694974
-0.76547523
-0.17024173
-0.80655006
-0.17324477
-0.84998194
-0.17590587
-0.89591209
-0.17816736
-0.9444883
-0.17996016
-0.99586515
-0.18120955
-1.0502059
-0.18182953
-1.1076802
-0.18173494
-1.1684746
-0.18080118
-1.2327701
-0.17896941
-1.3007986
-0.17597143
-1.3725539
-0.17193245
-1.4487363
-0.16614444
-1.5275929
-0.15925368
-1.6134736
-1.6988294
-0.0004263668
-0.035249412
-0.00099204392
-0.038614166
-0.0015382312
-0.039776919
-0.0021603698
-0.041928243
-0.0027863859
-0.043681406
-0.0034764431
-0.04576257
-0.0041900245
-0.047818503
-0.0049603267
-0.050024285
-0.0057689203
-0.05230442
-0.006632605
-0.054697503
-0.0075453342
-0.057195998
-0.0085155618
-0.059807228
-0.0095432143
-0.062538144
-0.010633395
-0.065392033
-0.011787903
-0.068377218
-0.013010938
-0.07149863
-0.014305155
-0.074764421
-0.015673809
-0.078181231
-0.017120322
-0.08175762
-0.018647308
-0.085501959
-0.020258101
-0.089423426
-0.021955215
-0.093531926
-0.023741244
-0.097837962
-0.025618833
-0.10235274
-0.027589915
-0.10708854
-0.029656213
-0.11205805
-0.031819494
-0.11727473
-0.034080939
-0.12275358
-0.036441818
-0.12850957
-0.038902671
-0.13455964
-0.041463973
-0.14092043
-0.044125887
-0.14761105
-0.046888459
-0.15465012
-0.049751134
-0.16205877
-0.052713807
-0.16985793
-0.05577583
-0.17807039
-0.058935808
-0.18672034
-0.062193556
-0.19583225
-0.065547636
-0.20543273
-0.068997207
-0.21554953
-0.072540613
-0.22621192
-0.076177051
-0.23745006
-0.079905173
-0.24929673
-0.083723443
-0.26178594
-0.087630167
-0.27495394
-0.091623486
-0.2888387
-0.095701915
-0.3034801
-0.099862968
-0.31892114
-0.10410368
-0.3352073
-0.10842145
-0.35238585
-0.1128125
-0.37050812
-0.11727271
-0.38962832
-0.12179711
-0.40980336
-0.12637968
-0.43109511
-0.13101404
-0.45356803
-0.13569134
-0.4772922
-0.14040289
-0.50234067
-0.1451374
-0.52879302
-0.14988244
-0.55673275
-0.15462286
-0.58624974
-0.15934227
-0.6174389
-0.16402071
-0.65040279
-0.16863609
-0.68524973
-0.17316293
-0.72209609
-0.17757212
-0.76106604
-0.18183079
-0.80229139
-0.18590038
-0.84591236
-0.18973872
-0.89207374
-0.19329461
-0.94093241
-0.19651511
-0.99264465
-0.19933549
-1.0473855
-0.20168555
-1.1053301
-0.20349504
-1.1666651
-0.20466678
-1.2315984
-0.20513332
-1.300332
-0.20469802
-1.3729892
-0.20342674
-1.4500076
-0.2007426
-1.530277
-0.19717518
-1.617041
-1.7041794
-0.00042261904
-0.034826801
-0.00099310585
-0.038043689
-0.0015393035
-0.039230727
-0.0021671755
-0.041300381
-0.0027990179
-0.043049569
-0.0034983203
-0.045063277
-0.0042238356
-0.047092991
-0.0050085658
-0.049239563
-0.005835573
-0.051477415
-0.0067205801
-0.053812503
-0.0076589819
-0.056257597
-0.0086587046
-0.058807512
-0.0097203796
-0.061476469
-0.010848906
-0.064263514
-0.012046814
-0.06717931
-0.013318203
-0.070227247
-0.014665931
-0.073416694
-0.016093612
-0.076753556
-0.017604159
-0.080247073
-0.019200966
-0.083905159
-0.020886811
-0.087737582
-0.022664389
-0.091754353
-0.024535994
-0.095966358
-0.026503794
-0.10038495
-0.028570052
-0.10502229
-0.030736085
-0.10989203
-0.03300314
-0.11500767
-0.035372432
-0.1203843
-0.037844544
-0.12603746
-0.040420249
-0.13198393
-0.043099219
-0.13824146
-0.045882004
-0.14482827
-0.048767978
-0.15176415
-0.051757226
-0.15906952
-0.054849346
-0.16676581
-0.058043412
-0.17487633
-0.061339693
-0.18342406
-0.064737267
-0.19243468
-0.068235679
-0.20193432
-0.071834748
-0.21195047
-0.075534442
-0.22251223
-0.079334008
-0.2336505
-0.083233358
-0.24539738
-0.087232536
-0.25778676
-0.091331647
-0.27085483
-0.095530163
-0.28464019
-0.099827939
-0.29918232
-0.10422454
-0.31452454
-0.10871956
-0.33071227
-0.11331195
-0.34779346
-0.11800066
-0.36581942
-0.12278412
-0.38484485
-0.12765993
-0.40492755
-0.13262546
-0.42612958
-0.13767669
-0.4485168
-0.14280971
-0.47215918
-0.14801832
-0.49713206
-0.15329611
-0.52351522
-0.15863471
-0.55139415
-0.16402438
-0.58086007
-0.16945326
-0.61201002
-0.17490802
-0.64494803
-0.18037285
-0.6797849
-0.18582893
-0.71664001
-0.19125539
-0.75563957
-0.19662717
-0.79691961
-0.20191666
-0.84062287
-0.20708798
-0.88690242
-0.21210692
-0.93591347
-0.21692599
-0.98782558
-0.22149788
-1.0428136
-0.22576868
-1.1010593
-0.22967482
-1.162759
-0.23314828
-1.2281249
-0.23612707
-1.2973532
-0.23846455
-1.3706518
-0.24018596
-1.4482862
-0.24082761
-1.5296353
-0.24081162
-1.617057
-1.7056338
-0.00042584254
-0.034400967
-0.0010087644
-0.037460779
-0.0015645952
-0.038674904
-0.0022084742
-0.040656512
-0.0028577067
-0.042400341
-0.0035781703
-0.044342823
-0.0043290054
-0.046342159
-0.0051423303
-0.048426247
-0.0060031341
-0.050616613
-0.0069259958
-0.052889649
-0.0079078165
-0.055275777
-0.0089559366
-0.057759398
-0.01007198
-0.060360427
-0.011260608
-0.063074893
-0.012525111
-0.065914807
-0.013869038
-0.068883328
-0.015296042
-0.07198969
-0.016809416
-0.075240189
-0.018412599
-0.078643891
-0.020108372
-0.082209392
-0.021899347
-0.085946608
-0.023788308
-0.089865398
-0.025777399
-0.093977268
-0.027868594
-0.098293758
-0.030063048
-0.10282783
-0.032362444
-0.10759263
-0.034767698
-0.11260242
-0.037279406
-0.11787259
-0.039897625
-0.12341924
-0.042622988
-0.12925858
-0.045455357
-0.13540909
-0.048394624
-0.141889
-0.051440502
-0.14871827
-0.054593181
-0.15591685
-0.057851969
-0.16350702
-0.061217402
-0.1715109
-0.064689093
-0.17995237
-0.068267302
-0.18885647
-0.071952948
-0.19824868
-0.075746163
-0.20815725
-0.079647632
-0.21861076
-0.083658883
-0.22963925
-0.087780818
-0.24127544
-0.092015017
-0.25355257
-0.096362636
-0.26650721
-0.10082592
-0.28017691
-0.10540598
-0.29460226
-0.110105
-0.30982552
-0.11492434
-0.32589293
-0.11986556
-0.34285224
-0.12493023
-0.36075476
-0.13011919
-0.37965589
-0.13543347
-0.39961327
-0.14087302
-0.42069004
-0.14643823
-0.44295159
-0.15212773
-0.46646968
-0.15794008
-0.49131971
-0.16387293
-0.51758238
-0.16992261
-0.54534447
-0.17608431
-0.57469836
-0.18235246
-0.60574188
-0.18871913
-0.63858136
-0.1951748
-0.67332922
-0.20170886
-0.71010595
-0.20830752
-0.74904092
-0.21495504
-0.79027209
-0.22163114
-0.83394676
-0.22831598
-0.88021758
-0.23497909
-0.92925036
-0.24159236
-0.98121231
-0.24811894
-1.036287
-0.2545171
-1.0946612
-0.26073983
-1.1565362
-0.26674116
-1.2221236
-0.27246352
-1.2916309
-0.27781616
-1.3652991
-0.28278497
-1.4433174
-0.28700848
-1.5254118
-0.29080615
-1.6132593
-1.7029143
-0.0004370323
-0.033963944
-0.0010429329
-0.036854889
-0.0016194497
-0.038098393
-0.0022906085
-0.039985363
-0.0029701369
-0.041720818
-0.0037251706
-0.043587798
-0.004516403
-0.04555093
-0.0053743376
-0.04756832
-0.006286522
-0.049704431
-0.0072660227
-0.051910156
-0.008311677
-0.054230125
-0.0094300081
-0.056641075
-0.010623708
-0.059166728
-0.011897353
-0.061801255
-0.013254345
-0.064557816
-0.014698725
-0.067438955
-0.016234098
-0.070454318
-0.017863655
-0.073610638
-0.019590572
-0.076916976
-0.021417636
-0.080382333
-0.023347621
-0.084016623
-0.02538232
-0.087830705
-0.027523715
-0.091835873
-0.029773055
-0.096044422
-0.032131785
-0.1004691
-0.034600593
-0.10512383
-0.037179789
-0.11002322
-0.039869678
-0.11518271
-0.042670593
-0.12061832
-0.045582002
-0.12634717
-0.048604348
-0.13238674
-0.051737012
-0.13875634
-0.054980493
-0.14547479
-0.058334512
-0.15256283
-0.061799712
-0.16004182
-0.065376233
-0.16793438
-0.069065397
-0.17626321
-0.072868101
-0.18505377
-0.076785825
-0.19433095
-0.080820505
-0.20412257
-0.084974513
-0.21445675
-0.089249811
-0.22536395
-0.093650063
-0.23687519
-0.098177658
-0.24902497
-0.10283658
-0.26184829
-0.10763007
-0.27538342
-0.11256241
-0.28966993
-0.11763709
-0.30475084
-0.12285849
-0.32067154
-0.12823078
-0.33747995
-0.13375798
-0.35522756
-0.13944407
-0.3739698
-0.14529299
-0.39376435
-0.15130862
-0.41467441
-0.15749392
-0.43676628
-0.16385229
-0.46011131
-0.17038651
-0.48478549
-0.1770981
-0.51087078
-0.18398902
-0.53845355
-0.19105987
-0.56762751
-0.1983098
-0.59849195
-0.20573822
-0.63115293
-0.21334259
-0.66572485
-0.22111896
-0.70232958
-0.22906211
-0.74109777
-0.23716533
-0.78216887
-0.24541983
-0.82569226
-0.25381241
-0.87182499
-0.26232909
-0.92073369
-0.27094813
-0.97259327
-0.27965011
-1.027585
-0.28840862
-1.0859027
-0.2971937
-1.1477511
-0.30597355
-1.2133438
-0.31470596
-1.2828984
-0.32333513
-1.3566699
-0.33183727
-1.4348152
-0.33993271
-1.5173164
-0.34785425
-1.6053378
-1.6956988
-0.0004557636
-0.033508187
-0.0010948713
-0.036215789
-0.0017034961
-0.037489773
-0.0024143256
-0.039274541
-0.0031385534
-0.040996593
-0.003943297
-0.042783061
-0.0047921419
-0.044702087
-0.0057130769
-0.046647392
-0.0066968738
-0.048720635
-0.0077548388
-0.050852197
-0.0088877655
-0.053097199
-0.010101611
-0.055427236
-0.011399871
-0.057868468
-0.012787018
-0.060414115
-0.014266976
-0.063077859
-0.015843428
-0.065862508
-0.017520047
-0.0687777
-0.019299867
-0.071830823
-0.021185767
-0.075031076
-0.023180234
-0.078387871
-0.025285276
-0.081911582
-0.027502541
-0.085613445
-0.029833473
-0.089504942
-0.032278726
-0.093599173
-0.034838804
-0.097909026
-0.037513975
-0.10244866
-0.040304312
-0.10723289
-0.043209643
-0.11227738
-0.046229896
-0.11759807
-0.049364903
-0.12321217
-0.052614288
-0.12913736
-0.055978539
-0.13539209
-0.059457922
-0.14199541
-0.063052889
-0.14896787
-0.066764765
-0.15632995
-0.070594993
-0.16410415
-0.074545473
-0.17231273
-0.078618769
-0.18098048
-0.082817273
-0.19013245
-0.087144878
-0.19979497
-0.09160514
-0.20999649
-0.096202756
-0.22076634
-0.10094173
-0.23213622
-0.10582787
-0.24413883
-0.11086638
-0.25680977
-0.11606323
-0.27018658
-0.12142455
-0.2843086
-0.12695671
-0.29921868
-0.13266656
-0.31496169
-0.13856093
-0.33158558
-0.14464663
-0.34914186
-0.15093126
-0.36768517
-0.15742167
-0.38727394
-0.16412534
-0.40797074
-0.17104947
-0.42984215
-0.17820118
-0.4529596
-0.18558751
-0.47739917
-0.19321554
-0.50324275
-0.20109129
-0.5305778
-0.20922164
-0.55949716
-0.2176122
-0.5901014
-0.22626814
-0.62249699
-0.23519442
-0.65679857
-0.24439511
-0.69312889
-0.25387359
-0.73161928
-0.26363178
-0.77241068
-0.27367099
-0.81565305
-0.28399057
-0.86150541
-0.29458623
-0.91013802
-0.30545259
-0.96172691
-0.31658053
-1.0164571
-0.32796055
-1.0745226
-0.3395763
-1.1361354
-0.35141196
-1.2015081
-0.36344671
-1.2708637
-0.37565534
-1.3444613
-0.38800893
-1.4224616
-0.40030312
-1.5050222
-0.41269792
-1.592943
-1.6836265
-0.00048471457
-0.033023477
-0.0011696737
-0.035530837
-0.0018246391
-0.036834811
-0.0025898375
-0.03850935
-0.0033758741
-0.040210559
-0.0042483791
-0.041910563
-0.0051749901
-0.043775478
-0.0061806954
-0.045641693
-0.0072597728
-0.04764156
-0.0084218482
-0.049690129
-0.0096695817
-0.051849467
-0.011008258
-0.054088566
-0.012442286
-0.056434442
-0.0139758
-0.058880607
-0.015612919
-0.061440741
-0.017357206
-0.064118227
-0.019211705
-0.066923203
-0.021179618
-0.069862916
-0.023263042
-0.072947652
-0.025463886
-0.076187032
-0.027783296
-0.079592173
-0.030222329
-0.083174416
-0.032781488
-0.086945783
-0.035460962
-0.090919703
-0.038260508
-0.09510948
-0.041179881
-0.099529294
-0.044218593
-0.10419418
-0.047376492
-0.10911949
-0.050652897
-0.11432167
-0.054047976
-0.11981709
-0.057562185
-0.12562315
-0.061195872
-0.13175841
-0.064950138
-0.13824114
-0.068826568
-0.14509144
-0.072827423
-0.15232909
-0.076955689
-0.15997589
-0.081214082
-0.16805434
-0.085607188
-0.17658737
-0.090139326
-0.18560031
-0.094815515
-0.19511878
-0.099641774
-0.20517023
-0.10462412
-0.21578399
-0.10976952
-0.22699082
-0.1150854
-0.23882296
-0.12057939
-0.25131578
-0.12626002
-0.26450596
-0.13213565
-0.27843297
-0.13821548
-0.29313885
-0.1445092
-0.30866798
-0.15102626
-0.32506852
-0.15777709
-0.34239103
-0.16477203
-0.36069023
-0.17202187
-0.3800241
-0.17953762
-0.40045499
-0.18733074
-0.42204903
-0.19541274
-0.4448776
-0.20379519
-0.46901672
-0.2124901
-0.49454784
-0.22150956
-0.52155835
-0.23086553
-0.55014119
-0.24057059
-0.58039634
-0.2506367
-0.61243088
-0.26107632
-0.64635896
-0.27190135
-0.68230386
-0.28312425
-0.72039639
-0.29475675
-0.76077818
-0.30681059
-0.80359922
-0.31929575
-0.84902024
-0.33222064
-0.89721314
-0.34559706
-0.94835048
-0.35942613
-1.002628
-0.37370997
-1.0602388
-0.38845437
-1.121391
-0.40366219
-1.1863003
-0.4193249
-1.255201
-0.43544541
-1.3283408
-0.45200145
-1.4059056
-0.46886402
-1.4881596
-0.4861364
-1.5756706
-1.6663092
-0.00052444549
-0.032499035
-0.0012691989
-0.034786088
-0.0019863767
-0.036117636
-0.0028226892
-0.037673042
-0.0036901026
-0.039343148
-0.0046511901
-0.04094948
-0.005679051
-0.042747619
-0.0067949896
-0.044525759
-0.0079970341
-0.046439516
-0.0092931417
-0.048394026
-0.010687597
-0.050455013
-0.01218519
-0.052590979
-0.013790782
-0.05482885
-0.015508201
-0.057163193
-0.017341419
-0.059607524
-0.019293422
-0.062166228
-0.02136708
-0.064849546
-0.023564168
-0.067665833
-0.025886271
-0.07062555
-0.028334387
-0.07373892
-0.030908828
-0.077017732
-0.033609783
-0.080473466
-0.036436454
-0.084119113
-0.039388591
-0.087967569
-0.042465172
-0.0920329
-0.045665626
-0.096328843
-0.048988998
-0.1008708
-0.052435027
-0.10567346
-0.056003915
-0.11075278
-0.059695812
-0.1161252
-0.063511654
-0.12180731
-0.067452944
-0.12781712
-0.071522073
-0.13417202
-0.075722074
-0.14089144
-0.080056275
-0.14799489
-0.084528963
-0.1555032
-0.089145847
-0.16343746
-0.093912103
-0.17182112
-0.09883477
-0.18067765
-0.10392078
-0.19003277
-0.10917805
-0.19991297
-0.11461512
-0.21034692
-0.12024129
-0.22136465
-0.12606596
-0.23299829
-0.13209953
-0.24528221
-0.13835274
-0.25825275
-0.14483697
-0.27194874
-0.15156442
-0.2864114
-0.15854705
-0.30168535
-0.16579827
-0.3178173
-0.17333106
-0.33485824
-0.18115985
-0.35286145
-0.18929912
-0.37188483
-0.19776378
-0.39199033
-0.2065693
-0.41324351
-0.21573207
-0.43571482
-0.22526874
-0.45948005
-0.23519652
-0.48462006
-0.24553341
-0.51122146
-0.25629748
-0.53937712
-0.26750807
-0.56918575
-0.27918446
-0.60075449
-0.29134692
-0.6341965
-0.30401623
-0.66963456
-0.31721335
-0.70719926
-0.33096101
-0.74703052
-0.34528097
-0.78927927
-0.36019575
-0.83410547
-0.37572871
-0.88168017
-0.39189916
-0.93218003
-0.40872743
-0.98579973
-0.42623602
-1.0427302
-0.44444034
-1.1031867
-0.46335985
-1.1673808
-0.48300922
-1.2355516
-0.50341276
-1.3079372
-0.52456492
-1.3847534
-0.54639675
-1.4663278
-0.56898296
-1.5530843
-1.6432924
-0.00057586795
-0.031923171
-0.0013958528
-0.033966109
-0.0021937757
-0.035319717
-0.0031205798
-0.036746244
-0.0040924567
-0.038371274
-0.0051670374
-0.039874906
-0.0063238127
-0.041590846
-0.0075803044
-0.043269274
-0.0089379839
-0.045081839
-0.010403327
-0.046928689
-0.011981936
-0.048876405
-0.013677946
-0.050894974
-0.015496298
-0.0530105
-0.017440189
-0.055219307
-0.019512966
-0.057534748
-0.02171677
-0.05996243
-0.024053298
-0.062513019
-0.026523389
-0.065195745
-0.029127409
-0.068021531
-0.03186489
-0.071001443
-0.034735296
-0.074147327
-0.037737139
-0.077471626
-0.040869498
-0.080986755
-0.044130762
-0.084706309
-0.047520013
-0.088643649
-0.051035944
-0.092812915
-0.054678366
-0.097228382
-0.058447245
-0.10190458
-0.062342793
-0.10685723
-0.066366946
-0.11210105
-0.070521225
-0.11765303
-0.074809283
-0.12352907
-0.079234388
-0.12974691
-0.08380148
-0.13632435
-0.08851588
-0.14328049
-0.093384377
-0.15063471