/*--------------------------------*- C++ -*----------------------------------*\
  =========                 |
  \\      /  F ield         | OpenFOAM: The Open Source CFD Toolbox
   \\    /   O peration     | Website:  https://openfoam.org
    \\  /    A nd           | Version:  6
     \\/     M anipulation  |
\*---------------------------------------------------------------------------*/
FoamFile
{
    version     2.0;
    format      ascii;
    class       volScalarField;
    location    "450";
    object      rho;
}
// * * * * * * * * * * * * * * * * * * * * * * * * * * * * * * * * * * * * * //

dimensions      [1 -3 0 0 0 0 0];

internalField   nonuniform List<scalar> 
16000
(
1.1554242
1.1610942
1.1593671
1.1607489
1.1602716
1.1610142
1.1609597
1.161471
1.1616092
1.1620236
1.1622648
1.1626406
1.1629421
1.1633088
1.1636481
1.1640198
1.1643848
1.1647671
1.1651509
1.1655449
1.1659428
1.166347
1.1667547
1.1671662
1.1675798
1.1679947
1.1684096
1.1688233
1.1692346
1.1696422
1.1700448
1.1704409
1.1708292
1.1712085
1.1715764
1.1719327
1.1722762
1.1726059
1.1729205
1.1732191
1.1735007
1.1737647
1.1740103
1.1742372
1.1744448
1.1746329
1.1748014
1.1749502
1.1750793
1.175189
1.1752795
1.175351
1.1754039
1.1754385
1.1754555
1.1754552
1.1754381
1.1754049
1.1753559
1.1752918
1.175213
1.1751206
1.1750143
1.1748961
1.1747635
1.1746222
1.1744611
1.1742999
1.1740996
1.1739294
1.1736605
1.1735244
1.1731119
1.1731479
1.1723313
1.1728857
1.1710359
1.1729993
1.1689972
1.1733742
1.155816
1.1615036
1.1596999
1.1611513
1.1606541
1.1614491
1.161394
1.1619443
1.1620937
1.1625388
1.1627987
1.1632012
1.1635249
1.1639166
1.1642793
1.1646749
1.1650632
1.1654685
1.1658746
1.1662902
1.1667088
1.1671327
1.1675589
1.1679874
1.1684165
1.1688451
1.1692718
1.1696954
1.1701142
1.170527
1.1709323
1.1713286
1.1717145
1.1720886
1.1724497
1.1727961
1.1731263
1.1734401
1.1737365
1.1740146
1.1742737
1.1745131
1.1747326
1.1749317
1.1751104
1.1752687
1.1754067
1.1755246
1.1756227
1.1757014
1.1757612
1.1758027
1.1758263
1.1758327
1.1758224
1.1757961
1.1757544
1.175698
1.1756272
1.1755428
1.1754453
1.1753353
1.1752133
1.1750801
1.1749352
1.1747804
1.1746118
1.174436
1.1742373
1.1740434
1.1737983
1.1736075
1.1732619
1.1731703
1.1725382
1.1728289
1.1713292
1.1728546
1.1692605
1.1733113
1.1563706
1.1620706
1.1602161
1.1617342
1.1612277
1.162068
1.1620214
1.1626056
1.1627732
1.1632465
1.1635292
1.1639573
1.1643055
1.1647215
1.1651087
1.1655279
1.1659398
1.1663675
1.1667956
1.1672318
1.1676701
1.1681121
1.168555
1.1689984
1.1694404
1.1698798
1.1703151
1.1707447
1.171167
1.1715806
1.1719837
1.172375
1.1727529
1.1731162
1.1734633
1.1737932
1.1741049
1.1743963
1.1746677
1.1749188
1.1751488
1.1753572
1.1755441
1.1757095
1.1758534
1.1759762
1.1760782
1.1761601
1.1762223
1.1762655
1.1762905
1.1762979
1.1762886
1.1762633
1.1762226
1.1761674
1.1760983
1.1760161
1.1759212
1.1758143
1.1756959
1.1755667
1.175427
1.1752774
1.175118
1.1749493
1.1747697
1.1745811
1.1743767
1.1741669
1.1739267
1.1737052
1.1733964
1.1732204
1.1727063
1.1728143
1.171566
1.1727379
1.1695057
1.1732175
1.157117
1.1628138
1.1609286
1.1625151
1.1620013
1.1628899
1.1628539
1.163475
1.1636632
1.1641673
1.1644755
1.1649315
1.1653068
1.1657494
1.1661634
1.166608
1.1670452
1.1674967
1.1679477
1.1684053
1.1688634
1.1693233
1.1697821
1.1702391
1.1706923
1.1711402
1.1715809
1.172013
1.1724346
1.172844
1.1732397
1.17362
1.1739835
1.1743289
1.1746548
1.1749602
1.1752443
1.1755063
1.1757446
1.17596
1.1761523
1.1763214
1.1764674
1.1765908
1.1766919
1.1767714
1.1768301
1.1768687
1.1768882
1.1768895
1.1768736
1.1768413
1.1767937
1.1767316
1.1766559
1.1765675
1.1764671
1.1763555
1.1762333
1.176101
1.1759592
1.1758084
1.175649
1.1754815
1.175306
1.1751227
1.1749306
1.17473
1.1745174
1.1742961
1.174055
1.1738146
1.1735242
1.1732983
1.1728564
1.1728298
1.171785
1.1726756
1.1697544
1.1732348
1.1580458
1.1637203
1.1618313
1.1634882
1.1629725
1.1639115
1.1638915
1.1645513
1.164765
1.1653017
1.1656396
1.1661256
1.1665311
1.1670022
1.1674451
1.1679166
1.1683804
1.1688564
1.1693308
1.1698094
1.1702866
1.1707632
1.171236
1.1717041
1.1721652
1.1726176
1.1730594
1.1734888
1.173904
1.174303
1.1746844
1.1750464
1.1753877
1.175707
1.1760033
1.1762756
1.1765233
1.1767458
1.1769433
1.1771143
1.1772603
1.1773818
1.1774789
1.1775526
1.1776036
1.1776331
1.177642
1.1776315
1.1776027
1.177557
1.1774954
1.1774191
1.1773293
1.1772269
1.1771131
1.1769886
1.1768543
1.176711
1.1765594
1.1763998
1.1762329
1.1760591
1.1758787
1.1756921
1.1754994
1.1753007
1.1750952
1.1748824
1.1746602
1.1744288
1.174183
1.1739301
1.1736474
1.1733887
1.1729979
1.1728664
1.1719859
1.1726487
1.169993
1.1732709
1.1591701
1.1648089
1.1629392
1.1646691
1.1641573
1.1651491
1.1651506
1.1658514
1.1660957
1.1666673
1.167039
1.1675571
1.167996
1.1684976
1.1689716
1.1694714
1.1699629
1.1704639
1.1709616
1.1714607
1.1719559
1.1724471
1.1729313
1.173407
1.1738719
1.1743241
1.1747614
1.1751817
1.1755833
1.1759643
1.176323
1.1766579
1.1769678
1.1772515
1.1775083
1.1777374
1.1779388
1.1781121
1.1782577
1.1783758
1.1784661
1.178531
1.1785708
1.1785869
1.1785804
1.1785528
1.1785054
1.1784398
1.1783574
1.1782597
1.178148
1.1780237
1.1778881
1.1777423
1.1775874
1.1774243
1.1772539
1.1770769
1.1768941
1.1767057
1.1765124
1.1763144
1.1761121
1.1759057
1.1756952
1.1754806
1.1752613
1.1750364
1.1748043
1.1745638
1.174312
1.1740505
1.1737702
1.1734911
1.1731354
1.1729257
1.1721812
1.1726499
1.1702396
1.1733396
1.1605075
1.1661233
1.1642742
1.1660786
1.1655755
1.1666213
1.1666492
1.1673923
1.1676716
1.1682798
1.1686888
1.1692409
1.1697158
1.1702494
1.1707561
1.1712852
1.1718048
1.1723306
1.1728508
1.1733689
1.1738795
1.1743822
1.1748738
1.1753523
1.1758152
1.1762605
1.1766857
1.1770888
1.1774679
1.1778211
1.178147
1.1784442
1.1787117
1.1789487
1.1791547
1.1793296
1.1794735
1.1795868
1.1796702
1.1797246
1.1797507
1.1797499
1.1797241
1.1796748
1.1796038
1.1795128
1.1794035
1.1792777
1.1791372
1.1789835
1.1788183
1.178643
1.178459
1.1782675
1.1780696
1.1778663
1.1776584
1.1774467
1.1772317
1.1770138
1.1767935
1.1765708
1.1763462
1.1761197
1.1758912
1.1756607
1.1754275
1.1751906
1.1749485
1.1746996
1.1744416
1.1741737
1.173893
1.1736019
1.1732709
1.1730045
1.1723749
1.1726683
1.1704886
1.1734338
1.1620653
1.167696
1.1658411
1.1677229
1.1672343
1.1683363
1.1683969
1.1691843
1.1695043
1.1701514
1.1706023
1.1711909
1.1717048
1.1722725
1.1728135
1.1733726
1.1739205
1.1744705
1.1750115
1.1755459
1.1760685
1.1765781
1.1770713
1.1775459
1.1779991
1.1784287
1.1788322
1.1792076
1.179553
1.1798667
1.1801476
1.1803945
1.1806068
1.1807843
1.1809269
1.1810352
1.1811096
1.1811514
1.1811617
1.1811421
1.1810943
1.1810191
1.1809198
1.1807981
1.1806562
1.1804961
1.18032
1.1801298
1.1799275
1.1797148
1.1794935
1.1792651
1.179031
1.1787925
1.1785506
1.1783063
1.1780603
1.1778134
1.177566
1.1773185
1.177071
1.1768238
1.176577
1.1763305
1.1760843
1.1758381
1.1755914
1.175343
1.1750914
1.1748349
1.1745711
1.1742988
1.1740163
1.1737194
1.1734051
1.1730989
1.1725693
1.1727068
1.1707547
1.1735579
1.1638354
1.1694957
1.1676421
1.1696065
1.1691408
1.170303
1.1704046
1.17124
1.1716077
1.1722973
1.1727951
1.1734232
1.1739795
1.1745831
1.1751598
1.1757492
1.1763247
1.1768969
1.1774558
1.1780022
1.1785313
1.1790409
1.1795278
1.1799892
1.1804224
1.1808248
1.1811943
1.1815288
1.1818266
1.1820866
1.1823078
1.1824898
1.1826324
1.182736
1.1828013
1.1828295
1.1828219
1.1827802
1.1827065
1.1826028
1.1824715
1.1823144
1.1821344
1.1819341
1.181716
1.1814824
1.1812357
1.1809781
1.1807116
1.1804381
1.1801593
1.1798769
1.1795921
1.1793063
1.1790204
1.1787352
1.1784514
1.1781697
1.1778904
1.1776138
1.1773399
1.1770687
1.1768003
1.1765346
1.1762714
1.1760103
1.1757507
1.1754915
1.1752313
1.174968
1.1746994
1.174424
1.17414
1.173842
1.1735385
1.1732075
1.1727642
1.1727629
1.1710389
1.1736962
1.1658379
1.1715454
1.1696969
1.1717499
1.1713157
1.1725422
1.1726935
1.1735804
1.1740029
1.1747384
1.1752881
1.1759586
1.1765598
1.1772007
1.1778135
1.1784322
1.179033
1.1796239
1.1801954
1.1807473
1.1812746
1.1817747
1.1822441
1.1826799
1.1830792
1.1834399
1.1837596
1.1840369
1.1842704
1.1844596
1.1846042
1.1847044
1.184761
1.1847751
1.1847483
1.1846825
1.18458
1.1844432
1.184275
1.1840779
1.183855
1.183609
1.1833424
1.1830587
1.1827603
1.1824502
1.1821307
1.1818041
1.1814724
1.1811376
1.1808013
1.1804651
1.1801303
1.1797979
1.1794688
1.1791438
1.1788235
1.1785082
1.1781983
1.1778937
1.1775946
1.1773007
1.177012
1.1767283
1.1764491
1.1761742
1.1759028
1.1756339
1.175366
1.1750971
1.1748249
1.1745479
1.1742632
1.1739677
1.1736712
1.1733286
1.1729585
1.1728372
1.1713472
1.1738403
1.1680947
1.1738593
1.172023
1.1741711
1.1737783
1.1750735
1.1752843
1.1762269
1.1767119
1.1774972
1.1781037
1.1788193
1.1794676
1.1801462
1.1807939
1.1814393
1.1820609
1.1826641
1.18324
1.1837873
1.184301
1.1847779
1.1852146
1.1856082
1.185956
1.186256
1.1865066
1.1867068
1.1868562
1.1869549
1.1870036
1.1870036
1.1869566
1.1868648
1.1867307
1.1865573
1.1863476
1.1861049
1.1858328
1.1855345
1.1852135
1.1848733
1.1845159
1.1841456
1.1837651
1.1833772
1.1829843
1.1825887
1.1821924
1.1817973
1.1814049
1.1810165
1.1806333
1.1802562
1.179886
1.1795232
1.1791683
1.1788214
1.1784828
1.1781523
1.1778297
1.1775149
1.1772076
1.1769074
1.1766138
1.1763265
1.1760448
1.1757675
1.1754933
1.1752202
1.1749459
1.1746685
1.1743847
1.1740945
1.1738027
1.17346
1.1731496
1.1729276
1.1716666
1.1739826
1.1706311
1.1764514
1.1746374
1.1768899
1.176551
1.1779209
1.178203
1.1792063
1.1797621
1.1806014
1.1812693
1.1820319
1.1827278
1.1834425
1.1841217
1.184788
1.1854222
1.1860274
1.1865952
1.1871231
1.1876063
1.1880414
1.1884251
1.1887548
1.1890285
1.1892446
1.1894027
1.1895025
1.1895448
1.189531
1.189463
1.1893432
1.1891746
1.1889606
1.1887047
1.188411
1.1880833
1.1877258
1.1873424
1.1869371
1.1865137
1.186076
1.1856262
1.1851686
1.1847059
1.184241
1.1837761
1.1833134
1.1828548
1.1824019
1.181956
1.1815182
1.1810896
1.1806708
1.1802624
1.1798647
1.179478
1.1791022
1.1787375
1.1783835
1.1780399
1.1777064
1.1773826
1.1770679
1.1767619
1.1764641
1.1761736
1.1758896
1.1756107
1.1753349
1.17506
1.174784
1.1745031
1.17422
1.1739319
1.1735987
1.173335
1.1730312
1.1719866
1.1741149
1.1734734
1.1793544
1.1775731
1.1799392
1.1796682
1.1811184
1.1814839
1.1825526
1.1831872
1.1840836
1.1848157
1.1856253
1.1863666
1.1871128
1.1878157
1.1884926
1.1891263
1.1897177
1.1902586
1.1907462
1.1911756
1.1915439
1.1918482
1.1920867
1.1922583
1.1923628
1.1924009
1.192374
1.1922842
1.1921344
1.1919281
1.1916691
1.1913618
1.1910107
1.1906205
1.1901961
1.1897422
1.1892635
1.1887644
1.1882492
1.1877219
1.1871865
1.1866453
1.186102
1.1855595
1.1850205
1.184487
1.1839609
1.1834438
1.1829371
1.1824418
1.1819588
1.1814887
1.1810321
1.1805892
1.1801603
1.1797452
1.179344
1.1789563
1.1785818
1.17822
1.1778705
1.1775326
1.1772059
1.1768897
1.1765833
1.1762862
1.1759973
1.1757153
1.1754386
1.175165
1.1748918
1.1746161
1.1743416
1.1740578
1.1737417
1.1735129
1.1731465
1.1723041
1.1742458
1.1766407
1.1825979
1.180862
1.1833521
1.1831658
1.184702
1.1851646
1.1863033
1.1870235
1.1879792
1.1887758
1.1896294
1.1904096
1.1911776
1.1918908
1.1925615
1.1931742
1.1937281
1.1942156
1.1946338
1.1949785
1.1952475
1.1954391
1.195553
1.1955897
1.1955507
1.1954386
1.1952565
1.1950087
1.1946997
1.1943347
1.193919
1.1934583
1.1929582
1.1924245
1.1918627
1.191278
1.1906755
1.1900599
1.1894355
1.1888063
1.1881761
1.1875469
1.1869223
1.1863049
1.1856969
1.1851001
1.184516
1.1839458
1.1833906
1.1828512
1.1823279
1.1818214
1.1813317
1.1808589
1.1804029
1.1799636
1.1795406
1.1791335
1.1787419
1.1783652
1.1780026
1.1776536
1.1773174
1.1769934
1.1766809
1.1763792
1.1760874
1.1758043
1.1755284
1.1752578
1.1749894
1.1747213
1.1744563
1.1741787
1.1738856
1.1736817
1.1732709
1.1726139
1.1743701
1.1801682
1.1862199
1.1845456
1.187171
1.1870894
1.188717
1.1892905
1.1905027
1.1913131
1.1923274
1.1931843
1.1940734
1.1948794
1.1956516
1.1963528
1.196991
1.1975523
1.1980349
1.1984325
1.1987426
1.1989627
1.1990921
1.1991312
1.1990818
1.1989467
1.1987299
1.1984361
1.198071
1.1976407
1.1971517
1.1966108
1.1960248
1.1954005
1.1947444
1.1940627
1.1933615
1.1926461
1.1919218
1.191193
1.1904639
1.1897382
1.1890194
1.1883089
1.1876098
1.1869245
1.1862546
1.1856015
1.1849662
1.1843497
1.1837525
1.1831751
1.1826176
1.1820801
1.1815627
1.181065
1.1805867
1.1801276
1.179687
1.1792645
1.1788595
1.1784711
1.1780987
1.1777415
1.1773987
1.1770696
1.1767534
1.1764495
1.1761569
1.1758746
1.1756015
1.1753355
1.1750737
1.1748154
1.1745609
1.1742923
1.1740262
1.1738382
1.1734026
1.1729176
1.1744805
1.1841
1.1902662
1.188674
1.1914453
1.1914919
1.1932145
1.1939132
1.1952017
1.1961021
1.1971682
1.1980737
1.1989804
1.1997884
1.2005356
1.2011902
1.2017567
1.2022235
1.2025888
1.2028484
1.2030015
1.2030483
1.2029908
1.2028322
1.2025775
1.2022324
1.2018038
1.2012991
1.2007264
1.2000937
1.1994093
1.1986814
1.1979178
1.1971259
1.1963127
1.1954847
1.1946478
1.1938072
1.1929678
1.1921336
1.1913082
1.1904949
1.1896965
1.1889138
1.1881494
1.1874051
1.186682
1.1859809
1.1853026
1.1846474
1.1840155
1.183407
1.1828217
1.1822594
1.1817199
1.1812026
1.1807071
1.1802328
1.1797791
1.1793452
1.1789305
1.178534
1.1781551
1.1777928
1.1774463
1.1771148
1.1767975
1.1764936
1.1762025
1.175923
1.1756544
1.1753947
1.1751415
1.1748947
1.1746517
1.1743958
1.1741588
1.1739787
1.1735391
1.1732111
1.1745726
1.1884858
1.1947852
1.1933013
1.1962282
1.1964341
1.1982556
1.1990887
1.2004527
1.2014349
1.2025346
1.2034643
1.2043574
1.2051286
1.205806
1.2063632
1.2068029
1.2071169
1.2073052
1.2073669
1.2073047
1.2071225
1.2068263
1.2064233
1.2059221
1.2053318
1.2046623
1.2039236
1.2031259
1.2022788
1.201392
1.2004742
1.1995337
1.1985782
1.1976143
1.1966482
1.1956853
1.1947302
1.1937871
1.1928592
1.1919494
1.1910604
1.1901941
1.1893502
1.1885314
1.1877383
1.1869719
1.1862322
1.1855196
1.184834
1.1841751
1.1835427
1.1829364
1.1823557
1.1818
1.1812686
1.1807609
1.1802762
1.1798136
1.1793724
1.1789518
1.1785508
1.1781686
1.1778043
1.177457
1.1771258
1.1768099
1.1765085
1.1762209
1.1759463
1.1756839
1.175432
1.175189
1.1749552
1.1747245
1.1744853
1.1742775
1.1740984
1.1736729
1.1734874
1.1746463
1.1934025
1.1998476
1.1985175
1.2016042
1.2020009
1.2039235
1.2048785
1.2062939
1.2073408
1.2084441
1.2093568
1.210186
1.2108608
1.2114024
1.2117908
1.21203
1.2121167
1.2120549
1.2118493
1.2115074
1.2110385
1.2104532
1.2097633
1.2089811
1.208119
1.2071895
1.2062046
1.2051757
1.2041135
1.2030278
1.2019273
1.20082
1.1997129
1.198612
1.1975225
1.1964489
1.1953948
1.1943633
1.1933567
1.1923771
1.1914265
1.1905055
1.189613
1.1887516
1.1879211
1.1871217
1.1863532
1.1856153
1.1849077
1.1842297
1.1835808
1.1829602
1.1823672
1.1818011
1.181261
1.1807461
1.1802556
1.1797885
1.1793439
1.1789211
1.178519
1.1781367
1.1777733
1.1774279
1.1770996
1.1767875
1.1764908
1.1762089
1.175941
1.1756864
1.1754437
1.1752123
1.1749921
1.1747751
1.174556
1.1743756
1.1741933
1.1737982
1.1737345
1.1746965
1.199005
1.205598
1.204494
1.2077106
1.2082733
1.2102488
1.2113377
1.2127857
1.2138491
1.214898
1.2157212
1.2164048
1.2168938
1.2172065
1.2173319
1.2172782
1.2170499
1.2166575
1.2161125
1.2154291
1.214622
1.213707
1.2127
1.2116162
1.2104707
1.2092772
1.2080486
1.2067965
1.2055312
1.2042618
1.2029962
1.2017412
1.2005024
1.1992846
1.1980917
1.1969269
1.1957927
1.1946909
1.1936229
1.1925898
1.1915926
1.1906308
1.1897032
1.1888113
1.1879547
1.1871329
1.1863453
1.1855911
1.1848697
1.1841803
1.1835218
1.1828934
1.1822942
1.1817232
1.1811795
1.1806621
1.1801701
1.1797025
1.1792583
1.1788367
1.1784366
1.1780572
1.1776974
1.1773565
1.1770334
1.1767274
1.1764375
1.1761632
1.1759038
1.1756584
1.1754262
1.1752073
1.175001
1.1747985
1.1746021
1.174446
1.1742618
1.1739106
1.1739416
1.1747189
1.2054289
1.2120731
1.2111944
1.2144729
1.2153296
1.2174221
1.2185488
1.2199459
1.2209357
1.221825
1.222446
1.2228663
1.2230497
1.2230164
1.2227676
1.2223193
1.221686
1.2208865
1.2199401
1.2188674
1.2176884
1.2164227
1.2150888
1.2137036
1.2122826
1.2108395
1.2093863
1.2079335
1.2064899
1.2050628
1.2036585
1.202282
1.2009372
1.1996273
1.1983546
1.1971209
1.1959274
1.1947748
1.1936633
1.1925934
1.1915652
1.1905766
1.1896268
1.1887165
1.1878447
1.1870105
1.1862129
1.185451
1.1847236
1.1840297
1.1833682
1.1827381
1.1821382
1.1815675
1.1810248
1.1805092
1.1800197
1.1795552
1.1791147
1.1786974
1.1783022
1.1779283
1.1775746
1.1772404
1.1769247
1.1766266
1.1763454
1.1760804
1.175831
1.1755963
1.1753757
1.1751699
1.1749774
1.1747903
1.1746168
1.1744829
1.1743061
1.174003
1.1740967
1.1747094
1.212637
1.219302
1.2187837
1.2222899
1.2232495
1.225283
1.2264258
1.2276505
1.2284428
1.2290328
1.2293033
1.2293132
1.2290494
1.2285408
1.2278041
1.2268663
1.2257526
1.2244905
1.223106
1.2216241
1.2200678
1.2184583
1.2168141
1.2151513
1.213484
1.2118238
1.2101806
1.2085622
1.2069752
1.2054246
1.2039143
1.2024473
1.2010255
1.1996505
1.198323
1.1970435
1.195812
1.1946278
1.1934906
1.1924003
1.1913557
1.1903534
1.1893937
1.188476
1.1875991
1.1867617
1.1859627
1.1852006
1.1844743
1.1837824
1.1831239
1.1824974
1.1819017
1.1813357
1.1807983
1.1802883
1.1798048
1.1793466
1.1789129
1.1785026
1.1781148
1.1777486
1.1774031
1.1770775
1.1767708
1.1764824
1.1762114
1.1759571
1.1757189
1.1754959
1.175288
1.1750958
1.1749168
1.1747454
1.1745944
1.1744814
1.1743167
1.1740545
1.174198
1.1746748
1.220946
1.227695
1.2275168
1.2309446
1.2320355
1.2338956
1.2348641
1.2357418
1.2361302
1.2362232
1.2359511
1.2353787
1.2345188
1.2334139
1.2320966
1.2306046
1.2289719
1.2272311
1.2254113
1.2235384
1.2216347
1.2197194
1.2178083
1.2159144
1.2140482
1.2122181
1.2104306
1.2086904
1.2070011
1.2053652
1.2037843
1.2022591
1.2007901
1.199377
1.1980193
1.1967162
1.1954666
1.194269
1.1931227
1.1920269
1.1909788
1.1899748
1.1890162
1.188101
1.187228
1.1863957
1.1856025
1.184847
1.1841279
1.1834437
1.1827932
1.182175
1.1815878
1.1810305
1.1805019
1.1800009
1.1795264
1.1790773
1.1786528
1.1782519
1.1778735
1.1775169
1.1771812
1.1768657
1.1765694
1.1762918
1.176032
1.1757894
1.1755633
1.175353
1.1751583
1.1749798
1.1748142
1.1746584
1.1745276
1.174429
1.1742764
1.1740668
1.1742412
1.1745975
1.2306986
1.2372381
1.237414
1.2406257
1.2416031
1.2430262
1.2435409
1.2438003
1.2435267
1.2428949
1.2418865
1.2405792
1.2390111
1.2372377
1.235303
1.2332503
1.2311163
1.2289333
1.226728
1.2245225
1.2223346
1.2201783
1.2180646
1.2160018
1.2139957
1.2120508
1.2101697
1.2083542
1.2066049
1.204922
1.2033049
1.2017527
1.2002641
1.1988378
1.1974721
1.1961654
1.1949154
1.1937205
1.1925797
1.191491
1.1904502
1.1894557
1.1885073
1.1876032
1.1867418
1.1859214
1.1851404
1.1843972
1.1836905
1.1830187
1.1823805
1.1817745
1.1811995
1.1806542
1.1801374
1.1796481
1.1791851
1.1787474
1.1783342
1.1779444
1.1775772
1.1772317
1.1769071
1.1766028
1.1763179
1.1760518
1.1758038
1.1755734
1.1753599
1.1751626
1.1749816
1.1748167
1.1746646
1.1745248
1.1744119
1.1743234
1.1741861
1.174031
1.1742084
1.1744606
1.2420488
1.2478729
1.2481503
1.2508265
1.2513787
1.2520335
1.2517659
1.2511163
1.2499318
1.2483853
1.2465074
1.2443885
1.2420843
1.2396548
1.2371462
1.2345988
1.232044
1.2295072
1.2270077
1.2245599
1.2221746
1.2198592
1.2176186
1.2154559
1.2133726
1.211369
1.2094448
1.2075989
1.2058295
1.204135
1.2025132
1.2009618
1.1994785
1.198061
1.1967069
1.1954138
1.1941789
1.1930008
1.191878
1.1908069
1.1897832
1.1888071
1.187877
1.1869912
1.1861479
1.1853453
1.1845819
1.183856
1.1831661
1.1825107
1.1818885
1.1812981
1.1807383
1.1802077
1.1797053
1.17923
1.1787806
1.1783563
1.177956
1.177579
1.1772242
1.176891
1.1765785
1.1762861
1.1760131
1.175759
1.1755231
1.1753049
1.1751038
1.1749194
1.1747517
1.1746001
1.1744615
1.1743374
1.1742398
1.1741592
1.1740396
1.1739333
1.174097
1.1742625
1.2540467
1.2590952
1.2592252
1.2609064
1.2606024
1.2600618
1.2586509
1.2568241
1.2545513
1.2520029
1.2492417
1.2463563
1.2434026
1.2404311
1.2374776
1.2345698
1.2317273
1.2289639
1.2262886
1.2237071
1.2212223
1.2188351
1.2165452
1.214351
1.2122506
1.2102414
1.2083203
1.2064845
1.2047306
1.2030557
1.2014564
1.1999298
1.1984728
1.1970826
1.1957564
1.1944911
1.1932843
1.1921346
1.1910395
1.1899943
1.1889959
1.1880453
1.18714
1.1862783
1.1854583
1.1846782
1.1839366
1.1832317
1.182562
1.1819262
1.1813228
1.1807505
1.1802081
1.1796944
1.1792083
1.1787486
1.1783144
1.1779047
1.1775186
1.1771553
1.1768138
1.1764935
1.1761937
1.1759136
1.1756528
1.1754105
1.1751864
1.17498
1.1747907
1.1746183
1.1744628
1.1743232
1.1741974
1.1740881
1.1740035
1.1739301
1.1738293
1.17376
1.1739001
1.1739955
1.2665519
1.2705169
1.2699805
1.2698598
1.2681367
1.2660005
1.2632179
1.2601387
1.2568134
1.2533805
1.2499021
1.2464421
1.2430381
1.2397191
1.2365026
1.2333999
1.230417
1.2275561
1.2248171
1.2221982
1.2196966
1.2173084
1.2150294
1.2128554
1.2107818
1.2088041
1.2069181
1.2051197
1.2034046
1.2017692
1.2002098
1.1987228
1.197305
1.1959533
1.1946646
1.1934357
1.1922648
1.1911502
1.1900879
1.1890732
1.1881059
1.1871849
1.1863082
1.185474
1.1846804
1.1839258
1.1832085
1.1825269
1.1818797
1.1812654
1.1806826
1.1801302
1.1796068
1.1791113
1.1786427
1.1781999
1.1777819
1.1773878
1.1770167
1.1766678
1.1763402
1.1760334
1.1757465
1.175479
1.1752303
1.1749998
1.1747872
1.1745919
1.1744136
1.1742521
1.1741073
1.1739782
1.1738636
1.1737668
1.1736925
1.1736263
1.1735453
1.1735052
1.1736157
1.1736534
1.2788605
1.2794049
1.2774622
1.2749569
1.2715682
1.2678553
1.26387
1.2598165
1.2557611
1.2517816
1.247912
1.2441799
1.2405978
1.2371719
1.2339028
1.230788
1.2278229
1.2250018
1.2223183
1.2197659
1.2173379
1.2150274
1.2128284
1.2107348
1.2087411
1.2068422
1.2050331
1.2033094
1.2016667
1.2001011
1.1986087
1.1971862
1.1958303
1.1945377
1.1933052
1.1921302
1.1910114
1.1899458
1.1889287
1.1879571
1.187032
1.186151
1.1853124
1.1845144
1.1837552
1.1830334
1.1823473
1.1816954
1.1810764
1.180489
1.1799319
1.1794039
1.1789037
1.1784305
1.177983
1.1775603
1.1771614
1.1767856
1.1764319
1.1760996
1.1757879
1.1754962
1.1752237
1.1749698
1.1747342
1.1745161
1.1743153
1.1741312
1.1739636
1.1738122
1.1736769
1.1735567
1.1734513
1.1733636
1.1732953
1.1732337
1.1731679
1.1731501
1.1732406
1.1732432
1.2849193
1.2823246
1.2787724
1.2745643
1.2700625
1.2654998
1.2609787
1.256587
1.2523565
1.2483116
1.2444574
1.2407942
1.2373153
1.2340133
1.2308789
1.2279029
1.2250762
1.22239
1.2198358
1.2174062
1.2150942
1.2128937
1.2107982
1.208802
1.2068997
1.2050864
1.2033575
1.2017087
1.200136
1.1986357
1.1972043
1.1958387
1.1945359
1.1932926
1.192106
1.1909748
1.1898973
1.1888692
1.1878863
1.1869491
1.1860562
1.1852058
1.1843962
1.1836256
1.1828925
1.1821954
1.1815327
1.1809032
1.1803054
1.1797382
1.1792002
1.1786904
1.1782077
1.177751
1.1773193
1.1769116
1.1765271
1.1761649
1.1758242
1.1755042
1.1752042
1.1749236
1.1746616
1.1744178
1.1741915
1.1739824
1.1737899
1.1736137
1.1734533
1.1733087
1.1731795
1.173065
1.1729653
1.1728822
1.1728157
1.1727579
1.1727058
1.1726897
1.1727354
1.1727367
1.2772256
1.2740639
1.2705021
1.2662839
1.2619899
1.2576988
1.2535223
1.249498
1.2456441
1.2419675
1.2384656
1.2351344
1.2319664
1.228954
1.226089
1.2233634
1.2207694
1.2182997
1.2159472
1.2137052
1.2115676
1.2095293
1.2075855
1.2057314
1.2039627
1.2022751
1.2006648
1.1991281
1.1976615
1.1962618
1.1949261
1.1936514
1.1924352
1.1912745
1.1901674
1.1891126
1.188107
1.1871461
1.1862283
1.1853538
1.1845205
1.1837269
1.1829714
1.1822524
1.1815685
1.1809183
1.1803003
1.1797135
1.1791565
1.1786281
1.1781273
1.1776529
1.177204
1.1767795
1.1763784
1.176
1.1756433
1.1753075
1.1749919
1.1746957
1.1744183
1.1741589
1.1739169
1.1736919
1.1734832
1.1732904
1.173113
1.1729507
1.1728031
1.17267
1.172551
1.1724457
1.1723542
1.1722772
1.1722143
1.1721621
1.1721208
1.1721024
1.1721147
1.172119
1.2428996
1.2498628
1.2501221
1.2496555
1.2478566
1.245613
1.2430083
1.2402723
1.2374686
1.2346719
1.2319121
1.2292154
1.226594
1.2240567
1.2216072
1.2192475
1.2169776
1.2147963
1.212702
1.2106925
1.2087652
1.2069169
1.2051448
1.2034462
1.2018183
1.2002586
1.1987645
1.1973336
1.1959634
1.1946518
1.1933966
1.1921957
1.1910468
1.189948
1.1888984
1.1878961
1.1869371
1.1860182
1.1851409
1.1843033
1.1835041
1.1827418
1.1820152
1.1813229
1.1806637
1.1800363
1.1794395
1.1788722
1.1783334
1.1778219
1.1773367
1.1768768
1.1764413
1.1760293
1.1756399
1.1752721
1.1749253
1.1745986
1.1742914
1.1740028
1.1737322
1.173479
1.1732425
1.1730222
1.1728176
1.1726281
1.1724534
1.1722929
1.1721463
1.1720133
1.1718936
1.1717869
1.171693
1.171612
1.1715435
1.1714869
1.1714424
1.1714122
1.1713974
1.1713942
1.2495408
1.2497276
1.2501621
1.2502563
1.2495785
1.2479255
1.2452906
1.2419303
1.2380875
1.2338975
1.2296897
1.2253803
1.2211672
1.2170169
1.213042
1.2093424
1.2058958
1.2028387
1.2001025
1.1976521
1.1955122
1.1936056
1.1919442
1.1904844
1.1892083
1.188053
1.1870165
1.1860695
1.1852161
1.1844834
1.1838245
1.1832132
1.1826442
1.1821096
1.1816038
1.1811227
1.1806639
1.1802258
1.1798078
1.1794067
1.1790227
1.1786563
1.1783052
1.1779705
1.1776525
1.1773503
1.1770632
1.1767905
1.1765315
1.1762857
1.1760524
1.1758312
1.1756208
1.1754214
1.1752305
1.17505
1.1748744
1.1747102
1.1745444
1.1743947
1.1742312
1.1740972
1.1739241
1.1738127
1.1736106
1.1735394
1.173274
1.1732767
1.1728839
1.1730306
1.1723995
1.1728125
1.1717883
1.1726534
1.1709748
1.1725998
1.1698483
1.1726988
1.1682648
1.1730682
1.1000619
1.1048755
1.1120981
1.1203204
1.1290823
1.1376951
1.1448092
1.1506404
1.1557533
1.1601902
1.1639711
1.1672613
1.1701113
1.1725801
1.1747334
1.1765556
1.1781363
1.1794285
1.1805179
1.1813575
1.1820396
1.1825146
1.1828718
1.1830501
1.1831273
1.1830719
1.1829427
1.1827605
1.1825255
1.1822518
1.1819445
1.181611
1.1812537
1.1808847
1.180512
1.1801406
1.1797744
1.1794164
1.1790698
1.1787336
1.1784087
1.1780966
1.177797
1.1775088
1.1772338
1.1769713
1.1767208
1.1764819
1.1762543
1.1760375
1.1758309
1.1756344
1.1754466
1.1752681
1.1750962
1.1749332
1.1747737
1.1746239
1.1744717
1.1743336
1.1741819
1.1740562
1.1738945
1.1737872
1.173598
1.1735248
1.1732766
1.1732715
1.1729047
1.1730273
1.1724386
1.17281
1.1718349
1.1726566
1.1710247
1.1726121
1.1698805
1.1727388
1.1682686
1.1731303
1.2062599
1.2070282
1.2093102
1.2120988
1.2129615
1.2121498
1.2107312
1.2090466
1.2072128
1.2053411
1.2034699
1.201649
1.199879
1.19819
1.1965779
1.1950488
1.1936223
1.1922808
1.1910924
1.1900041
1.188978
1.1880507
1.1871484
1.1863587
1.1856468
1.1850163
1.1844758
1.1839446
1.1834525
1.1828646
1.1823227
1.1818193
1.1813451
1.1808992
1.180477
1.1800756
1.1796928
1.1793271
1.1789779
1.17864
1.1783179
1.1780104
1.1777147
1.1774332
1.1771646
1.1769083
1.1766638
1.176431
1.1762094
1.1759987
1.1757982
1.1756076
1.1754257
1.1752529
1.1750865
1.1749288
1.1747742
1.174629
1.1744811
1.1743466
1.1741986
1.1740754
1.1739171
1.1738107
1.1736253
1.1735501
1.1733079
1.1732967
1.1729323
1.1730466
1.1724738
1.1728196
1.1718778
1.172656
1.1710726
1.1726019
1.169929
1.1727328
1.168304
1.1731403
1.1665467
1.1665544
1.169259
1.1745465
1.1778894
1.1788905
1.1793956
1.1798342
1.1802364
1.1806969
1.1811595
1.1816184
1.1820266
1.1824098
1.1825724
1.1829806
1.1830009
1.1833542
1.1832505
1.183478
1.1832852
1.1834025
1.1831494
1.1831448
1.1828154
1.1826698
1.1823752
1.1820773
1.1817639
1.1814524
1.1811287
1.1808009
1.1804709
1.1801404
1.179812
1.1794875
1.1791687
1.178857
1.1785523
1.1782562
1.177971
1.1776962
1.1774319
1.177178
1.1769344
1.1767013
1.1764786
1.176266
1.1760632
1.1758701
1.1756858
1.1755105
1.1753427
1.1751829
1.1750286
1.1748821
1.1747376
1.1746019
1.1744624
1.1743358
1.1741944
1.1740778
1.1739243
1.1738235
1.1736409
1.1735709
1.1733302
1.1733234
1.1729594
1.1730771
1.1724991
1.1728533
1.1719023
1.1726903
1.171094
1.1726381
1.1699494
1.1727633
1.1683206
1.1731664
1.1744017
1.1761846
1.1802753
1.1849492
1.186583
1.1868873
1.1866692
1.1865367
1.1863799
1.186256
1.1860759
1.1859103
1.1857111
1.1855244
1.1853131
1.1850882
1.1848581
1.1845975
1.1843443
1.184035
1.1837746
1.1834055
1.1831215
1.1827462
1.1824508
1.1820888
1.1817628
1.1814366
1.1811156
1.1807951
1.1804784
1.1801667
1.1798604
1.1795598
1.1792651
1.1789767
1.1786947
1.1784198
1.1781507
1.1778889
1.1776362
1.177392
1.1771561
1.1769288
1.1767102
1.1765004
1.1762993
1.176107
1.1759231
1.1757475
1.1755797
1.1754195
1.1752659
1.1751192
1.174977
1.1748414
1.1747071
1.1745805
1.1744494
1.1743301
1.1741954
1.1740843
1.1739362
1.173839
1.173661
1.1735926
1.1733565
1.1733488
1.172988
1.1731028
1.1725318
1.1728779
1.1719372
1.1727124
1.171131
1.1726548
1.1699827
1.1727809
1.1683444
1.1731847
1.1678975
1.1695808
1.17388
1.1787642
1.1809908
1.1813391
1.1812141
1.1813018
1.1813237
1.1814134
1.1814079
1.1814252
1.1813996
1.1813893
1.1813463
1.1813099
1.181249
1.1811919
1.181113
1.1810388
1.180937
1.1808505
1.180729
1.1806149
1.1804679
1.1803213
1.1801544
1.1799765
1.1797879
1.1795911
1.1793858
1.1791749
1.1789593
1.1787403
1.1785192
1.1782973
1.1780758
1.177856
1.1776372
1.1774222
1.1772125
1.1770079
1.1768087
1.1766155
1.1764286
1.1762482
1.1760745
1.1759075
1.1757472
1.1755935
1.175446
1.1753045
1.1751681
1.1750372
1.1749096
1.1747873
1.1746651
1.1745493
1.1744281
1.1743173
1.1741906
1.1740859
1.1739442
1.1738514
1.1736784
1.1736124
1.1733806
1.1733729
1.1730169
1.173129
1.172561
1.1729039
1.1719679
1.1727371
1.1711597
1.1726778
1.1700109
1.1728004
1.168366
1.1732024
1.1670399
1.1691041
1.1738612
1.1784626
1.1800919
1.1803983
1.1803062
1.1803174
1.1802569
1.1802648
1.180211
1.1802138
1.1801637
1.1801505
1.1801038
1.1800658
1.1800024
1.1799463
1.1798729
1.1797974
1.1797114
1.1796162
1.1795146
1.1794029
1.1792864
1.1791606
1.1790288
1.178891
1.1787476
1.178598
1.1784426
1.1782834
1.1781204
1.1779543
1.1777858
1.1776156
1.1774445
1.1772733
1.1771009
1.1769307
1.1767635
1.176599
1.1764377
1.1762801
1.1761266
1.1759775
1.1758331
1.1756934
1.1755585
1.1754283
1.1753026
1.1751813
1.1750635
1.1749497
1.1748377
1.1747295
1.1746204
1.1745159
1.1744053
1.1743034
1.1741853
1.174087
1.1739522
1.1738634
1.1736963
1.1736318
1.1734055
1.1733965
1.1730462
1.1731539
1.172594
1.1729283
1.1720022
1.1727597
1.1711951
1.1726969
1.1700419
1.1728177
1.1683886
1.173218
1.1645182
1.1668679
1.1719805