/*--------------------------------*- C++ -*----------------------------------*\
  =========                 |
  \\      /  F ield         | OpenFOAM: The Open Source CFD Toolbox
   \\    /   O peration     | Website:  https://openfoam.org
    \\  /    A nd           | Version:  6
     \\/     M anipulation  |
\*---------------------------------------------------------------------------*/
FoamFile
{
    version     2.0;
    format      ascii;
    class       volScalarField;
    location    "450";
    object      T;
}
// * * * * * * * * * * * * * * * * * * * * * * * * * * * * * * * * * * * * * //

dimensions      [0 0 0 1 0 0 0];

internalField   nonuniform List<scalar> 
16000
(
297.48627
296.28413
296.71369
296.54486
296.69401
296.6646
296.7377
296.7506
296.80019
296.82882
296.87107
296.90645
296.94701
296.98575
297.02663
297.0674
297.10923
297.15142
297.19425
297.23748
297.28113
297.32506
297.36921
297.41347
297.45774
297.5019
297.54582
297.5894
297.63248
297.67495
297.71666
297.75746
297.79724
297.83584
297.87304
297.9088
297.94302
297.97558
298.00636
298.03526
298.06219
298.08708
298.10987
298.13051
298.14895
298.16519
298.1792
298.19098
298.20055
298.20794
298.21318
298.21631
298.21741
298.21653
298.21376
298.20916
298.20282
298.19483
298.18528
298.17428
298.1619
298.14824
298.13333
298.11737
298.1003
298.08269
298.06407
298.04605
298.02643
298.00995
297.98886
297.9772
297.94946
297.95321
297.90821
297.95455
297.86748
297.99755
297.84415
298.05229
297.5042
296.31199
296.75962
296.58774
296.74246
296.71296
296.78924
296.80387
296.8558
296.88676
296.93111
296.96893
297.01162
297.05275
297.09582
297.13888
297.18289
297.22726
297.27218
297.31745
297.36303
297.4088
297.45465
297.50048
297.54615
297.59155
297.63652
297.68094
297.72465
297.76751
297.80936
297.85008
297.8895
297.92748
297.96391
297.99861
298.03142
298.06234
298.09125
298.11807
298.14273
298.16516
298.18533
298.20322
298.21881
298.23209
298.2431
298.25184
298.25837
298.26271
298.26495
298.26513
298.26333
298.25965
298.25417
298.24698
298.23815
298.2278
298.21602
298.20291
298.18855
298.17303
298.15641
298.13881
298.12028
298.10113
298.08131
298.06163
298.04134
298.02257
298.00179
297.98636
297.96319
297.95707
297.92349
297.95022
297.8855
297.98607
297.86327
298.0338
297.543
296.36513
296.82399
296.65058
296.80961
296.78201
296.86077
296.87813
296.93222
296.96603
297.01262
297.0532
297.09824
297.14199
297.18746
297.233
297.27934
297.32603
297.37315
297.42052
297.46806
297.51564
297.56315
297.61044
297.65738
297.70381
297.74957
297.79452
297.83849
297.88133
297.92287
297.96296
298.00145
298.0382
298.07308
298.10596
298.13676
298.16526
298.1915
298.21542
298.23697
298.25611
298.27283
298.28714
298.29904
298.30858
298.31579
298.32073
298.32346
298.32406
298.32261
298.31919
298.31391
298.30685
298.29813
298.28784
298.27608
298.26294
298.24853
298.23297
298.21632
298.19868
298.1801
298.16068
298.14049
298.11974
298.09855
298.07737
298.05608
298.03569
298.01483
297.99675
297.97547
297.96435
297.93668
297.95037
297.90148
297.98048
297.87987
298.03214
297.60136
296.443
296.90762
296.73388
296.89688
296.87172
296.95298
296.97345
297.02985
297.06678
297.1158
297.15933
297.20691
297.25344
297.30144
297.34957
297.39834
297.44739
297.49671
297.54615
297.59559
297.64488
297.69388
297.74242
297.79035
297.83749
297.88368
297.92873
297.97248
298.01475
298.05538
298.09421
298.1311
298.1659
298.19849
298.22877
298.25664
298.28205
298.30482
298.32503
298.34268
298.35774
298.37025
298.38023
298.38773
298.39284
298.39561
298.39613
298.3945
298.39081
298.38517
298.37769
298.36848
298.35765
298.34531
298.33159
298.31658
298.30038
298.28309
298.26484
298.24569
298.22574
298.20503
298.18364
298.16165
298.13922
298.1165
298.09381
298.07127
298.0494
298.02777
298.00793
297.98709
297.97236
297.94895
297.95275
297.91494
297.97788
297.89405
298.03042
297.67893
296.54719
297.01084
296.83825
297.00463
296.98294
297.06653
297.09076
297.14957
297.19005
297.24171
297.28851
297.33887
297.3884
297.43914
297.49002
297.54134
297.59283
297.6444
297.6959
297.74716
297.79803
297.84832
297.89787
297.94646
297.99393
298.04008
298.08471
298.12764
298.16871
298.20772
298.24454
298.27901
298.31102
298.34045
298.36722
298.39126
298.41254
298.43103
298.44662
298.45946
298.46959
298.47703
298.48188
298.48422
298.48416
298.4818
298.47727
298.47067
298.46214
298.45181
298.43979
298.42622
298.41122
298.39492
298.37744
298.35889
298.33936
298.31896
298.29781
298.27598
298.25355
298.23057
298.2071
298.18321
298.15903
298.13471
298.11052
298.08665
298.06346
298.0409
298.01966
297.9987
297.98165
297.96058
297.95765
297.92759
297.97742
297.90709
298.0336
297.77626
296.67595
297.13419
296.96438
297.13363
297.11648
297.20238
297.23101
297.29245
297.3369
297.3915
297.44187
297.49527
297.54803
297.6017
297.65545
297.70943
297.76339
297.81718
297.87064
297.92357
297.97578
298.02707
298.07722
298.12603
298.17329
298.21879
298.26232
298.3037
298.34274
298.37928
298.41316
298.44427
298.4725
298.49777
298.52002
298.53923
298.55538
298.5685
298.57862
298.58572
298.59002
298.59158
298.59052
298.58697
298.58106
298.57295
298.56279
298.55071
298.53687
298.52141
298.50448
298.48622
298.46676
298.44623
298.42476
298.40246
298.37943
298.35576
298.33158
298.30694
298.28193
298.25659
298.23097
298.20513
298.17915
298.1532
298.12749
298.10226
298.07778
298.05415
298.03175
298.01029
297.99153
297.97192
297.96449
297.93976
297.97842
297.91848
298.03878
297.89559
296.82309
297.27963
297.1143
297.28581
297.27422
297.36237
297.39599
297.46028
297.50907
297.56689
297.62109
297.67777
297.73393
297.79069
297.8474
297.90406
297.96045
298.01636
298.0716
298.12593
298.17914
298.23098
298.28122
298.32963
298.37598
298.42005
298.46162
298.50051
298.53653
298.56954
298.59942
298.62605
298.64937
298.66933
298.68593
298.69918
298.70912
298.71583
298.71939
298.71989
298.71746
298.7123
298.70456
298.69441
298.68203
298.6676
298.65129
298.63328
298.61373
298.59281
298.57067
298.54745
298.5233
298.49836
298.47273
298.44655
298.4199
298.39287
298.36557
298.33808
298.31044
298.2827
298.2549
298.22708
298.19931
298.17173
298.14452
298.11793
298.09221
298.06753
298.0441
298.022
298.00198
297.98299
297.97221
297.95181
297.98109
297.93084
298.04543
298.03885
296.99071
297.44826
297.2892
297.46242
297.45739
297.54784
297.58701
297.65444
297.70795
297.76932
297.82761
297.88783
297.94756
298.00753
298.06725
298.12656
298.18527
298.24309
298.2998
298.35513
298.40882
298.46059
298.5102
298.55739
298.60191
298.64353
298.68206
298.7173
298.7491
298.77733
298.80191
298.82277
298.83989
298.85327
298.86298
298.86907
298.87166
298.87087
298.86686
298.8598
298.84978
298.83712
298.822
298.80464
298.78524
298.76401
298.74115
298.71685
298.6913
298.66467
298.63712
298.60879
298.57984
298.55038
298.52054
298.49042
298.46012
298.42971
298.39929
298.36893
298.33867
298.30855
298.27859
298.24883
298.2193
298.19013
298.16147
298.13356
298.10665
298.08093
298.05657
298.03377
298.01282
297.99402
297.98061
297.96371
297.98499
297.94213
298.05139
298.20626
297.18093
297.64044
297.4896
297.66421
297.66689
297.75989
297.80529
297.87631
297.93498
298.00031
298.063
298.12705
298.1905
298.2538
298.3165
298.37836
298.43914
298.49852
298.55622
298.61194
298.66538
298.71623
298.76423
298.8091
298.8506
298.88851
298.92263
298.95281
298.97893
299.00091
299.01871
299.03233
299.04181
299.04724
299.04872
299.0464
299.04046
299.03109
299.01851
299.00296
298.98461
298.96376
298.94066
298.91556
298.8887
298.86031
298.83061
298.79981
298.76808
298.73561
298.70256
298.66908
298.63529
298.60132
298.56728
298.53327
298.49936
298.46563
298.43216
298.399
298.36618
298.33375
298.3017
298.27006
298.23885
298.20816
298.17813
298.14898
298.12096
298.09425
298.06906
298.04556
298.02393
298.00505
297.98976
297.97548
297.98968
297.95378
298.0588
298.3984
297.39814
297.85763
297.71713
297.8929
297.90448
298.0004
298.05272
298.12786
298.19213
298.26187
298.32924
298.39735
298.46463
298.53123
298.59676
298.66089
298.72332
298.78367
298.84164
298.89686
298.94901
298.99777
299.04286
299.08399
299.12095
299.15354
299.18159
299.20501
299.22374
299.23777
299.24712
299.25188
299.25217
299.24817
299.24006
299.22807
299.21245
299.19348
299.17144
299.1466
299.11925
299.08963
299.05808
299.02488
298.99028
298.95452
298.91784
298.88043
298.84249
298.80419
298.76569
298.72711
298.68858
298.6502
298.61208
298.5743
298.53692
298.5
298.4636
298.42776
298.39252
298.35789
298.32388
298.29047
298.25769
298.2256
298.19431
298.16402
298.13496
298.10736
298.08142
298.05728
298.03514
298.01601
297.99943
297.98705
297.99485
297.96489
298.06551
298.61448
297.64338
298.10176
297.97377
298.15061
298.17226
298.27163
298.33153
298.41139
298.48169
298.55626
298.62854
298.70087
298.77193
298.84168
298.90968
298.97555
299.0389
299.09934
299.15648
299.20994
299.25937
299.30446
299.34491
299.38049
299.411
299.43629
299.45629
299.47097
299.48034
299.4845
299.48357
299.47775
299.46725
299.45233
299.43329
299.41044
299.38411
299.35464
299.32237
299.28762
299.25076
299.21199
299.17171
299.13021
299.08776
299.04459
299.00095
298.95701
298.91297
298.86899
298.82519
298.7817
298.73863
298.69606
298.65407
298.61272
298.57208
298.53216
298.49303
298.45471
298.41722
298.38057
298.34475
298.30973
298.27554
298.24218
298.20977
298.17846
298.1485
298.12011
298.0935
298.0688
298.04631
298.02682
298.00947
297.99837
298.00044
297.9762
298.07218
298.84954
297.91867
298.37484
298.26168
298.4397
298.47269
298.57617
298.64435
298.72959
298.80632
298.8861
298.9634
299.03993
299.11452
299.18697
299.25678
299.32348
299.38664
299.4458
299.50054
299.55048
299.59526
299.63459
299.66821
299.69594
299.71766
299.73333
299.74295
299.74661
299.74446
299.73671
299.7236
299.70544
299.68256
299.65534
299.62416
299.58942
299.55151
299.51084
299.46779
299.42274
299.37608
299.328
299.27894
299.22916
299.17895
299.12853
299.07812
299.0279
298.97802
298.92863
298.87984
298.83174
298.78443
298.73797
298.6924
298.64779
298.60416
298.56152
298.51991
298.47935
298.43984
298.40138
298.36395
298.32752
298.29208
298.25765
298.22428
298.19212
298.16138
298.13232
298.10515
298.07998
298.05722
298.03733
298.01962
298.00929
298.00637
297.98715
298.0778
299.11394
298.22678
298.67967
298.58384
298.76332
298.80889
298.91729
298.9944
299.08568
299.16914
299.25432
299.33653
299.41697
299.49449
299.56877
299.63923
299.70533
299.76659
299.8225
299.87267
299.91669
299.95427
299.98515
300.00919
300.0263
300.03648
300.03982
300.03648
300.02668
300.01073
299.98898
299.96181
299.92967
299.893
299.85228
299.80797
299.76055
299.71048
299.6582
299.60413
299.54866
299.49219
299.43492
299.37725
299.31946
299.2618
299.20447
299.14768
299.09156
299.03625
298.98187
298.9285
298.87621
298.82507
298.7751
298.72634
298.67881
298.63253
298.5875
298.54373
298.50121
298.45995
298.41993
298.38113
298.34351
298.30704
298.27172
298.23759
298.20475
298.17341
298.14381
298.11617
298.09066
298.0677
298.04742
298.02962
298.01959
298.01251
297.99708
298.08226
299.40916
298.5711
299.01971
298.94379
299.12521
299.18457
299.29879
299.3854
299.48323
299.57352
299.66403
299.75068
299.83424
299.91356
299.98819
300.05745
300.12079
300.17766
300.2276
300.27021
300.30518
300.33229
300.35143
300.36259
300.36584
300.36137
300.34943
300.33039
300.30464
300.27266
300.23495
300.19206
300.14455
300.09297
300.03788
299.97982
299.91932
299.85687
299.79293
299.72793
299.66225
299.59627
299.5302
299.46437
299.39905
299.33446
299.27077
299.20813
299.14667
299.08648
299.02765
298.97022
298.91424
298.85974
298.80672
298.75521
298.70519
298.65667
298.60961
298.56402
298.51987
298.47717
298.43587
298.39596
298.35739
298.32013
298.28415
298.24946
298.21615
298.18437
298.15438
298.1264
298.10066
298.07755
298.05694
298.03926
298.02898
298.01839
298.00639
298.0857
299.73837
298.95555
299.39893
299.34567
299.52975
299.60406
299.72507
299.82154
299.9262
300.02306
300.11832
300.20835
300.29354
300.3727
300.44529
300.51058
300.56799
300.61702
300.65728
300.68846
300.71042
300.7231
300.72659
300.72109
300.70692
300.68448
300.65427
300.61685
300.57283
300.52286
300.46759
300.40772
300.34388
300.27674
300.20689
300.13493
300.0614
299.98678
299.91154
299.83607
299.76074
299.68589
299.61166
299.53836
299.46623
299.39542
299.32607
299.25829
299.19217
299.12775
299.06509
299.00421
298.94512
298.88781
298.83227
298.77849
298.72644
298.67609
298.62742
298.58038
298.53497
298.49114
298.44888
298.40814
298.36888
298.33107
298.29466
298.25964
298.22607
298.19406
298.16385
298.13565
298.10978
298.08656
298.06573
298.04834
298.03764
298.02428
298.0151
298.08783
300.10498
299.38498
299.82228
299.79451
299.98221
300.07242
300.20114
300.30753
300.41875
300.52128
300.61989
300.71126
300.79551
300.8714
300.93833
300.99561
301.04273
301.0793
301.10509
301.12004
301.12422
301.11788
301.10137
301.07521
301.03998
300.99636
300.94511
300.88701
300.82286
300.75346
300.67961
300.60209
300.5216
300.43884
300.35444
300.26897
300.18295
300.09686
300.01109
299.926
299.8419
299.75909
299.67763
299.59778
299.51972
299.44357
299.36941
299.29731
299.22729
299.15939
299.0936
299.02993
298.96834
298.90881
298.8513
298.79577
298.74217
298.69047
298.6406
298.59252
298.5462
298.5016
298.45868
298.41741
298.37773
298.33962
298.30302
298.2679
298.23429
298.20226
298.172
298.14373
298.11783
298.09454
298.0736
298.05652
298.04513
298.03007
298.02364
298.08804
300.51271
299.86559
300.29586
300.29626
300.48857
300.59525
300.73235
300.84811
300.96477
301.07087
301.17015
301.25943
301.33865
301.40658
301.46269
301.50641
301.53745
301.55568
301.56119
301.55427
301.53535
301.50506
301.46414
301.41343
301.35383
301.28633
301.2119
301.13152
301.04616
300.95671
300.86406
300.769
300.67228
300.57455
300.47642
300.37841
300.28098
300.18454
300.08942
299.99588
299.90421
299.8146
299.727
299.64169
299.55875
299.47824
299.40021
299.32466
299.25159
299.18099
299.11282
299.04704
298.98361
298.92246
298.86355
298.8068
298.75215
298.69955
298.64891
298.60019
298.55335
298.50832
298.46507
298.42355
298.38373
298.34557
298.30901
298.27401
298.24058
298.20875
298.17864
298.15047
298.12464
298.1013
298.08038
298.0636
298.05126
298.03549
298.03109
298.08632
300.96336
300.40562
300.82765
300.85903
301.05677
301.18005
301.32448
301.44686
301.56667
301.67278
301.76819
301.85001
301.91807
301.97136
302.00959
302.03253
302.04028
302.03319
302.01183
301.97696
301.92952
301.87058
301.80128
301.72282
301.63643
301.54329
301.44459
301.34141
301.2348
301.1257
301.01498
300.90339
300.79163
300.68029
300.56988
300.46083
300.35351
300.24824
300.14524
300.04472
299.94687
299.85176
299.75929
299.6697
299.583
299.4992
299.41828
299.34021
299.26495
299.19244
299.12263
299.05545
298.99082
298.92866
298.8689
298.81146
298.75625
298.7032
298.65223
298.60326
298.55626
298.51114
298.46788
298.42642
298.38672
298.34874
298.31244
298.27779
298.24474
298.21332
298.18357
298.1557
298.13004
298.1067
298.0859
298.06936
298.05606
298.04014
298.03729
298.08317
301.46718
301.0164
301.42722
301.49314
301.69556
301.83091
301.98188
302.10789
302.22537
302.32522
302.40938
302.47554
302.52369
302.55332
302.56464
302.55802
302.53423
302.49426
302.43931
302.37075
302.29005
302.19871
302.09828
301.99023
301.876
301.75693
301.63425
301.50907
301.38241
301.25515
301.12806
301.00181
300.87695
300.75396
300.63323
300.51507
300.39974
300.28742
300.17825
300.07235
299.96983
299.87062
299.77462
299.68199
299.59267
299.50663
299.4238
299.34412
299.26752
299.19389
299.12317
299.05526
298.99005
298.92746
298.8674
298.80976
298.75445
298.7014
298.65049
298.60167
298.55486
298.50999
298.46702
298.4259
298.38657
298.34902
298.31319
298.27906
298.24659
298.21577
298.1866
298.15923
298.13389
298.11065
298.09001
298.07359
298.05936
298.04372
298.04214
298.07825
302.03947
301.71022
302.10208
302.20025
302.39883
302.55631
302.70667
302.82952
302.93609
303.01963
303.08171
303.12086
303.1377
303.13257
303.10654
303.06088
302.99721
302.91731
302.82309
302.71649
302.59945
302.47385
302.34145
302.20388
302.06263
301.91901
301.7742
301.62921
301.4849
301.342
301.20112
301.06275
300.9273
300.79509
300.66635
300.54127
300.41998
300.30254
300.18899
300.07939
299.97373
299.87183
299.77362
299.67914
299.58832
299.50106
299.41727
299.33686
299.2597
299.1857
299.11475
299.04673
298.98154
298.91906
298.85919
298.80183
298.74686
298.6942
298.64375
298.59543
298.54915
298.50484
298.46246
298.42193
298.38323
298.34632
298.31116
298.27772
298.24599
298.21593
298.18753
298.16088
298.13606
298.11308
298.09265
298.07619
298.06117
298.04569
298.04551
298.07178
302.68578
302.48288
302.84922
302.98773
303.21124
303.35756
303.4962
303.60272
303.68481
303.73748
303.76295
303.7609
303.73314
303.68121
303.60738
303.51399
303.4036
303.27874
303.14193
302.99553
302.84174
302.68258
302.51981
302.35501
302.18952
302.02448
301.86085
301.69943
301.54084
301.38559
301.23409
301.08664
300.94344
300.80466
300.67038
300.54067
300.41551
300.29488
300.17872
300.06705
299.95975
299.85648
299.75728
299.66209
299.5708
299.48328
299.3994
299.31904
299.24207
299.16837
299.09781
299.03027
298.96561
298.90374
298.84453
298.78786
298.73364
298.68175
298.6321
298.58459
298.53915
298.4957
298.45418
298.41451
298.37667
298.34061
298.30629
298.27372
298.24285
298.21367
298.18618
298.16042
298.13636
298.11394
298.09392
298.07724
298.06117
298.04582
298.04768
298.06432
303.41714
303.35251
303.72796
303.88441
304.082
304.2168
304.33149
304.40347
304.44328
304.44699
304.41877
304.36006
304.27439
304.16483
304.03492
303.88803
303.72746
303.55625
303.37718
303.19272
303.00499
302.81585
302.62682
302.43919
302.25399
302.07203
301.89399
301.72033
301.55145
301.38758
301.22892
301.07555
300.92753
300.78485
300.64746
300.51532
300.3883
300.26629
300.1492
300.03697
299.92933
299.82592
299.72686
299.63198
299.54115
299.45421
299.37102
299.29143
299.21531
299.1425
299.07289
299.00632
298.94269
298.88185
298.8237
298.76811
298.71498
298.6642
298.61566
298.56928
298.52496
298.48262
298.44221
298.40364
298.36687
298.33187
298.29859
298.26702
298.23714
298.20894
298.18244
298.15767
298.13453
298.11298
298.09374
298.07707
298.06015
298.04475
298.04785
298.05607
304.25138
304.35425
304.69322
304.84931
305.02111
305.11824
305.18199
305.19503
305.16872
305.10271
305.00317
304.87395
304.72022
304.54646
304.35713
304.15615
303.94707
303.7329
303.51622
303.29916
303.08345
302.87047
302.66131
302.4568
302.25754
302.064
301.87646
301.69513
301.52009
301.35137
301.18895
301.03275
300.88267
300.73857
300.60032
300.46776
300.34069
300.21893
300.10239
299.9909
299.88404
299.78163
299.68368
299.59
299.50044
299.41482
299.33299
299.25479
299.18008
299.10869
299.0405
298.97537
298.91316
298.85375
298.79702
298.74284
298.69111
298.64173
298.59458
298.54957
298.50662
298.46565
298.42657
298.38932
298.35384
298.32009
298.28803
298.25763
298.22888
298.20177
298.17633
298.15258
298.13041
298.10988
298.09158
298.07529
298.05842
298.04347
298.04518
298.04708
305.20334
305.45646
305.74025
305.86698
305.97562
306.0033
305.98524
305.91199
305.79699
305.64388
305.46102
305.25429
305.02994
304.7931
304.54831
304.29931
304.04914
303.80024
303.5545
303.31337
303.07792
302.84891
302.62687
302.41215
302.20492
302.00526
301.81317
301.62856
301.4513
301.28123
301.11818
300.96192
300.81225
300.66895
300.5318
300.40056
300.27499
300.15491
300.0402
299.93053
299.82545
299.72497
299.62896
299.53725
299.44965
299.36598
299.28609
299.20981
299.13699
299.06747
299.00113
298.93781
298.87738
298.81973
298.76473
298.71226
298.66221
298.61448
298.56896
298.52557
298.48421
298.4448
298.40726
298.37153
298.33754
298.30524
298.27459
298.24554
298.21808
298.19219
298.16791
298.14522
298.12407
298.10457
298.08722
298.07147
298.05527
298.04132
298.04118
298.03798
306.25408
306.61208
306.8079
306.86243
306.86813
306.78929
306.65868
306.47621
306.25741
306.00958
305.74218
305.46181
305.17448
304.88469
304.59604
304.31119
304.03211
303.76021
303.49642
303.24135
302.99535
302.75858
302.53104
302.31264
302.10322
301.90254
301.71036
301.52641
301.35039
301.18202
301.021
300.86705
300.71987
300.57921
300.44479
300.31632
300.19355
300.07634
299.96447
299.85748
299.75504
299.65726
299.56389
299.47476
299.38969
299.3085
299.23103
299.15711
299.08659
299.01933
298.95518
298.894
298.83567
298.78006
298.72706
298.67655
298.62842
298.58257
298.5389
298.49731
298.45774
298.42008
298.38427
298.35024
298.31792
298.28725
298.25818
298.23068
298.20469
298.18021
298.15725
298.13576
298.11571
298.09728
298.08081
298.06566
298.05053
298.03834
298.03608
298.0293
307.51043
307.73639
307.79372
307.72331
307.58111
307.36363
307.10102
306.80208
306.48205
306.14935
305.81206
305.47543
305.14356
304.81918
304.50414
304.1996
303.90624
303.62435
303.35399
303.09504
302.84725
302.61031
302.38384
302.16745
301.96074
301.7633
301.57472
301.39463
301.22264
301.05839
300.90154
300.75174
300.6087
300.47212
300.34169
300.21712
300.0982
299.98478
299.87648
299.77284
299.67382
299.57932
299.48915
299.40312
299.32105
299.24276
299.16811
299.09692
299.02905
298.96436
298.90271
298.84396
298.78799
298.73469
298.68393
298.6356
298.58961
298.54585
298.50423
298.46466
298.42705
298.39133
298.35741
298.32525
298.29475
298.26588
298.23858
298.2128
298.18849
298.16564
298.14422
298.12418
298.10548
298.0883
298.07279
298.05833
298.04426
298.03339
298.02957
298.02277
308.61742
308.64201
308.49603
308.25097
307.94018
307.58346
307.2035
306.81205
306.41979
306.0327
305.65532
305.29033
304.93918
304.60258
304.28069
303.97335
303.6802
303.40074
303.13442
302.88066
302.63883
302.40836
302.18866
301.97918
301.77942
301.58887
301.4071
301.23365
301.06814
300.91017
300.75938
300.61544
300.47805
300.34689
300.22164
300.10206
299.988
299.87921
299.77521
299.6757
299.58076
299.49018
299.40378
299.32137
299.24279
299.16788
299.09647
299.02842
298.96358
298.90181
298.843
298.787
298.7337
298.68299
298.63475
298.58888
298.54529
298.50386
298.46453
298.42718
298.39176
298.35817
298.32636
298.29624
298.26777
298.24088
298.21552
298.19163
298.16919
298.14816
298.12851
298.11019
298.09316
298.07757
298.06343
298.05018
298.03759
298.02802
298.02312
298.01307
309.0815
308.91947
308.57928
308.18584
307.75802
307.32026
306.88523
306.46045
306.05048
305.65736
305.282
304.92421
304.58367
304.25972
303.95159
303.65849
303.3796
303.11413
302.86134
302.62052
302.39105
302.17229
301.96369
301.76474
301.57494
301.39382
301.22097
301.05598
300.89847
300.74808
300.60448
300.46737
300.33644
300.21139
300.09194
299.97792
299.86919
299.76533
299.6659
299.57096
299.48038
299.39398
299.31159
299.23303
299.15814
299.08678
299.01879
298.95403
298.89238
298.8337
298.77787
298.72477
298.67428
298.62631
298.58073
298.53745
298.49639
298.45744
298.42052
298.38554
298.35243
298.32112
298.29153
298.26361
298.23728
298.2125
298.18921
298.16736
298.14691
298.12783
298.11009
298.09363
298.07844
298.06459
298.05205
298.04046
298.02981
298.02147
298.01598
298.00789
308.1781
308.12395
307.79577
307.43837
307.03839
306.63744
306.23973
305.85365
305.48112
305.1236
304.78135
304.45421
304.14181
303.84362
303.55908
303.28757
303.02849
302.78125
302.54526
302.31995
302.10486
301.89951
301.70347
301.51629
301.33755
301.16687
301.00386
300.84818
300.69948
300.55746
300.42182
300.29229
300.16861
300.05049
299.93773
299.83019
299.72755
299.62939
299.53552
299.44596
299.36054
299.27907
299.20141
299.1274
299.05689
298.98974
298.92581
298.86498
298.80712
298.75211
298.69984
298.65019
298.60306
298.55834
298.51594
298.47576
298.43771
298.40172
298.36768
298.33553
298.3052
298.2766
298.24968
298.22437
298.20061
298.17835
298.15753
298.13812
298.12006
298.10332
298.08786
298.07365
298.06067
298.04895
298.03843
298.02898
298.02062
298.01393
298.00902
298.00377
305.41786
305.75437
305.84827
305.79725
305.63114
305.41371
305.16174
304.89345
304.61757
304.3405
304.06621
303.79726
303.53531
303.28135
303.03599
302.79949
302.57197
302.35337
302.14356
301.94233
301.74944
301.56459
301.38749
301.21783
301.05534
300.89972
300.75072
300.60807
300.47151
300.34082
300.21577
300.09615
299.98171
299.87227
299.7677
299.66785
299.57236
299.48086
299.39351
299.31012
299.23056
299.15468
299.08234
299.01342
298.94778
298.88529
298.82585
298.76933
298.71562
298.66461
298.6162
298.5703
298.52679
298.4856
298.44662
298.40977
298.37498
298.34215
298.31121
298.2821
298.25473
298.22905
298.20499
298.18249
298.16149
298.14195
298.12381
298.10703
298.09156
298.07738
298.06444
298.05271
298.04218
298.03284
298.02465
298.01758
298.01164
298.00694
298.0035
298.00101
308.1404
308.20665
307.77437
307.03242
306.14451
305.29951
304.57224
303.95884
303.43029
302.98044
302.56024
302.19317
301.86011
301.55635
301.26948
301.00444
300.75423
300.52588
300.31464
300.12651
299.95062
299.79745
299.65527
299.5293
299.41292
299.31316
299.22058
299.13669
299.06072
298.99364
298.93354
298.87847
298.82749
298.77969
298.73456
298.69166
298.65068
298.61139
298.57357
298.53731
298.50245
298.46878
298.4364
298.40529
298.37527
298.34636
298.31854
298.29179
298.26604
298.24128
298.21745
298.19451
298.17239
298.15107
298.13048
298.1106
298.09131
298.07268
298.05443
298.03691
298.01938
298.00289
297.98552
297.97015
297.95204
297.93855
297.91815
297.90837
297.88455
297.88271
297.85405
297.86443
297.82163
297.85551
297.79334
297.86168
297.78274
297.88427
297.81455
297.92114
306.06277
305.40224
304.75151
303.93958
303.07041
302.32995
301.76091
301.34959
301.05753
300.83522
300.65597
300.50267
300.36575
300.23881
300.11615
300.00258
299.88773
299.78572
299.68202
299.59122
299.49811
299.41805
299.33621
299.26701
299.19531
299.1353
299.0746
299.01768
298.9646
298.91486
298.86778
298.82277
298.77935
298.73735
298.69673
298.65744
298.61945
298.58272
298.54718
298.51302
298.4801
298.44829
298.41762
298.38816
298.35973
298.33232
298.30594
298.28055
298.25612
298.23259
298.20994
298.18809
298.16702
298.14668
298.12701
298.10799
298.08949
298.07159
298.05401
298.03709
298.02011
298.00409
297.98717
297.97212
297.95439
297.94107
297.9211
297.91127
297.88792
297.88582
297.85712
297.86763
297.82501
297.85911
297.79651
297.86538
297.78526
297.88984
297.81469
297.92877
300.38367
300.30667
299.75037
298.97583
298.57185
298.52133
298.57352
298.65656
298.75177
298.84512
298.92915
299.00096
299.06008
299.10569
299.13713
299.16397
299.17227
299.18369
299.16245
299.14919
299.11828
299.09731
299.06174
299.03564
298.99802
298.96865
298.93079
298.89483
298.86085
298.82379
298.78695
298.75072
298.71446
298.67854
298.6432
298.60858
298.57476
298.5418
298.5098
298.47901
298.449
298.41987
298.39181
298.36464
298.33838
298.31304
298.2886
298.26501
298.24226
298.22032
298.19914
298.17869
298.15891
298.1398
298.12125
298.1033
298.08575
298.06879
298.05197
298.03591
298.01948
298.00425
297.98761
297.97338
297.9556
297.94324
297.92265
297.91414
297.88993
297.88956
297.85897
297.87181
297.82621
297.86394
297.79784
297.87133
297.78573
297.89578
297.81495
297.93467
302.80255
302.81425
302.1814
300.88367
300.05669
299.8595
299.79209
299.74664
299.70824
299.6521
299.59383
299.53534
299.48066
299.4254
299.40529
299.32961
299.335
299.24093
299.24888
299.1598
299.16547
299.08158
299.0833
299.00503
299.00447
298.93149
298.89518
298.86028
298.82183
298.78292
298.74616
298.71063
298.67595
298.64215
298.6092
298.57708
298.54576
298.51523
298.48572
298.45707
298.42908
298.40189
298.37552
298.35002
298.32537
298.30153
298.2785
298.25626
298.23477
298.21402
298.19396
298.17456
298.15577
298.13758
298.11988
298.10273
298.08589
298.06961
298.05336
298.03785
298.02184
298.00706
297.99068
297.97681
297.95914
297.94709
297.92641
297.91824
297.89421
297.89367
297.86307
297.87596
297.83028
297.86791
297.80085
297.87501
297.78834
297.90018
297.81639
297.93925
301.99079
301.58131
300.58989
299.3945
298.95031
298.84705
298.87262
298.87911
298.88616
298.88364
298.88885
298.89034
298.89294
298.89243
298.89162
298.88758
298.88279
298.87503
298.86615
298.85879
298.84197
298.83882
298.81869
298.80982
298.78419
298.76943
298.74779
298.72337
298.69882
298.67441
298.64922
298.62348
298.59743
298.57123
298.54501
298.5189
298.49299
298.46737
298.44233
298.41776
298.39352
298.36979
298.34665
298.32411
298.30219
298.28089
298.26022
298.24016
298.2207
298.20183
298.18351
298.16572
298.14842
298.13161
298.11517
298.09919
298.08339
298.06807
298.05266
298.03794
298.02256
298.00844
297.99247
297.97917
297.96166
297.95017
297.9293
297.92175
297.89683
297.89763
297.86544
297.88027
297.83284
297.87224
297.80285
297.87994
297.78966
297.90515
297.81721
297.94392
302.06693
301.66898
300.62609
299.4041
298.83911
298.76457
298.79607
298.7928
298.79259
298.78224
298.78529
298.78379
298.78368
298.78065
298.77786
298.77256
298.76718
298.75958
298.75179
298.74088
298.7315
298.71669
298.70465
298.68801
298.67428
298.65631
298.63879
298.62101
298.60241
298.58307
298.56335
298.54318
298.52265
298.50188
298.48094
298.45991
298.43886
298.41785
298.3972
298.37668
298.35625
298.3361
298.3163
298.29687
298.27785
298.25926
298.24111
298.22339
298.2061
298.18925
298.1728
298.15674
298.14103
298.12568
298.11058
298.09581
298.08111
298.06679
298.05226
298.03833
298.02362
298.01011
297.9946
297.98177
297.96452
297.95342
297.93257
297.92541
297.90031
297.9016
297.8693
297.88447
297.83607
297.87642
297.80551
297.88418
297.79165
297.90979
297.81826
297.94831
301.7205
301.23511
300.07488
298.91523
298.501
298.43568
298.46895
298.4776
298.49446
298.50046
298.51075
298.51545
298.5225
298.52689
298.53174
298.53471
298.53718
298.5386
298.53904
298.53884
298.53705
298.53523
298.5314
298.52726
298.52099
298.5143
298.5062
298.49687
298.48645
298.47526
298.46324
298.45033
298.4367
298.42245
298.40767
298.39245
298.37688
298.36104
298.34525
298.32927
298.31314
298.29703
298.28102
298.26515
298.24945
298.23397
298.21871
298.20368
298.1889
298.17437
298.16006
298.14598
298.13209
298.11841
298.10483
298.09144
298.07799
298.06479
298.05124
298.0382
298.02424
298.01141
297.99643
297.98411
297.96718
297.95648
297.93569
297.92893
297.90364
297.90545
297.8723
297.88849
297.83891
297.88057
297.80782
297.88854
297.79339
297.91436
297.81922
297.95254
301.56922
301.01155
299.75589