/*--------------------------------*- C++ -*----------------------------------*\
  =========                 |
  \\      /  F ield         | OpenFOAM: The Open Source CFD Toolbox
   \\    /   O peration     | Website:  https://openfoam.org
    \\  /    A nd           | Version:  6
     \\/     M anipulation  |
\*---------------------------------------------------------------------------*/
FoamFile
{
    version     2.0;
    format      ascii;
    class       volVectorField;
    location    "450";
    object      U;
}
// * * * * * * * * * * * * * * * * * * * * * * * * * * * * * * * * * * * * * //

dimensions      [0 1 -1 0 0 0 0];

internalField   nonuniform List<vector> 
16000
(
(151.78483 1.275221e-15 -17.522381)
(160.29683 -1.1356481e-15 -11.398525)
(157.05175 4.3955004e-18 -16.563715)
(158.56899 3.973604e-18 -12.384769)
(157.3101 0 -15.465878)
(157.73456 -9.0806213e-16 -13.072369)
(157.11237 8.596956e-16 -14.686141)
(157.14863 0 -13.426333)
(156.76001 -1.8754522e-19 -14.170218)
(156.6349 1.7739884e-19 -13.533273)
(156.33618 3.3610597e-19 -13.816526)
(156.13856 -6.5200445e-16 -13.484329)
(155.87124 6.1819225e-16 -13.542169)
(155.63922 4.8689332e-18 -13.342504)
(155.37907 5.5619066e-16 -13.294525)
(155.12901 -5.2791357e-16 -13.143249)
(154.86688 -1.0032648e-15 -13.044315)
(154.606 9.5205425e-16 -12.903578)
(154.33931 0 -12.7765)
(154.07142 8.6010329e-16 -12.630341)
(153.80047 -8.1781155e-16 -12.483639)
(153.52825 -7.7859988e-16 -12.325614)
(153.25466 -7.3210724e-19 -12.162086)
(152.98069 -3.5430828e-19 -11.989692)
(152.70683 6.5990006e-16 -11.810179)
(152.4339 0 -11.622595)
(152.16261 6.0881418e-16 -11.427518)
(151.89379 -5.7005107e-16 -11.224806)
(151.62827 -5.3877397e-19 -11.014786)
(151.3669 -5.1346662e-19 -10.797647)
(151.11058 -5.0152049e-16 -10.573751)
(150.86017 4.7746965e-16 -10.343478)
(150.61658 -1.4254118e-17 -10.107327)
(150.38069 -1.2746574e-17 -9.8658414)
(150.15336 8.2977215e-16 -9.6196376)
(149.93541 -1.5838841e-15 -9.3693971)
(149.72764 7.5524647e-16 -9.1158472)
(149.53078 1.1271816e-17 -8.8597732)
(149.34553 1.0760485e-17 -8.6020167)
(149.17252 0 -8.343459)
(149.01229 -1.2253622e-18 -8.0849969)
(148.86532 1.1703895e-18 -7.8275393)
(148.73202 -5.7160693e-16 -7.571997)
(148.61271 5.4813382e-16 -7.3192686)
(148.50762 5.2187678e-16 -7.0702252)
(148.41692 -4.9965858e-16 -6.8257006)
(148.34066 -9.3268943e-19 -6.5864794)
(148.27885 0 -6.3532851)
(148.2314 4.367337e-16 -6.1267723)
(148.19816 -4.1764257e-16 -5.9075174)
(148.17891 0 -5.6960144)
(148.17334 0 -5.492666)
(148.1811 2.2866207e-17 -5.2977895)
(148.20174 -1.3672834e-18 -5.1116183)
(148.23482 2.095424e-17 -4.9342843)
(148.2799 0 -4.7658299)
(148.33644 0 -4.6062203)
(148.40381 0 -4.4553437)
(148.48134 0 -4.313005)
(148.5683 -3.5941296e-17 -4.1789627)
(148.66406 -3.2433734e-17 -4.0528793)
(148.76773 0 -3.9344589)
(148.87887 2.9842041e-17 -3.8231706)
(148.99596 0 -3.7188453)
(149.11937 -3.0929133e-17 -3.6204875)
(149.24521 -4.2567577e-16 -3.5286564)
(149.37708 4.0587725e-16 -3.4408524)
(149.50353 -3.047353e-18 -3.3604089)
(149.64052 3.7506778e-16 -3.279687)
(149.75311 -3.8071817e-16 -3.2119269)
(149.89774 0 -3.1309054)
(149.97008 -3.3466637e-16 -3.0827234)
(150.15409 6.4500701e-16 -2.9770788)
(150.11249 -3.11341e-16 -2.9892554)
(150.41725 4.68891e-18 -2.785481)
(150.08154 0 -3.0109531)
(150.68571 -1.4015079e-16 -2.4231771)
(149.73794 1.7175841e-17 -3.3658134)
(150.85258 1.3146576e-16 -1.5558952)
(149.25951 -3.2062072e-17 -4.4880747)
(151.44211 -1.2851494e-15 -19.219074)
(159.98091 1.1464745e-15 -12.82267)
(156.54612 -4.3377984e-18 -18.232891)
(158.15141 1.0404247e-15 -13.813477)
(156.80848 -9.9188173e-16 -17.061027)
(157.27329 7.2386596e-18 -14.514039)
(156.60547 0 -16.211866)
(156.65167 0 -14.866112)
(156.23734 7.7252637e-16 -15.637832)
(156.1079 -7.5388232e-16 -14.953622)
(155.79251 6.9269809e-16 -15.234293)
(155.58487 -6.6647347e-16 -14.871978)
(155.30418 0 -14.913122)
(155.06043 5.9504735e-16 -14.688526)
(154.78809 -5.6886931e-16 -14.617618)
(154.52618 0 -14.44134)
(154.25255 0 -14.316242)
(153.98045 0 -14.14859)
(153.7031 -9.1190991e-16 -13.992967)
(153.42503 8.8016413e-16 -13.817513)
(153.14461 0 -13.640045)
(152.86366 7.9643646e-16 -13.450341)
(152.58223 -7.4548633e-16 -13.25387)
(152.30138 -7.210768e-16 -13.047554)
(152.02172 3.1817893e-17 -12.833029)
(151.74418 6.3271836e-16 -12.609502)
(151.46956 6.4177156e-16 -12.377561)
(151.19879 -1.1944731e-15 -12.137184)
(150.93278 1.1291619e-15 -11.888775)
(150.67247 -5.2103022e-16 -11.632637)
(150.41879 5.1286209e-16 -11.36925)
(150.17269 -9.775366e-16 -11.099125)
(149.93507 9.4655725e-16 -10.822879)
(149.70685 -8.7486257e-16 -10.541193)
(149.48886 4.2372807e-16 -10.254844)
(149.28193 0 -9.9646702)
(149.08679 2.4121555e-17 -9.6715638)
(148.90413 -1.1495568e-17 -9.3764578)
(148.73454 -7.1356233e-16 -9.0803155)
(148.57854 7.1233563e-16 -8.7841537)
(148.43657 0 -8.4890084)
(148.30896 -6.1122678e-16 -8.1959075)
(148.19595 3.6356537e-17 -7.9058666)
(148.09772 1.1147426e-15 -7.6198799)
(148.01433 -5.3235304e-16 -7.3389011)
(147.94577 -5.0866673e-16 -7.0638304)
(147.89192 5.1633737e-16 -6.7955064)
(147.85263 -4.0636684e-16 -6.5346924)
(147.82764 8.3224124e-16 -6.2820697)
(147.81664 -4.2428831e-16 -6.0382289)
(147.81928 0 -5.8036666)
(147.83512 0 -5.5787798)
(147.8637 -2.3178678e-17 -5.3638648)
(147.90449 -7.0964421e-16 -5.1591312)
(147.95693 6.5777882e-16 -4.9646846)
(148.02051 6.0912928e-16 -4.7805238)
(148.09468 -4.9500572e-20 -4.6065658)
(148.17879 -6.6987757e-16 -4.4426515)
(148.27213 0 -4.2885368)
(148.374 3.4122228e-17 -4.1439103)
(148.48372 -3.2707662e-17 -4.0083919)
(148.60054 -6.2660679e-17 -3.8815765)
(148.72382 -4.5029969e-16 -3.7629499)
(148.85257 8.4303477e-20 -3.6520972)
(148.98634 4.1405439e-16 -3.5482853)
(149.12305 0 -3.4513582)
(149.26321 -4.0644037e-16 -3.3599343)
(149.40131 3.9022912e-16 -3.2750736)
(149.54277 -4.6837587e-17 -3.192981)
(149.67161 3.8239218e-16 -3.1194824)
(149.81298 -6.9184047e-16 -3.0416074)
(149.91306 3.7429532e-16 -2.9839787)
(150.06605 3.1994213e-16 -2.8925237)
(150.09188 -1.1510249e-19 -2.8773838)
(150.31614 -3.1981118e-16 -2.7088431)
(150.11439 2.6828088e-16 -2.8687519)
(150.56288 -2.7138474e-16 -2.3767778)
(149.82624 -1.6714257e-17 -3.1812236)
(150.71529 1.6046296e-17 -1.5527432)
(149.39129 3.1231984e-17 -4.2194843)
(150.94277 1.2996214e-15 -20.947657)
(159.4852 -7.730535e-21 -14.309067)
(155.90106 -1.1308144e-15 -19.905398)
(157.58415 1.0469488e-15 -15.313961)
(156.16708 7.8315885e-18 -18.659261)
(156.6572 9.3699196e-16 -16.019171)
(155.95137 -1.789426e-15 -17.74667)
(155.9985 1.2834608e-17 -16.355922)
(155.56216 8.0058343e-16 -17.120261)
(155.42323 1.1838451e-17 -16.411584)
(155.09207 -7.2983274e-16 -16.66938)
(154.87144 6.807363e-16 -16.287112)
(154.57706 0 -16.300322)
(154.31978 0 -16.053674)
(154.03458 -5.8162532e-16 -15.953172)
(153.75975 5.5191511e-16 -15.75105)
(153.47407 0 -15.59505)
(153.19019 1.55778e-17 -15.397871)
(152.90197 -1.478489e-17 -15.2096)
(152.61368 8.7209957e-16 -15.001408)
(152.32407 4.5962591e-19 -14.789175)
(152.0349 -7.8827718e-16 -14.563945)
(151.74647 7.624706e-16 -14.330482)
(151.45988 -7.3665945e-16 -14.086218)
(151.17591 -7.2342029e-16 -13.8326)
(150.89558 6.8833538e-16 -13.569077)
(150.61982 1.9911503e-17 -13.296257)
(150.34964 3.7871759e-17 -13.014281)
(150.08605 3.6074609e-17 -12.723661)
(149.83005 -5.6675159e-16 -12.424858)
(149.58265 4.9069723e-16 -12.1185)
(149.34481 5.3030844e-16 -11.805266)
(149.11747 -4.7552507e-16 -11.485946)
(148.90152 -4.5353159e-16 -11.161401)
(148.69777 8.6469285e-16 -10.832569)
(148.50698 -8.2459431e-16 -10.500461)
(148.32981 -3.6881343e-16 -10.16615)
(148.16685 7.5009028e-16 -9.8307526)
(148.01857 0 -9.4953988)
(147.88533 -6.8296103e-16 -9.1612187)
(147.76741 6.1086482e-16 -8.829372)
(147.66496 0 -8.5010069)
(147.57806 -3.7089824e-17 -8.17723)
(147.50665 0 -7.8591053)
(147.4506 6.7684038e-17 -7.5476454)
(147.4097 0 -7.2437863)
(147.38365 -3.0835022e-17 -6.9483852)
(147.37207 4.8512541e-20 -6.6622088)
(147.37455 1.1259207e-16 -6.3859258)
(147.39059 0 -6.1201018)
(147.41969 0 -5.8651962)
(147.46128 0 -5.6215603)
(147.51477 0 -5.3894372)
(147.57954 0 -5.1689662)
(147.65494 8.5834672e-17 -4.9601971)
(147.74036 4.1022622e-17 -4.7630692)
(147.83522 6.2791054e-16 -4.577419)
(147.93887 -6.0079012e-16 -4.4030158)
(148.05057 -7.1860522e-17 -4.2395477)
(148.16964 0 -4.0866263)
(148.29537 6.5798251e-17 -3.9438059)
(148.42709 5.669445e-16 -3.8105955)
(148.56412 -5.4294722e-16 -3.6864416)
(148.70568 0 -3.5707919)
(148.85108 -5.5360628e-17 -3.4629799)
(148.99898 -1.0606296e-16 -3.3625027)
(149.1487 4.0651094e-16 -3.2684457)
(149.29729 -3.8980099e-16 -3.1807505)
(149.44561 4.6714993e-17 -3.0975748)
(149.58609 -3.5848713e-16 -3.0208512)
(149.72801 9.1380336e-20 -2.9444481)
(149.84689 2.8905853e-16 -2.8794461)
(149.98665 0 -2.7987755)
(150.0498 0 -2.7628935)
(150.22955 1.8301845e-17 -2.6276875)
(150.11785 1.7628598e-17 -2.7234253)
(150.45394 2.9634274e-17 -2.3225068)
(149.8747 -1.1443168e-16 -2.9795123)
(150.60654 1.1403149e-16 -1.5379221)
(149.41952 -6.0354999e-17 -4.0048587)
(150.29233 3.1418663e-17 -22.718464)
(158.81429 9.3402492e-18 -15.825089)
(155.10577 1.1681991e-15 -21.613321)
(156.866 4.7553668e-19 -16.845469)
(155.37258 -1.0209592e-15 -20.286079)
(155.88743 -9.6218028e-16 -17.553102)
(155.14223 9.1153907e-16 -19.304599)
(155.18876 -1.3458384e-17 -17.870609)
(154.72952 8.2948882e-16 -18.621436)
(154.5796 -7.488078e-16 -17.889058)
(154.23192 -7.3317091e-16 -18.118924)
(153.99715 1.3679456e-15 -17.715812)
(153.68842 -6.5894922e-16 -17.697097)
(153.41689 1.955917e-17 -17.42621)
(153.11838 0 -17.292645)
(152.83034 0 -17.061724)
(152.53252 -5.3549262e-16 -16.871442)
(152.23703 4.9259631e-16 -16.641362)
(151.93834 0 -16.416949)
(151.64054 9.4793174e-16 -16.172418)
(151.34272 -9.0088669e-16 -15.921783)
(151.04666 4.2964622e-20 -15.657316)
(150.75286 0 -15.383147)
(150.46253 -4.705633e-17 -15.097208)
(150.17661 -7.1604031e-16 -14.800818)
(149.89621 6.3857746e-16 -14.493678)
(149.6224 -6.8938574e-16 -14.176463)
(149.35627 5.789635e-16 -13.849506)
(149.09891 -3.6739252e-17 -13.513468)
(148.85139 -3.5053619e-17 -13.169003)
(148.61473 -5.0059717e-16 -12.81692)
(148.38994 4.767443e-16 -12.458101)
(148.17791 0 -12.093535)
(147.97949 0 -11.724283)
(147.79543 0 -11.351488)
(147.62639 -5.251556e-17 -10.976349)
(147.4729 -4.9996e-17 -10.600106)
(147.33539 8.1116511e-16 -10.224045)
(147.21417 -9.0877531e-17 -9.8494752)
(147.10942 -6.5077826e-16 -9.4776683)
(147.02119 4.1372549e-17 -9.1098673)
(146.94944 6.3196609e-16 -8.7473118)
(146.89399 -5.2748352e-16 -8.3911867)
(146.85457 -5.7540148e-16 -8.0425948)
(146.83084 -6.8654724e-17 -7.7025714)
(146.82233 9.8270735e-16 -7.3720568)
(146.82854 -3.7517789e-16 -7.0518892)
(146.8489 -5.9684184e-17 -6.7428024)
(146.8828 3.9910133e-16 -6.4454159)
(146.92958 -5.4447026e-16 -6.1602345)
(146.98856 -4.1593998e-16 -5.8876475)
(147.05907 3.9730519e-16 -5.627928)
(147.14039 0 -5.3812373)
(147.23182 7.2509597e-16 -5.147626)
(147.33264 -7.7947648e-16 -4.9270516)
(147.44217 0 -4.7193737)
(147.55978 6.3283977e-16 -4.5243453)
(147.68482 -9.831286e-16 -4.3416419)
(147.81659 5.0614506e-16 -4.1708745)
(147.95437 5.5306362e-16 -4.0115748)
(148.0975 -1.3236799e-16 -3.8632201)
(148.24534 -5.0600486e-16 -3.7252435)
(148.39724 -4.8395903e-16 -3.5970287)
(148.55253 5.7893422e-16 -3.4779363)
(148.71051 -4.4313001e-16 -3.3672738)
(148.87014 1.0612802e-16 -3.2643847)
(149.03045 4.0608951e-16 -3.1684696)
(149.18943 -3.8873287e-16 -3.0790232)
(149.34632 5.5857912e-16 -2.9948821)
(149.49701 0 -2.9163445)
(149.64418 0 -2.8405272)
(149.77569 0 -2.7717308)
(149.91169 0 -2.6965561)
(150.00067 1.5066799e-16 -2.6472314)
(150.15079 -2.8901098e-16 -2.5367648)
(150.10503 3.471019e-16 -2.5821039)
(150.36332 -3.6629109e-16 -2.2580499)
(149.90247 4.9700208e-16 -2.7841517)
(150.51514 -3.7311197e-16 -1.5099038)
(149.43933 -1.047994e-19 -3.7535134)
(149.49166 1.3604894e-15 -24.524317)
(157.95277 5.3087241e-19 -17.371719)
(154.15547 -1.2054784e-15 -23.345271)
(155.98889 0 -18.413227)
(154.42038 -1.6247134e-17 -21.930751)
(154.95433 -3.0639396e-17 -19.119652)
(154.17115 0 -20.876854)
(154.21239 -8.5075678e-16 -19.410832)
(153.73073 8.3183458e-16 -20.134322)
(153.56646 -8.1290464e-16 -19.383714)
(153.20191 7.4694665e-16 -19.57651)
(152.95082 -3.6766722e-20 -19.153351)
(152.62703 0 -19.096543)
(152.33991 6.1801728e-16 -18.799389)
(152.0275 -6.0522836e-16 -18.627931)
(151.7256 0 -18.364736)
(151.41545 5.4615666e-16 -18.135712)
(151.10839 -5.5104216e-16 -17.868573)
(150.79964 4.931084e-16 -17.603537)
(150.49308 4.3967641e-16 -17.318189)
(150.18819 -8.6295294e-16 -17.024585)
(149.88679 -2.6456568e-17 -16.716287)
(149.5896 5.0426839e-17 -16.396831)
(149.29795 -9.3822671e-20 -16.064679)
(149.01293 0 -15.721068)
(148.73578 -8.51322e-20 -15.365989)
(148.46766 0 -15.000232)
(148.20977 3.936491e-17 -14.624368)
(147.96325 0 -14.239249)
(147.7292 3.5623046e-17 -13.845764)
(147.50866 0 -13.444947)
(147.30258 0 -13.037916)
(147.11183 6.1689063e-17 -12.625891)
(146.93715 0 -12.210163)
(146.77916 -4.4768637e-16 -11.792089)
(146.63837 4.7979717e-16 -11.37307)
(146.51513 0 -10.954541)
(146.40965 -4.8410259e-17 -10.537935)
(146.32202 -6.4673151e-16 -10.124691)
(146.25218 6.164886e-16 -9.716228)
(146.19994 -6.7188041e-16 -9.3138805)
(146.16496 7.2080428e-16 -8.9189193)
(146.14684 -7.6386671e-16 -8.5325705)
(146.14503 5.8285675e-16 -8.1559456)
(146.15892 -1.3909328e-16 -7.7900532)
(146.18783 6.6277538e-17 -7.435796)
(146.23102 -1.2648182e-16 -7.0939499)
(146.28772 1.20814e-16 -6.7651706)
(146.35712 -4.6094863e-16 -6.4499877)
(146.4384 9.8987161e-16 -6.1488046)
(146.53074 -4.4112585e-20 -5.8619029)
(146.63334 -5.011876e-16 -5.5894437)
(146.74538 1.9143731e-16 -5.3314742)
(146.8661 0 -5.0879331)
(146.99472 0 -4.8586587)
(147.1305 0 -4.6434086)
(147.27279 -6.3657599e-16 -4.441839)
(147.42096 4.5622282e-16 -4.2535224)
(147.57431 1.4523089e-16 -4.0779772)
(147.73216 -1.3881906e-16 -3.9146532)
(147.89388 1.3260604e-16 -3.7629458)
(148.05887 -7.6048488e-16 -3.6222146)
(148.22653 9.6917524e-16 -3.4917772)
(148.39628 -1.0422199e-15 -3.3709241)
(148.56746 9.9637318e-16 -3.2589142)
(148.73923 -2.118372e-16 -3.1550023)
(148.91057 -6.0740869e-16 -3.0583916)
(149.07991 0 -2.9683796)
(149.24588 -1.8518996e-16 -2.8840372)
(149.4058 1.7720639e-16 -2.8049511)
(149.55948 0 -2.7295327)
(149.70093 0 -2.6588989)
(149.83765 -1.5537526e-16 -2.5871457)
(149.94356 -2.9758373e-16 -2.5284903)
(150.07705 -2.8496873e-16 -2.4364132)
(150.07748 6.8320807e-17 -2.4417068)
(150.27991 -6.549914e-17 -2.1818168)
(149.91108 2.5149448e-16 -2.5894833)
(150.42763 -6.0132979e-17 -1.4728093)
(149.42712 2.2717735e-16 -3.517747)
(148.53432 1.3585417e-15 -26.362731)
(156.90256 -1.2368548e-15 -18.949785)
(153.03946 1.8551772e-17 -25.102386)
(154.94163 0 -20.016634)
(153.29934 1.6500875e-17 -23.592131)
(153.84671 1.0284264e-15 -20.716442)
(153.02683 -9.1520815e-16 -22.460539)
(153.05825 -5.5882338e-17 -20.972066)
(152.55447 0 -21.654316)
(152.37283 -8.0286178e-16 -20.889065)
(151.99098 7.0947454e-17 -21.035608)
(151.72174 2.2108877e-17 -20.591475)
(151.38228 6.4159585e-16 -20.490133)
(151.07867 0 -20.163271)
(150.75201 6.169008e-16 -19.948551)
(150.4361 -1.1345238e-15 -19.648472)
(150.11386 1.112342e-15 -19.375552)
(149.79584 -4.9521499e-16 -19.066245)
(149.47805 0 -18.755367)
(149.16419 2.9794663e-17 -18.423916)
(148.85415 -9.0752891e-16 -18.082073)
(148.54981 1.7252832e-15 -17.724674)
(148.25213 -1.6919563e-15 -17.354757)
(147.96256 8.7763052e-16 -16.971319)
(147.68236 -7.4251659e-16 -16.575596)
(147.41286 7.0600047e-16 -16.167904)
(147.15535 0 -15.749214)
(146.91106 -5.9970906e-16 -15.320374)
(146.68117 6.0874231e-16 -14.882487)
(146.46679 7.2540694e-17 -14.436717)
(146.26889 6.9065338e-17 -13.984366)
(146.08836 -5.9138864e-16 -13.526822)
(145.92593 9.3845831e-16 -13.065564)
(145.78218 1.4694286e-19 -12.602126)
(145.65756 -9.0813092e-16 -12.138093)
(145.55233 5.407677e-16 -11.67507)
(145.4666 0 -11.214663)
(145.40031 3.9274516e-16 -10.758459)
(145.35325 -4.6785613e-16 -10.307995)
(145.32507 0 -9.86476)
(145.31528 -6.7996379e-16 -9.4301702)
(145.32324 8.1168869e-17 -9.0055021)
(145.34824 5.4051892e-16 -8.5919422)
(145.38947 0 -8.1905723)
(145.44604 1.4036471e-16 -7.8023231)
(145.51703 6.6972655e-16 -7.4280051)
(145.60147 -5.1095872e-16 -7.0682852)
(145.69839 1.2109033e-19 -6.7236926)
(145.8068 -4.6482607e-16 -6.3946234)
(145.92574 8.8691149e-16 -6.0813394)
(146.05426 -6.9430086e-20 -5.7839786)
(146.19146 -1.0091171e-16 -5.5025579)
(146.33646 -1.9251872e-16 -5.2369835)
(146.48843 1.8383167e-16 -4.9870577)
(146.64657 1.7542878e-16 -4.7524868)
(146.81013 6.6944453e-16 -4.532902)
(146.97842 -6.3915603e-16 -4.3278513)
(147.15086 0 -4.1368055)
(147.32679 0 -3.9591784)
(147.50557 1.3900669e-16 -3.7943374)
(147.68661 5.309542e-16 -3.641597)
(147.86938 -2.5364703e-16 -3.5002448)
(148.05333 -4.8419124e-16 -3.3695355)
(148.23796 -2.3114975e-16 -3.248699)
(148.42271 2.209019e-16 -3.1369429)
(148.60685 4.2194187e-16 -3.0334605)
(148.78945 8.0608849e-16 -2.9374237)
(148.96915 -3.8513714e-16 -2.848028)
(149.14447 3.6787968e-16 -2.764393)
(149.31329 -7.0322779e-16 -2.6858184)
(149.47428 -3.3596511e-16 -2.6111994)
(149.62401 3.212304e-16 -2.5402347)
(149.76411 1.5351187e-16 -2.4705322)
(149.88231 1.4679307e-16 -2.4063699)
(150.00573 -2.807815e-16 -2.3268432)
(150.03977 1.3433261e-16 -2.3015605)
(150.2007 1.2853507e-16 -2.0963344)
(149.91032 -4.9254348e-16 -2.3975092)
(150.34911 2.943577e-16 -1.4262079)
(149.40229 0 -3.274292)
(147.40375 2.1881791e-17 -28.232381)
(155.70104 -1.2191547e-15 -20.560022)
(151.74298 3.7192065e-17 -26.878568)
(153.70863 1.1311101e-15 -21.651681)
(151.99531 -1.0750607e-15 -25.262407)
(152.54966 1.0458515e-15 -22.337893)
(151.6953 -6.0082897e-17 -24.047622)
(151.71203 2.8403393e-17 -22.546654)
(151.18692 0 -23.172785)
(150.98485 8.1707139e-16 -22.395736)
(150.58552 -8.7101206e-16 -22.48642)
(150.29648 0 -22.019295)
(149.94094 7.404107e-16 -21.866527)
(149.62017 -6.608972e-16 -21.50544)
(149.27924 6.2771263e-16 -21.241453)
(148.94954 -6.3278477e-16 -20.898883)
(148.61592 4.9514807e-16 -20.576131)
(148.28808 -1.0748529e-15 -20.218624)
(147.96291 5.1043544e-16 -19.855854)
(147.64396 -4.8535079e-16 -19.472161)
(147.33152 5.1873804e-16 -19.076023)
(147.02758 -5.4873006e-17 -18.663513)
(146.73334 -5.2171194e-17 -18.237296)
(146.45039 -4.9484673e-17 -17.796924)
(146.18012 0 -17.343729)
(145.92397 4.4765574e-17 -16.878398)
(145.68328 6.8232243e-16 -16.402156)
(145.45932 -7.2991491e-16 -15.916188)
(145.25323 5.4041476e-16 -15.421899)
(145.06605 -1.4671483e-16 -14.920779)
(144.89865 -6.2913372e-16 -14.414435)
(144.75175 -1.5053442e-19 -13.904556)
(144.62587 -5.0697338e-16 -13.392894)
(144.52136 4.8255394e-16 -12.881237)
(144.43837 1.1501081e-16 -12.37139)
(144.37688 -1.0930099e-16 -11.865142)
(144.33666 0 -11.364248)
(144.31732 -3.9699181e-16 -10.870399)
(144.31828 4.7259427e-16 -10.385206)
(144.33884 -7.2051214e-16 -9.9101695)
(144.37815 8.5823257e-16 -9.4466987)
(144.43528 -1.634101e-16 -8.9960412)
(144.50917 7.7904001e-16 -8.5592811)
(144.59872 -1.336735e-15 -8.1374)
(144.70279 -1.4157638e-16 -7.7311997)
(144.8202 4.049e-16 -7.3413356)
(144.94977 0 -6.9683133)
(145.09036 1.2281384e-16 -6.612487)
(145.24083 0 -6.2740747)
(145.40009 -2.230556e-16 -5.9531589)
(145.5671 0 -5.6497003)
(145.7409 -4.0548785e-16 -5.3635444)
(145.92055 1.9341898e-16 -5.0944335)
(146.10522 -3.6881113e-16 -4.8420149)
(146.29409 -1.7583007e-16 -4.6058518)
(146.48644 0 -4.3854358)
(146.68159 0 -4.1802012)
(146.87899 0 -3.9895133)
(147.07807 -5.8256219e-16 -3.8126839)
(147.27823 2.7816385e-16 -3.6489964)
(147.47895 1.5214302e-19 -3.4976904)
(147.67975 5.0619925e-16 -3.3579864)
(147.88019 0 -3.2290823)
(148.07983 6.9120088e-16 -3.1101562)
(148.27819 -6.5972652e-16 -3.0003702)
(148.47469 -2.097076e-16 -2.8988716)
(148.66848 -2.0013742e-16 -2.8047956)
(148.8584 7.6457984e-16 -2.7172786)
(149.04295 -3.649316e-16 -2.6354307)
(149.22028 -5.223269e-16 -2.5584252)
(149.38866 2.0480168e-19 -2.4852614)
(149.5457 1.9880828e-19 -2.4151762)
(149.69031 1.5151707e-15 -2.347065)
(149.81741 -5.7881095e-16 -2.2802784)
(149.93593 5.5264011e-16 -2.2089608)
(149.99476 0 -2.1611846)
(150.12348 5.0425016e-16 -2.0017011)
(149.8991 -4.8250126e-16 -2.2088268)
(150.27003 0 -1.3708512)
(149.36582 2.138782e-16 -3.0379209)
(146.08444 1.3974817e-15 -30.135156)
(154.36586 -2.558527e-15 -22.200416)
(150.25779 -3.893865e-17 -28.663585)
(152.27979 -7.1286535e-19 -23.310895)
(150.49866 1.092075e-15 -26.931164)
(151.05227 -1.0318353e-15 -23.975086)
(150.16564 1.9851065e-15 -25.628194)
(150.16214 -9.2474876e-16 -24.124244)
(149.61616 0 -24.679327)
(149.39036 0 -23.892018)
(148.97307 9.8426803e-17 -23.917227)
(148.66254 -7.4684863e-16 -23.423654)
(148.29046 7.5226747e-16 -23.21219)
(147.95207 0 -22.811041)
(147.59708 0 -22.491045)
(147.25426 6.0551818e-16 -22.099198)
(146.91052 -5.0278572e-16 -21.719739)
(146.57475 0 -21.306931)
(146.24473 5.1858692e-16 -20.885261)
(145.92391 -4.9235038e-16 -20.442245)
(145.61301 -5.8419869e-17 -19.984911)
(145.31412 5.5517494e-17 -19.51052)
(145.02869 5.2767302e-17 -19.021532)
(144.75842 0 -18.518085)
(144.50481 0 -18.001714)
(144.26936 0 -17.473541)
(144.05342 0 -16.935128)
(143.85819 0 -16.388053)
(143.68473 7.0308103e-16 -15.834087)
(143.5339 -5.2017163e-16 -15.275081)
(143.40636 0 -14.712982)
(143.30257 6.0542267e-16 -14.14979)
(143.22274 1.0984493e-19 -13.587534)
(143.16687 8.3898517e-20 -13.02824)
(143.13476 -9.2750061e-16 -12.473903)
(143.12595 4.415415e-16 -11.926457)
(143.13982 5.2557312e-16 -11.387751)
(143.17557 -4.0021915e-16 -10.85952)
(143.23221 -3.8107866e-16 -10.343373)
(143.30864 -3.628634e-16 -9.8407703)
(143.40363 -1.7260394e-16 -9.3530076)
(143.51591 6.5840539e-16 -8.8812265)
(143.64409 -1.5689661e-16 -8.4263699)
(143.78678 -4.4810865e-16 -7.9892201)
(143.9426 1.423185e-16 -7.5703924)
(144.11014 6.7801325e-16 -7.1703253)
(144.28806 -2.5851078e-16 -6.789309)
(144.47506 2.4626873e-16 -6.427477)
(144.66989 -2.3458715e-16 -6.084829)
(144.87138 2.2352136e-16 -5.7612358)
(145.07845 0 -5.4564539)
(145.2901 -1.5056824e-19 -5.1701369)
(145.50539 -1.9357405e-16 -4.9018473)
(145.7235 1.8452601e-16 -4.6510674)
(145.94366 -3.5201331e-16 -4.4172101)
(146.16518 0 -4.1996283)
(146.38745 -3.1989407e-16 -3.9976381)
(146.60995 3.04767e-16 -3.8104992)
(146.8322 -1.1629663e-15 -3.6374354)
(147.05371 5.5462686e-16 -3.4776459)
(147.27401 5.2857264e-16 -3.3303056)
(147.49273 -2.52083e-16 -3.1945756)
(147.70948 4.8056791e-16 -3.0696063)
(147.92391 -9.1659932e-16 -2.9545337)
(148.13565 -4.3690328e-16 -2.8484837)
(148.34422 8.3345896e-16 -2.75057)
(148.54892 9.783048e-20 -2.6598969)
(148.74872 3.7888955e-16 -2.5755624)
(148.9422 3.6124701e-16 -2.4966568)
(149.12765 0 -2.4222879)
(149.30325 9.8506538e-16 -2.3514511)
(149.46687 -1.8792215e-15 -2.2832941)
(149.61652 9.9246072e-20 -2.2168691)
(149.7502 8.5440753e-16 -2.1499037)
(149.8669 -1.3582289e-15 -2.083749)
(149.94438 2.1237558e-19 -2.0203976)
(150.04785 2.472464e-16 -1.8977161)
(149.88127 -4.717967e-16 -2.023149)
(150.19418 1.12542e-15 -1.3101308)
(149.32723 -2.0769898e-16 -2.803124)
(144.56772 0 -32.067685)
(152.82138 -1.3012439e-15 -23.86226)
(148.57519 1.2459918e-15 -30.451966)
(150.64444 3.6615487e-17 -24.991175)
(148.79834 1.1449087e-15 -28.593203)
(149.34199 -3.1997379e-17 -25.622289)
(148.42483 -9.9270989e-16 -27.195571)
(148.39474 8.8155892e-16 -25.696362)
(147.82786 -8.9018078e-16 -26.1651)
(147.5747 -8.9687074e-16 -25.366773)
(147.13868 -4.0962599e-19 -25.31639)
(146.80502 7.5792824e-16 -24.79076)
(146.41603 1.3420948e-19 -24.512402)
(146.05992 -6.8228774e-16 -24.063526)
(145.69157 6.4688459e-16 -23.679539)
(145.33701 7.6893017e-17 -23.230059)
(144.9853 6.5608023e-16 -22.785716)
(144.64459 -5.5318649e-16 -22.309152)
(144.31353 -5.2560905e-16 -21.820379)
(143.99553 4.3635014e-16 -21.309863)
(143.69172 -4.7409178e-16 -20.783488)
(143.4043 4.500903e-16 -20.239675)
(143.13492 -4.2786284e-16 -19.680856)
(142.88535 3.0455362e-16 -19.107808)
(142.65717 0 -18.522398)
(142.45183 7.3435457e-16 -17.926245)
(142.27058 -6.9773185e-16 -17.321335)
(142.11449 -6.6354675e-16 -16.709695)
(141.98438 -1.9908647e-19 -16.093508)
(141.88082 5.9967163e-16 -15.475014)
(141.80414 5.7040252e-16 -14.856508)
(141.75438 -5.4238107e-16 -14.240293)
(141.73135 1.2915354e-16 -13.628643)
(141.73457 -4.9081847e-16 -13.023779)
(141.76334 8.172622e-16 -12.427823)
(141.81675 -4.4427968e-16 -11.842783)
(141.89366 -7.3995105e-16 -11.270518)
(141.9928 4.0235757e-16 -10.712717)
(142.11274 0 -10.170896)
(142.25195 -1.8241962e-16 -9.6463702)
(142.40884 -6.9394673e-16 -9.1402459)
(142.58173 6.6082213e-16 -8.6534615)
(142.76898 7.8622866e-16 -8.1867296)
(142.96894 -7.4904423e-16 -7.7405638)
(143.17999 -2.8499974e-16 -7.3153229)
(143.40058 6.7952635e-16 -6.9111751)
(143.62922 2.5862601e-16 -6.5281444)
(143.86451 2.466043e-16 -6.1661047)
(144.10516 2.3482426e-16 -5.8248052)
(144.34997 -1.5796026e-19 -5.5038804)
(144.59785 -6.3942353e-16 -5.2028661)
(144.84781 6.0888782e-16 -4.9212124)
(145.09899 3.8662482e-16 -4.6582961)
(145.35058 -7.3726187e-16 -4.4134327)
(145.60191 3.5105805e-16 -4.1858868)
(145.85235 -6.6903545e-16 -3.9748801)
(146.10138 1.5938553e-15 -3.7796121)
(146.34857 -3.0394023e-16 -3.5992491)
(146.59354 -2.8951053e-16 -3.4329383)
(146.83589 -2.7577511e-16 -3.2798037)
(147.07525 0 -3.1389674)
(147.31134 -7.5136178e-16 -3.0095427)
(147.54386 -4.7705135e-16 -2.890644)
(147.77255 1.3643377e-15 -2.7813767)
(147.99713 4.3320353e-16 -2.6808423)
(148.21724 -4.1276735e-16 -2.5881328)
(148.4323 -1.573039e-15 -2.5023322)
(148.64142 -3.744696e-16 -2.4225157)
(148.84332 3.5708867e-16 -2.3477581)
(149.03636 0 -2.2771225)
(149.21874 9.7161144e-16 -2.2095983)
(149.38834 -6.1721569e-16 -2.144346)
(149.54307 8.8180501e-16 -2.080134)
(149.68163 -8.3987377e-16 -2.0148671)
(149.79861 1.7647408e-19 -1.9519549)
(149.88937 5.083033e-16 -1.879357)
(149.97358 2.4203798e-16 -1.7853785)
(149.85826 0 -1.8415941)
(150.11717 -2.1961718e-16 -1.2459154)
(149.28875 0 -2.5731995)
(142.84097 -1.4603061e-15 -34.028946)
(151.06694 -4.1321932e-17 -25.546882)
(146.67788 -3.961428e-17 -32.243379)
(148.78434 -3.7132813e-17 -26.690721)
(146.87652 -3.518028e-17 -30.244126)
(147.40009 -1.06605e-15 -27.27378)
(146.45423 1.0713824e-15 -28.742577)
(146.391 5.9596869e-17 -27.253149)
(145.80308 9.6102575e-16 -27.619586)
(145.51919 -7.4907897e-16 -26.806484)
(145.06383 -1.0144969e-16 -26.669536)
(144.70596 8.1760938e-16 -26.103631)
(144.30022 -7.7437551e-16 -25.74887)
(143.92717 0 -25.242457)
(143.54717 0 -24.78494)
(143.18353 -6.998993e-16 -24.26768)
(142.82748 4.4239878e-16 -23.748749)
(142.48651 0 -23.198506)
(142.16013 -5.9825616e-16 -22.633157)
(141.85173 1.0088205e-15 -22.045866)
(141.56281 2.8887265e-19 -21.441745)
(141.29567 -7.9562e-16 -20.820345)
(141.05207 4.3172107e-16 -20.184287)
(140.83378 -7.1805937e-16 -19.535044)
(140.64232 8.7645163e-16 -18.874946)
(140.47899 -9.2667482e-17 -18.206182)
(140.34482 0 -17.531234)
(140.24054 0 -16.852621)
(140.16659 4.7592203e-16 -16.172957)
(140.12311 1.0757215e-19 -15.494872)
(140.10991 1.4363753e-16 -14.820979)
(140.12649 -1.0901864e-15 -14.153832)
(140.17208 5.1855461e-16 -13.495886)
(140.24562 -4.9273484e-16 -12.849463)
(140.34583 5.8586951e-16 -12.216717)
(140.47121 -4.456057e-16 -11.599614)
(140.6201 6.3562393e-16 -10.999907)
(140.7907 0 -10.419124)
(140.98112 0 -9.8585657)
(141.18941 3.6500927e-16 -9.31929)
(141.4136 -1.7381083e-16 -8.802128)
(141.65172 -8.2641098e-16 -8.3077016)
(141.90187 -1.5719916e-16 -7.8363972)
(142.16219 1.048367e-15 -7.3884074)
(142.43092 2.8515105e-16 -6.9637663)
(142.70639 -1.0857238e-15 -6.5623265)
(142.98705 0 -6.1838049)
(143.27149 -7.3788336e-16 -5.8277882)
(143.55841 4.6864688e-16 -5.4937557)
(143.84665 2.2317157e-16 -5.1810943)
(144.13517 4.2462774e-16 -4.8891139)
(144.42305 -8.0921824e-16 -4.6170616)
(144.70952 7.7043855e-16 -4.3641339)
(144.99387 -1.1010929e-15 -4.1294875)
(145.27553 3.4953821e-16 -3.9122499)
(145.554 3.3286412e-16 -3.7115255)
(145.82884 0 -3.5264111)
(146.09975 0 -3.3559946)
(146.36645 5.7488656e-16 -3.1993586)
(146.62866 5.4740193e-16 -3.0555713)
(146.88612 -5.2167052e-16 -2.9237141)
(147.13865 4.9626756e-16 -2.802868)
(147.38604 -4.7277945e-16 -2.6921239)
(147.62813 4.4999566e-16 -2.5905705)
(147.86472 -1.2860463e-15 -2.4972974)
(148.09556 -8.1605922e-16 -2.4113882)
(148.32021 1.1656239e-15 -2.3319181)
(148.53792 3.6979986e-16 -2.2579547)
(148.74752 0 -2.1885646)
(148.94748 6.7001868e-16 -2.1227841)
(149.13604 -6.378962e-16 -2.0596271)
(149.31104 0 -1.9982319)
(149.47058 -5.7772907e-16 -1.9370777)
(149.61282 -5.4978617e-16 -1.8749886)
(149.73152 0 -1.8143331)
(149.83117 0 -1.7380929)
(149.90132 0 -1.6656798)
(149.83157 -4.511061e-16 -1.6652426)
(150.04329 0 -1.179188)
(149.25465 -7.7499909e-16 -2.3457988)
(140.88381 -4.6400768e-17 -36.017391)
(149.07772 0 -27.250469)
(144.54544 -1.2468906e-15 -34.030536)
(146.67757 1.2471258e-15 -28.403605)
(144.71193 0 -31.874878)
(145.20445 -1.0832298e-15 -28.919278)
(144.23174 9.5979806e-16 -30.257932)
(144.12879 0 -28.780255)
(143.51967 8.6046403e-16 -29.028009)
(143.20216 -9.2256634e-16 -28.193072)
(142.72719 5.1331037e-17 -27.957615)
(142.34487 7.3109081e-16 -27.340395)
(141.9235 -9.1911288e-17 -26.898129)
(141.53564 -6.1196302e-16 -26.322036)
(141.14725 5.8059804e-16 -25.779631)
(140.77909 7.9261488e-17 -25.182512)
(140.42449 -5.2179822e-16 -24.577623)
(140.09036 0 -23.942279)
(139.77703 6.6945258e-17 -23.289643)
(139.48788 1.91009e-16 -22.615363)
(139.22468 -1.2096565e-16 -21.924156)
(138.98973 -2.2912522e-16 -21.216732)
(138.78479 0 -20.496106)
(138.6115 1.0337238e-16 -19.764534)
(138.47112 -9.7770865e-17 -19.024918)
(138.36461 9.2821685e-17 -18.280081)
(138.29257 0 -17.533043)
(138.25522 -1.6793682e-16 -16.786819)
(138.2524 -4.7793808e-16 -16.044435)
(138.2836 4.534434e-16 -15.30885)
(138.34795 -1.4346709e-16 -14.58292)
(138.44425 0 -13.869343)
(138.571 3.8925266e-16 -13.17063)
(138.72646 -6.1652953e-16 -12.489067)
(138.90869 1.1757912e-16 -11.826691)
(139.11555 -2.2300793e-16 -11.185277)