/*--------------------------------*- C++ -*----------------------------------*\
| =========                 |                                                 |
| \\      /  F ield         | OpenFOAM: The Open Source CFD Toolbox           |
|  \\    /   O peration     | Version:  v1812                                 |
|   \\  /    A nd           | Web:      www.OpenFOAM.com                      |
|    \\/     M anipulation  |                                                 |
\*---------------------------------------------------------------------------*/
FoamFile
{
    version     2.0;
    format      ascii;
    class       volScalarField;
    location    "0";
    object      Tdirect;
}
// * * * * * * * * * * * * * * * * * * * * * * * * * * * * * * * * * * * * * //

dimensions      [0 0 0 1 0 0 0];


internalField   nonuniform List<scalar> 
366300
(
300.64
300.647
300.661
300.681
300.707
300.74
300.779
300.823
300.872
300.926
300.984
301.045
301.108
301.173
301.24
301.307
301.374
301.44
301.507
301.573
301.639
301.706
301.773
301.841
301.911
301.984
302.058
302.135
302.213
302.294
302.375
302.457
302.538
302.617
302.695
302.77
302.843
302.913
302.98
303.047
303.112
303.177
303.244
303.312
303.383
303.457
303.533
303.611
303.69
303.77
303.848
303.924
303.997
304.066
304.131
304.191
304.248
304.302
304.355
304.409
304.465
304.524
304.588
304.658
304.733
304.813
304.898
304.985
305.073
305.16
305.244
305.322
305.393
305.457
305.512
305.558
305.597
305.628
305.655
305.676
305.695
305.71
305.723
305.732
305.736
305.733
305.72
305.696
305.656
305.599
305.521
305.423
305.304
305.163
305.004
304.828
304.64
304.442
304.239
304.036
303.837
303.646
303.466
303.302
303.157
303.032
302.93
302.851
302.799
302.772
300.634
300.641
300.654
300.674
300.7
300.733
300.771
300.814
300.863
300.916
300.973
301.033
301.095
301.159
301.225
301.291
301.357
301.423
301.489
301.554
301.62
301.685
301.752
301.819
301.889
301.96
302.034
302.109
302.187
302.266
302.346
302.427
302.507
302.586
302.662
302.737
302.808
302.877
302.944
303.01
303.074
303.139
303.205
303.273
303.343
303.416
303.491
303.568
303.646
303.724
303.801
303.876
303.948
304.016
304.08
304.14
304.196
304.25
304.303
304.356
304.411
304.47
304.533
304.602
304.676
304.755
304.839
304.925
305.012
305.097
305.18
305.257
305.327
305.39
305.444
305.49
305.528
305.559
305.585
305.607
305.625
305.64
305.652
305.661
305.665
305.661
305.649
305.624
305.584
305.527
305.451
305.354
305.236
305.098
304.941
304.768
304.582
304.387
304.188
303.988
303.792
303.604
303.428
303.266
303.123
303
302.899
302.822
302.77
302.744
300.627
300.634
300.647
300.667
300.692
300.724
300.762
300.805
300.853
300.905
300.961
301.02
301.081
301.145
301.209
301.274
301.34
301.405
301.47
301.534
301.599
301.664
301.729
301.796
301.865
301.935
302.008
302.082
302.159
302.237
302.316
302.395
302.474
302.552
302.628
302.701
302.772
302.84
302.906
302.971
303.035
303.099
303.164
303.231
303.3
303.372
303.446
303.522
303.599
303.676
303.752
303.826
303.897
303.964
304.027
304.086
304.142
304.195
304.247
304.3
304.355
304.413
304.475
304.543
304.616
304.694
304.776
304.861
304.946
305.031
305.112
305.187
305.257
305.318
305.372
305.417
305.455
305.486
305.512
305.533
305.551
305.566
305.578
305.586
305.59
305.586
305.573
305.548
305.509
305.452
305.377
305.281
305.165
305.029
304.874
304.704
304.521
304.33
304.134
303.937
303.744
303.56
303.386
303.227
303.086
302.965
302.866
302.791
302.74
302.714
300.62
300.626
300.639
300.659
300.684
300.715
300.752
300.795
300.842
300.893
300.948
301.006
301.067
301.129
301.193
301.257
301.321
301.386
301.449
301.513
301.577
301.641
301.706
301.772
301.839
301.909
301.98
302.054
302.129
302.206
302.284
302.362
302.44
302.516
302.591
302.663
302.733
302.8
302.866
302.929
302.993
303.056
303.12
303.186
303.255
303.325
303.398
303.473
303.549
303.625
303.7
303.772
303.842
303.908
303.971
304.029
304.084
304.137
304.189
304.241
304.295
304.352
304.414
304.481
304.553
304.63
304.711
304.794
304.878
304.96
305.04
305.115
305.183
305.243
305.296
305.341
305.378
305.409
305.434
305.455
305.473
305.488
305.499
305.507
305.51
305.507
305.493
305.469
305.429
305.373
305.299
305.204
305.09
304.956
304.804
304.637
304.457
304.269
304.076
303.883
303.694
303.512
303.342
303.186
303.047
302.928
302.831
302.757
302.707
302.681
300.612
300.618
300.631
300.65
300.675
300.706
300.742
300.784
300.83
300.881
300.935
300.992
301.052
301.113
301.175
301.239
301.302
301.365
301.428
301.491
301.554
301.617
301.681
301.746
301.812
301.881
301.951
302.024
302.098
302.174
302.25
302.327
302.404
302.479
302.552
302.623
302.692
302.759
302.823
302.886
302.948
303.011
303.074
303.139
303.207
303.276
303.348
303.422
303.496
303.571
303.645
303.716
303.785
303.85
303.911
303.969
304.023
304.076
304.127
304.178
304.232
304.289
304.35
304.416
304.486
304.562
304.641
304.723
304.805
304.887
304.965
305.038
305.105
305.165
305.217
305.261
305.297
305.328
305.353
305.374
305.391
305.406
305.417
305.425
305.427
305.423
305.41
305.385
305.346
305.291
305.217
305.124
305.012
304.88
304.731
304.566
304.39
304.205
304.016
303.827
303.641
303.463
303.295
303.142
303.006
302.889
302.794
302.721
302.671
302.647
300.604
300.61
300.622
300.641
300.666
300.696
300.732
300.772
300.818
300.868
300.921
300.977
301.036
301.096
301.157
301.219
301.282
301.344
301.406
301.468
301.53
301.592
301.655
301.719
301.784
301.851
301.921
301.992
302.065
302.14
302.215
302.291
302.366
302.44
302.512
302.582
302.65
302.715
302.779
302.841
302.902
302.964
303.026
303.09
303.157
303.225
303.296
303.368
303.441
303.515
303.587
303.657
303.725
303.789
303.85
303.906
303.96
304.011
304.062
304.113
304.166
304.222
304.282
304.347
304.416
304.491
304.569
304.649
304.73
304.809
304.886
304.958
305.024
305.082
305.133
305.177
305.213
305.243
305.268
305.288
305.306
305.32
305.331
305.338
305.34
305.336
305.323
305.298
305.259
305.205
305.132
305.041
304.93
304.8
304.654
304.493
304.32
304.139
303.953
303.767
303.585
303.41
303.246
303.096
302.962
302.848
302.754
302.682
302.634
302.609
300.595
300.601
300.613
300.631
300.656
300.685
300.72
300.76
300.805
300.854
300.906
300.961
301.019
301.078
301.138
301.199
301.26
301.321
301.382
301.443
301.504
301.565
301.627
301.69
301.755
301.821
301.889
301.959
302.031
302.104
302.178
302.252
302.326
302.399
302.47
302.539
302.605
302.67
302.732
302.793
302.854
302.914
302.976
303.039
303.104
303.172
303.241
303.312
303.384
303.456
303.527
303.596
303.663
303.726
303.785
303.841
303.894
303.944
303.994
304.045
304.097
304.152
304.211
304.275
304.343
304.416
304.493
304.571
304.65
304.729
304.804
304.874
304.939
304.996
305.046
305.089
305.125
305.155
305.179
305.199
305.216
305.23
305.241
305.248
305.25
305.245
305.232
305.207
305.169
305.115
305.043
304.953
304.845
304.718
304.574
304.416
304.247
304.069
303.887
303.705
303.527
303.355
303.194
303.047
302.916
302.804
302.712
302.642
302.594
302.57
300.585
300.591
300.603
300.621
300.645
300.674
300.709
300.748
300.792
300.839
300.891
300.945
301.001
301.059
301.118
301.178
301.238
301.298
301.358
301.418
301.478
301.538
301.599
301.661
301.724
301.789
301.856
301.925
301.995
302.067
302.14
302.213
302.285
302.356
302.426
302.493
302.559
302.622
302.684
302.744
302.803
302.863
302.924
302.986
303.05
303.116
303.184
303.253
303.324
303.395
303.464
303.532
303.597
303.659
303.718
303.773
303.825
303.875
303.924
303.973
304.025
304.079
304.137
304.2
304.267
304.339
304.413
304.49
304.568
304.644
304.718
304.787
304.85
304.907
304.956
304.998
305.033
305.062
305.087
305.106
305.123
305.137
305.147
305.154
305.156
305.151
305.137
305.113
305.075
305.022
304.951
304.863
304.756
304.632
304.491
304.336
304.17
303.997
303.819
303.64
303.465
303.298
303.14
302.996
302.868
302.758
302.668
302.599
302.552
302.529
300.575
300.581
300.593
300.611
300.634
300.662
300.696
300.735
300.778
300.824
300.874
300.927
300.983
301.04
301.098
301.156
301.215
301.274
301.333
301.391
301.45
301.509
301.569
301.63
301.692
301.756
301.821
301.889
301.958
302.028
302.1
302.171
302.242
302.312
302.38
302.447
302.511
302.573
302.633
302.692
302.751
302.81
302.869
302.93
302.993
303.058
303.124
303.193
303.262
303.331
303.399
303.466
303.53
303.59
303.648
303.702
303.753
303.802
303.851
303.899
303.95
304.003
304.06
304.122
304.188
304.258
304.331
304.406
304.482
304.557
304.629
304.697
304.759
304.814
304.862
304.903
304.938
304.967
304.991
305.01
305.026
305.04
305.05
305.056
305.058
305.053
305.039
305.015
304.977
304.925
304.856
304.769
304.665
304.543
304.405
304.254
304.091
303.921
303.747
303.573
303.402
303.238
303.084
302.943
302.817
302.709
302.621
302.554
302.509
302.486
300.565
300.571
300.582
300.6
300.622
300.65
300.683
300.721
300.763
300.809
300.858
300.91
300.964
301.019
301.076
301.133
301.191
301.249
301.306
301.364
301.422
301.479
301.538
301.598
301.659
301.721
301.786
301.852
301.92
301.988
302.058
302.128
302.198
302.266
302.333
302.398
302.461
302.522
302.581
302.639
302.697
302.754
302.812
302.872
302.934
302.997
303.063
303.13
303.197
303.265
303.332
303.397
303.46
303.519
303.575
303.628
303.679
303.727
303.775
303.823
303.872
303.925
303.981
304.041
304.105
304.174
304.246
304.319
304.394
304.467
304.537
304.603
304.664
304.718
304.765
304.806
304.84
304.868
304.891
304.91
304.926
304.939
304.949
304.955
304.956
304.951
304.938
304.914
304.877
304.825
304.757
304.672
304.57
304.451
304.316
304.168
304.009
303.843
303.673
303.503
303.336
303.175
303.025
302.887
302.764
302.659
302.573
302.507
302.463
302.44
300.554
300.56
300.571
300.588
300.61
300.638
300.67
300.707
300.748
300.792
300.84
300.891
300.944
300.998
301.054
301.11
301.166
301.223
301.279
301.336
301.392
301.449
301.506
301.565
301.624
301.686
301.749
301.813
301.88
301.947
302.015
302.084
302.152
302.219
302.284
302.348
302.409
302.469
302.527
302.584
302.64
302.697
302.754
302.813
302.873
302.935
302.999
303.064
303.131
303.197
303.262
303.326
303.387
303.445
303.5
303.552
303.602
303.649
303.696
303.743
303.792
303.843
303.898
303.957
304.02
304.087
304.157
304.229
304.302
304.373
304.442
304.506
304.566
304.619
304.665
304.704
304.738
304.765
304.788
304.807
304.823
304.835
304.845
304.851
304.852
304.847
304.833
304.809
304.773
304.722
304.656
304.573
304.472
304.356
304.224
304.08
303.925
303.763
303.597
303.43
303.267
303.111
302.964
302.829
302.709
302.607
302.522
302.458
302.415
302.393
300.543
300.548
300.56
300.576
300.598
300.624
300.656
300.692
300.732
300.775
300.822
300.872
300.923
300.977
301.031
301.086
301.141
301.196
301.251
301.306
301.362
301.417
301.473
301.53
301.589
301.649
301.71
301.774
301.838
301.904
301.971
302.038
302.104
302.17
302.234
302.296
302.356
302.415
302.471
302.527
302.582
302.638
302.694
302.751
302.81
302.871
302.933
302.997
303.062
303.126
303.19
303.252
303.312
303.369
303.423
303.474
303.522
303.569
303.615
303.661
303.709
303.759
303.813
303.871
303.932
303.998
304.066
304.136
304.207
304.277
304.344
304.407
304.464
304.516
304.561
304.6
304.633
304.66
304.682
304.701
304.716
304.728
304.738
304.743
304.744
304.739
304.725
304.702
304.666
304.616
304.551
304.47
304.372
304.258
304.13
303.989
303.837
303.679
303.517
303.355
303.196
303.044
302.9
302.769
302.652
302.552
302.47
302.407
302.365
302.344
300.531
300.537
300.547
300.563
300.584
300.611
300.641
300.676
300.715
300.758
300.804
300.852
300.902
300.954
301.007
301.061
301.115
301.168
301.222
301.276
301.33
301.384
301.439
301.495
301.552
301.611
301.671
301.733
301.796
301.86
301.925
301.991
302.055
302.119
302.182
302.243
302.301
302.358
302.414
302.468
302.522
302.576
302.631
302.687
302.745
302.804
302.865
302.928
302.991
303.054
303.116
303.177
303.235
303.291
303.343
303.393
303.44
303.486
303.531
303.576
303.623
303.672
303.725
303.781
303.842
303.905
303.972
304.04
304.109
304.177
304.242
304.304
304.36
304.411
304.455
304.493
304.525
304.551
304.573
304.591
304.606
304.618
304.627
304.632
304.633
304.627
304.614
304.591
304.556
304.507
304.443
304.364
304.268
304.157
304.032
303.895
303.748
303.594
303.436
303.278
303.123
302.974
302.835
302.707
302.593
302.496
302.416
302.354
302.313
302.292
300.519
300.524
300.535
300.55
300.571
300.596
300.626
300.66
300.698
300.74
300.784
300.831
300.88
300.931
300.983
301.035
301.087
301.14
301.193
301.245
301.298
301.351
301.404
301.459
301.514
301.572
301.63
301.691
301.752
301.815
301.878
301.942
302.005
302.067
302.128
302.188
302.245
302.301
302.355
302.408
302.461
302.514
302.567
302.622
302.678
302.736
302.796
302.856
302.918
302.979
303.04
303.099
303.156
303.21
303.261
303.31
303.356
303.401
303.445
303.489
303.535
303.583
303.634
303.689
303.748
303.81
303.875
303.942
304.009
304.075
304.138
304.198
304.253
304.302
304.345
304.382
304.413
304.439
304.461
304.479
304.493
304.505
304.513
304.518
304.519
304.513
304.5
304.477
304.443
304.395
304.333
304.255
304.162
304.054
303.932
303.799
303.655
303.505
303.352
303.198
303.048
302.903
302.767
302.643
302.532
302.437
302.359
302.3
302.26
302.239
300.506
300.512
300.522
300.537
300.557
300.582
300.611
300.644
300.681
300.721
300.765
300.81
300.858
300.907
300.958
301.008
301.06
301.111
301.162
301.213
301.264
301.316
301.368
301.421
301.476
301.531
301.589
301.647
301.707
301.768
301.83
301.892
301.954
302.014
302.073
302.131
302.187
302.241
302.294
302.346
302.398
302.449
302.501
302.555
302.61
302.666
302.724
302.783
302.843
302.903
302.962
303.019
303.075
303.127
303.177
303.225
303.27
303.313
303.356
303.4
303.444
303.491
303.541
303.595
303.652
303.713
303.776
303.841
303.906
303.97
304.032
304.09
304.143
304.191
304.233
304.269
304.299
304.325
304.346
304.363
304.377
304.388
304.397
304.402
304.402
304.396
304.383
304.361
304.327
304.28
304.22
304.144
304.053
303.948
303.83
303.7
303.561
303.415
303.266
303.117
302.97
302.83
302.698
302.577
302.469
302.377
302.301
302.243
302.204
302.185
300.493
300.498
300.508
300.523
300.543
300.566
300.595
300.627
300.663
300.702
300.744
300.789
300.835
300.883
300.932
300.981
301.031
301.081
301.131
301.18
301.23
301.281
301.331
301.383
301.436
301.49
301.546
301.603
301.661
301.721
301.781
301.841
301.901
301.96
302.017
302.073
302.128
302.181
302.232
302.283
302.333
302.383
302.434
302.486
302.539
302.594
302.65
302.708
302.766
302.824
302.881
302.937
302.991
303.043
303.091
303.137
303.181
303.224
303.266
303.308
303.351
303.397
303.446
303.498
303.554
303.612
303.674
303.737
303.8
303.862
303.922
303.978
304.03
304.077
304.118
304.153
304.182
304.207
304.227
304.244
304.258
304.269
304.277
304.282
304.282
304.276
304.263
304.241
304.208
304.163
304.104
304.03
303.942
303.84
303.725
303.599
303.464
303.322
303.178
303.033
302.891
302.754
302.626
302.509
302.404
302.315
302.241
302.185
302.147
302.128
300.48
300.485
300.494
300.509
300.528
300.551
300.578
300.61
300.645
300.683
300.723
300.767
300.812
300.858
300.905
300.953
301.002
301.05
301.098
301.147
301.195
301.244
301.294
301.344
301.395
301.448
301.502
301.557
301.614
301.672
301.73
301.788
301.846
301.904
301.96
302.014
302.067
302.118
302.169
302.218
302.266
302.315
302.365
302.415
302.467
302.52
302.575
302.631
302.687
302.744
302.799
302.853
302.906
302.956
303.003
303.048
303.091
303.132
303.173
303.214
303.256
303.301
303.348
303.399
303.453
303.51
303.569
303.63
303.692
303.752
303.81
303.865
303.915
303.96
304
304.034
304.063
304.087
304.107
304.123
304.136
304.147
304.155
304.159
304.159
304.153
304.141
304.119
304.087
304.043
303.985
303.914
303.828
303.729
303.618
303.495
303.364
303.227
303.087
302.947
302.809
302.677
302.553
302.439
302.338
302.251
302.179
302.125
302.088
302.07
300.466
300.471
300.48
300.494
300.512
300.535
300.561
300.592
300.626
300.662
300.702
300.744
300.787
300.832
300.878
300.925
300.972
301.019
301.066
301.112
301.16
301.207
301.255
301.304
301.354
301.405
301.457
301.511
301.566
301.622
301.678
301.735
301.791
301.846
301.901
301.954
302.005
302.055
302.103
302.151
302.198
302.246
302.294
302.343
302.393
302.445
302.498
302.552
302.607
302.661
302.715
302.768
302.818
302.867
302.913
302.956
302.998
303.038
303.078
303.118
303.159
303.202
303.248
303.297
303.35
303.405
303.462
303.521
303.581
303.639
303.695
303.748
303.797
303.841
303.879
303.912
303.94
303.964
303.983
303.999
304.012
304.022
304.03
304.034
304.034
304.028
304.015
303.994
303.963
303.92
303.864
303.795
303.712
303.616
303.508
303.39
303.263
303.13
302.995
302.859
302.725
302.597
302.477
302.367
302.269
302.185
302.116
302.063
302.028
302.01
300.452
300.457
300.466
300.479
300.497
300.518
300.544
300.574
300.606
300.642
300.68
300.721
300.763
300.806
300.851
300.896
300.941
300.986
301.032
301.077
301.123
301.169
301.215
301.263
301.311
301.36
301.411
301.463
301.516
301.571
301.625
301.68
301.734
301.788
301.841
301.892
301.942
301.99
302.037
302.083
302.129
302.175
302.221
302.269
302.318
302.368
302.419
302.471
302.524
302.577
302.629
302.68
302.729
302.776
302.821
302.863
302.903
302.942
302.981
303.019
303.059
303.101
303.146
303.193
303.244
303.298
303.353
303.41
303.468
303.524
303.578
303.63
303.677
303.719
303.756
303.788
303.815
303.838
303.857
303.872
303.885
303.895
303.902
303.906
303.906
303.9
303.888
303.867
303.837
303.795
303.741
303.674
303.594
303.501
303.396
303.282
303.159
303.031
302.9
302.769
302.64
302.516
302.4
302.294
302.199
302.118
302.051
302
301.966
301.948
300.437
300.442
300.451
300.463
300.481
300.502
300.526
300.555
300.586
300.621
300.658
300.697
300.738
300.78
300.822
300.866
300.91
300.954
300.998
301.042
301.086
301.13
301.175
301.221
301.267
301.315
301.364
301.415
301.466
301.518
301.571
301.624
301.677
301.728
301.779
301.829
301.877
301.924
301.969
302.014
302.058
302.103
302.148
302.194
302.241
302.289
302.339
302.389
302.44
302.491
302.542
302.591
302.638
302.684
302.727
302.767
302.806
302.844
302.881
302.919
302.958
302.998
303.041
303.087
303.136
303.188
303.242
303.297
303.352
303.407
303.459
303.508
303.554
303.595
303.631
303.662
303.688
303.71
303.728
303.743
303.755
303.765
303.772
303.775
303.775
303.769
303.757
303.737
303.708
303.667
303.615
303.55
303.473
303.383
303.282
303.172
303.054
302.93
302.804
302.677
302.553
302.433
302.321
302.219
302.127
302.049
301.984
301.935
301.902
301.885
300.423
300.427
300.435
300.448
300.464
300.484
300.508
300.536
300.566
300.599
300.635
300.673
300.712
300.752
300.794
300.836
300.878
300.92
300.963
301.005
301.048
301.091
301.134
301.178
301.223
301.269
301.317
301.365
301.415
301.465
301.516
301.567
301.618
301.668
301.717
301.765
301.811
301.856
301.9
301.943
301.986
302.029
302.072
302.117
302.162
302.209
302.257
302.305
302.355
302.404
302.452
302.5
302.546
302.589
302.631
302.67
302.708
302.744
302.78
302.817
302.854
302.893
302.935
302.979
303.027
303.076
303.128
303.181
303.234
303.287
303.337
303.385
303.429
303.468
303.503
303.533
303.558
303.579
303.597
303.611
303.623
303.632
303.639
303.642
303.642
303.637
303.625
303.605
303.577
303.538
303.487
303.425
303.35
303.264
303.166
303.06
302.946
302.827
302.705
302.583
302.464
302.349
302.241
302.142
302.054
301.978
301.916
301.869
301.837
301.821
300.407
300.411
300.419
300.431
300.447
300.467
300.49
300.516
300.545
300.577
300.612
300.648
300.686
300.725
300.764
300.805
300.845
300.886
300.927
300.968
301.009
301.05
301.092
301.135
301.178
301.222
301.268
301.315
301.362
301.411
301.46
301.509
301.558
301.606
301.653
301.699
301.744
301.787
301.83
301.871
301.913
301.954
301.996
302.038
302.082
302.127
302.173
302.22
302.268
302.315
302.362
302.407
302.451
302.493
302.533
302.571
302.608
302.643
302.678
302.713
302.749
302.786
302.827
302.869
302.915
302.963
303.012
303.063
303.115
303.165
303.214
303.26
303.302
303.34
303.373
303.402
303.426
303.447
303.464
303.478
303.489
303.498
303.504
303.507
303.507
303.501
303.49
303.471
303.444
303.406
303.357
303.297
303.225
303.142
303.048
302.946
302.837
302.722
302.605
302.488
302.373
302.262
302.159
302.064
301.979
301.906
301.847
301.801
301.77
301.755
300.392
300.396
300.403
300.415
300.43
300.449
300.471
300.496
300.524
300.555
300.588
300.623
300.659
300.696
300.735
300.773
300.812
300.852
300.891
300.93
300.97
301.009
301.049
301.09
301.132
301.175
301.219
301.263
301.309
301.356
301.403
301.45
301.497
301.543
301.589
301.633
301.676
301.717
301.758
301.798
301.838
301.878
301.918
301.959
302.001
302.044
302.088
302.133
302.179
302.224
302.269
302.313
302.355
302.396
302.434
302.471
302.506
302.54
302.573
302.607
302.641
302.678
302.716
302.757
302.801
302.847
302.895
302.944
302.993
303.041
303.088
303.132
303.172
303.209
303.241
303.268
303.292
303.312
303.328
303.341
303.352
303.361
303.367
303.37
303.369
303.364
303.353
303.335
303.308
303.272
303.225
303.167
303.098
303.018
302.929
302.83
302.725
302.616
302.503
302.391
302.281
302.175
302.075
301.984
301.903
301.833
301.776
301.732
301.702
301.688
300.376
300.38
300.387
300.398
300.413
300.431
300.452
300.476
300.503
300.532
300.564
300.597
300.632
300.668
300.704
300.741
300.779
300.816
300.854
300.892
300.93
300.968
301.006
301.045
301.085
301.126
301.168
301.211
301.255
301.3
301.345
301.39
301.435
301.479
301.523
301.565
301.606
301.646
301.685
301.724
301.762
301.8
301.839
301.878
301.918
301.96
302.002
302.045
302.089
302.132
302.175
302.217
302.258
302.297
302.333
302.369
302.402
302.435
302.467
302.499
302.532
302.567
302.604
302.644
302.685
302.729
302.775
302.822
302.869
302.916
302.96
303.002
303.041
303.076
303.107
303.133
303.156
303.174
303.19
303.203
303.214
303.222
303.227
303.23
303.23
303.225
303.214
303.196
303.171
303.136
303.091
303.036
302.969
302.893
302.807
302.713
302.613
302.507
302.4
302.292
302.187
302.085
301.99
301.903
301.825
301.758
301.703
301.661
301.633
301.619
300.36
300.363
300.37
300.381
300.395
300.412
300.432
300.455
300.481
300.509
300.539
300.571
300.604
300.639
300.674
300.709
300.745
300.781
300.817
300.853
300.889
300.925
300.962
301
301.038
301.077
301.117
301.158
301.2
301.243
301.286
301.329
301.372
301.415
301.456
301.497
301.536
301.574
301.612
301.648
301.685
301.721
301.758
301.796
301.834
301.874
301.915
301.956
301.998
302.039
302.08
302.12
302.159
302.196
302.231
302.265
302.297
302.328
302.359
302.39
302.422
302.455
302.49
302.528
302.568
302.61
302.654
302.699
302.744
302.788
302.831
302.871
302.908
302.941
302.97
302.996
303.017
303.035
303.05
303.063
303.073
303.08
303.086
303.089
303.088
303.083
303.073
303.056
303.032
302.998
302.955
302.902
302.839
302.766
302.684
302.594
302.498
302.398
302.295
302.192
302.091
301.994
301.903
301.82
301.746
301.682
301.63
301.59
301.563
301.549
300.343
300.347
300.353
300.363
300.377
300.393
300.412
300.434
300.459
300.486
300.514
300.545
300.576
300.609
300.642
300.676
300.71
300.745
300.779
300.813
300.848
300.882
300.918
300.953
300.99
301.027
301.065
301.105
301.145
301.185
301.226
301.268
301.309
301.349
301.389
301.427
301.465
301.501
301.537
301.572
301.607
301.641
301.677
301.713
301.749
301.787
301.826
301.865
301.905
301.944
301.984
302.022
302.059
302.094
302.128
302.16
302.19
302.22
302.249
302.279
302.309
302.341
302.375
302.411
302.449
302.489
302.531
302.573
302.616
302.658
302.699
302.737
302.773
302.804
302.832
302.857
302.877
302.894
302.909
302.92
302.93
302.937
302.943
302.945
302.944
302.94
302.93
302.914
302.89
302.859
302.818
302.767
302.707
302.637
302.559
302.473
302.382
302.286
302.188
302.09
301.994
301.902
301.815
301.736
301.665
301.604
301.555
301.517
301.491
301.478
300.326
300.33
300.336
300.346
300.358
300.374
300.392
300.413
300.436
300.462
300.489
300.518
300.548
300.579
300.611
300.643
300.675
300.708
300.74
300.773
300.806
300.839
300.872
300.906
300.941
300.976
301.013
301.05
301.088
301.127
301.166
301.205
301.244
301.282
301.32
301.357
301.392
301.427
301.461
301.494
301.527
301.561
301.594
301.628
301.663
301.699
301.736
301.773
301.811
301.849
301.886
301.922
301.957
301.991
302.023
302.053
302.082
302.111
302.138
302.167
302.195
302.226
302.258
302.292
302.328
302.366
302.406
302.447
302.487
302.527
302.566
302.602
302.636
302.666
302.692
302.715
302.735
302.751
302.765
302.776
302.785
302.792
302.797
302.8
302.799
302.795
302.785
302.77
302.747
302.717
302.678
302.63
302.573
302.507
302.432
302.351
302.264
302.173
302.081
301.988
301.896
301.809
301.726
301.651
301.584
301.526
301.479
301.442
301.418
301.406
300.309
300.312
300.319
300.328
300.34
300.354
300.372
300.391
300.413
300.438
300.463
300.491
300.519
300.549
300.579
300.609
300.64
300.671
300.702
300.733
300.764
300.795
300.827
300.859
300.892
300.925
300.96
300.995
301.031
301.068
301.105
301.142
301.179
301.215
301.251
301.285
301.319
301.352
301.384
301.416
301.447
301.479
301.51
301.543
301.576
301.61
301.645
301.68
301.716
301.752
301.787
301.821
301.854
301.886
301.916
301.945
301.973
302
302.026
302.053
302.08
302.109
302.139
302.172
302.206
302.242
302.28
302.318
302.357
302.395
302.431
302.465
302.497
302.526
302.551
302.573
302.591
302.607
302.62
302.63
302.639
302.646
302.65
302.653
302.652
302.648
302.639
302.624
302.603
302.574
302.537
302.492
302.437
302.375
302.304
302.227
302.145
302.059
301.971
301.883
301.797
301.714
301.636
301.564
301.501
301.446
301.401
301.367
301.344
301.332
300.292
300.295
300.301
300.309
300.321
300.334
300.351
300.37
300.39
300.413
300.437
300.463
300.49
300.518
300.546
300.575
300.604
300.633
300.662
300.691
300.721
300.75
300.78
300.811
300.842
300.873
300.906
300.939
300.973
301.008
301.043
301.078
301.113
301.147
301.181
301.213
301.245
301.276
301.307
301.337
301.366
301.396
301.426
301.456
301.488
301.52
301.552
301.586
301.62
301.653
301.687
301.719
301.75
301.78
301.809
301.836
301.862
301.888
301.913
301.938
301.964
301.991
302.02
302.05
302.082
302.117
302.152
302.188
302.224
302.26
302.295
302.327
302.357
302.384
302.408
302.428
302.446
302.461
302.473
302.483
302.491
302.497
302.502
302.504
302.503
302.499
302.491
302.477
302.457
302.43
302.395
302.352
302.301
302.241
302.175
302.102
302.025
301.944
301.861
301.778
301.696
301.618
301.544
301.477
301.417
301.365
301.323
301.291
301.269
301.258
300.275
300.277
300.283
300.291
300.301
300.314
300.33
300.347
300.367
300.388
300.411
300.435
300.461
300.487
300.513
300.54
300.568
300.595
300.623
300.65
300.678
300.705
300.733
300.762
300.791
300.821
300.852
300.883
300.915
300.947
300.98
301.013
301.046
301.078
301.11
301.141
301.171
301.2
301.228
301.256
301.284
301.312
301.34
301.369
301.398
301.428
301.459
301.491
301.522
301.554
301.585
301.616
301.645
301.673
301.7
301.726
301.75
301.774
301.798
301.821
301.846
301.871
301.898
301.927
301.957
301.989
302.023
302.057
302.091
302.125
302.157
302.187
302.216
302.241
302.263
302.283
302.299
302.313
302.324
302.334
302.341
302.347
302.351
302.353
302.353
302.349
302.341
302.328
302.309
302.284
302.251
302.21
302.162
302.107
302.044
301.976
301.903
301.827
301.749
301.671
301.594
301.521
301.452
301.388
301.332
301.283
301.244
301.213
301.193
301.183
300.643
300.65
300.664
300.684
300.711
300.744
300.783
300.828
300.878
300.932
300.991
301.052
301.116
301.182
301.249
301.317
301.385
301.452
301.519
301.586
301.652
301.719
301.786
301.855
301.926
301.998
302.073
302.151
302.23
302.311
302.394
302.476
302.558
302.639
302.717
302.793
302.866
302.936
303.004
303.071
303.136
303.202
303.269
303.338
303.409
303.483
303.56
303.639
303.719
303.8
303.879
303.956
304.03
304.099
304.164
304.225
304.282
304.336
304.389
304.443
304.498
304.558
304.622
304.692
304.768
304.849
304.935
305.024
305.113
305.202
305.287
305.366
305.438
305.503
305.558
305.604
305.643
305.674
305.7
305.722
305.74
305.755
305.768
305.778
305.783
305.781
305.769
305.745
305.706
305.649
305.572
305.473
305.352
305.21
305.049
304.871
304.679
304.478
304.272
304.066
303.864
303.67
303.488
303.322
303.175
303.048
302.944
302.865
302.812
302.785
300.637
300.644
300.657
300.677
300.704
300.736
300.775
300.819
300.868
300.922
300.979
301.04
301.103
301.168
301.234
301.301
301.368
301.434
301.501
301.567
301.632
301.698
301.765
301.833
301.903
301.974
302.049
302.125
302.203
302.283
302.365
302.446
302.527
302.606
302.684
302.759
302.831
302.901
302.968
303.033
303.098
303.163
303.229
303.297
303.368
303.441
303.517
303.595
303.674
303.753
303.832
303.908
303.98
304.049
304.113
304.173
304.23
304.284
304.336
304.389
304.444
304.503
304.567
304.636
304.711
304.791
304.875
304.963
305.051
305.138
305.222
305.3
305.371
305.434
305.489
305.535
305.573
305.604
305.63
305.651
305.669
305.685
305.697
305.706
305.711
305.708
305.697
305.673
305.633
305.577
305.5
305.403
305.284
305.144
304.985
304.809
304.621
304.423
304.221
304.018
303.819
303.628
303.449
303.286
303.14
303.016
302.914
302.836
302.784
302.757
300.63
300.637
300.65
300.67
300.696
300.728
300.766
300.809
300.858
300.911
300.967
301.027
301.089
301.153
301.219
301.284
301.35
301.416
301.481
301.546
301.611
301.676
301.742
301.81
301.878
301.949
302.022
302.098
302.175
302.254
302.334
302.414
302.494
302.572
302.649
302.723
302.794
302.863
302.929
302.994
303.058
303.122
303.188
303.255
303.324
303.397
303.471
303.548
303.626
303.704
303.781
303.856
303.928
303.996
304.059
304.119
304.174
304.228
304.28
304.332
304.387
304.445
304.508
304.576
304.65
304.729
304.812
304.898
304.985
305.07
305.153
305.23
305.3
305.362
305.416
305.461
305.499
305.53
305.555
305.577
305.594
305.609
305.622
305.631
305.635
305.632
305.62
305.596
305.557
305.501
305.425
305.329
305.211
305.074
304.917
304.745
304.559
304.365
304.166
303.966
303.771
303.583
303.407
303.247
303.104
302.981
302.881
302.804
302.753
302.727
300.623
300.629
300.642
300.662
300.687
300.719
300.757
300.799
300.847
300.899
300.954
301.013
301.075
301.138
301.202
301.267
301.332
301.396
301.461
301.525
301.589
301.653
301.718
301.785
301.853
301.922
301.994
302.069
302.145
302.223
302.301
302.38
302.459
302.536
302.612
302.684
302.755
302.822
302.888
302.952
303.015
303.079
303.143
303.21
303.279
303.35
303.423
303.499
303.576
303.653
303.729
303.802
303.873
303.94
304.002
304.061
304.116
304.169
304.22
304.273
304.327
304.384