/*--------------------------------*- C++ -*----------------------------------*\
| =========                 |                                                 |
| \\      /  F ield         | OpenFOAM: The Open Source CFD Toolbox           |
|  \\    /   O peration     | Version:  2312                                  |
|   \\  /    A nd           | Website:  www.openfoam.com                      |
|    \\/     M anipulation  |                                                 |
\*---------------------------------------------------------------------------*/
FoamFile
{
    version     2.0;
    format      ascii;
    arch        "LSB;label=32;scalar=64";
    class       volVectorField;
    location    "0";
    object      U;
}
// * * * * * * * * * * * * * * * * * * * * * * * * * * * * * * * * * * * * * //

dimensions      [0 1 -1 0 0 0 0];

internalField   nonuniform List<vector> 
9000
(
(0.0123492 8.37467e-05 0)
(0.0121983 3.05474e-05 0)
(0.0125204 -3.20612e-05 0)
(0.0133358 -8.58799e-05 0)
(0.0145774 -0.00012619 0)
(0.0161418 -0.000153662 0)
(0.0179251 -0.000169964 0)
(0.019833 -0.00017702 0)
(0.0217843 -0.000176707 0)
(0.0237128 -0.000170745 0)
(0.0255666 -0.000160674 0)
(0.0273077 -0.00014783 0)
(0.0289101 -0.00013334 0)
(0.0303585 -0.000118123 0)
(0.0316462 -0.0001029 0)
(0.0327736 -8.82083e-05 0)
(0.0337462 -7.44267e-05 0)
(0.034573 -6.17978e-05 0)
(0.0352659 -5.04541e-05 0)
(0.0358378 -4.04417e-05 0)
(0.0363023 -3.17425e-05 0)
(0.0366727 -2.42924e-05 0)
(0.036962 -1.79976e-05 0)
(0.0371823 -1.27468e-05 0)
(0.0373444 -8.4214e-06 0)
(0.0374583 -4.90261e-06 0)
(0.0375326 -2.07683e-06 0)
(0.0375749 1.60681e-07 0)
(0.0375919 1.90342e-06 0)
(0.0375893 3.23212e-06 0)
(0.0375721 4.21383e-06 0)
(0.0375448 4.90137e-06 0)
(0.0375114 5.33277e-06 0)
(0.0374758 5.53059e-06 0)
(0.0374419 5.50066e-06 0)
(0.037414 5.23007e-06 0)
(0.037397 4.68353e-06 0)
(0.0373969 3.79725e-06 0)
(0.0374217 2.46783e-06 0)
(0.0374821 5.30865e-07 0)
(0.037593 -2.28531e-06 0)
(0.0377767 -6.47306e-06 0)
(0.0380674 -1.30636e-05 0)
(0.0385214 -2.45564e-05 0)
(0.0392406 -4.78002e-05 0)
(0.0404332 -0.00010588 0)
(0.0425605 -0.000288038 0)
(0.0465626 -0.000808133 0)
(0.0572519 -0.0033034 0)
(0.0839373 -0.0239545 0)
(0.0373184 0.000238301 0)
(0.0374133 -0.000142733 0)
(0.0386512 -0.000738808 0)
(0.0410816 -0.00130526 0)
(0.0445663 -0.00176622 0)
(0.0488742 -0.00210207 0)
(0.0537557 -0.00231638 0)
(0.0589741 -0.00242219 0)
(0.0643197 -0.00243632 0)
(0.0696173 -0.00237662 0)
(0.0747273 -0.00226053 0)
(0.0795449 -0.00210412 0)
(0.0839974 -0.00192158 0)
(0.0880398 -0.00172495 0)
(0.091651 -0.00152403 0)
(0.0948284 -0.00132645 0)
(0.0975841 -0.00113785 0)
(0.0999407 -0.000962136 0)
(0.101928 -0.000801734 0)
(0.10358 -0.000657883 0)
(0.104933 -0.000530891 0)
(0.106022 -0.000420377 0)
(0.106882 -0.000325478 0)
(0.107547 -0.00024502 0)
(0.108045 -0.000177656 0)
(0.108406 -0.00012198 0)
(0.108653 -7.66082e-05 0)
(0.108807 -4.02408e-05 0)
(0.108888 -1.17103e-05 0)
(0.108912 9.98477e-06 0)
(0.108893 2.56528e-05 0)
(0.108846 3.5884e-05 0)
(0.108782 4.10234e-05 0)
(0.108714 4.11355e-05 0)
(0.108654 3.59532e-05 0)
(0.108615 2.47987e-05 0)
(0.108613 6.45706e-06 0)
(0.108669 -2.10289e-05 0)
(0.108808 -6.07067e-05 0)
(0.109066 -0.000117327 0)
(0.109491 -0.000198478 0)
(0.110157 -0.00031684 0)
(0.111173 -0.000494991 0)
(0.112717 -0.000776464 0)
(0.115086 -0.00125316 0)
(0.118821 -0.00213911 0)
(0.124944 -0.00398199 0)
(0.13536 -0.00823352 0)
(0.1554 -0.0189869 0)
(0.19204 -0.0523375 0)
(0.0623826 0.00023694 0)
(0.0630639 -0.000800328 0)
(0.0654167 -0.00228634 0)
(0.0694701 -0.00371446 0)
(0.0750349 -0.00489905 0)
(0.0817986 -0.00577824 0)
(0.0894095 -0.00634979 0)
(0.097525 -0.00663978 0)
(0.105836 -0.00668742 0)
(0.114079 -0.00653704 0)
(0.122043 -0.00623331 0)
(0.129567 -0.00581833 0)
(0.136538 -0.00532981 0)
(0.142883 -0.00480013 0)
(0.148568 -0.0042559 0)
(0.153587 -0.00371809 0)
(0.157955 -0.0032024 0)
(0.161704 -0.00271987 0)
(0.16488 -0.00227755 0)
(0.167532 -0.00187924 0)
(0.169715 -0.00152619 0)
(0.171484 -0.0012177 0)
(0.172893 -0.000951727 0)
(0.173991 -0.000725323 0)
(0.174826 -0.000535019 0)
(0.175441 -0.000377143 0)
(0.175873 -0.000248046 0)
(0.176158 -0.000144288 0)
(0.176324 -6.27711e-05 0)
(0.176398 -8.45751e-07 0)
(0.176405 4.36042e-05 0)
(0.176367 7.20813e-05 0)
(0.176303 8.53854e-05 0)
(0.176234 8.34989e-05 0)
(0.17618 6.54209e-05 0)
(0.176167 2.89164e-05 0)
(0.176219 -2.98795e-05 0)
(0.176373 -0.0001171 0)
(0.176672 -0.000242212 0)
(0.177175 -0.000419842 0)
(0.177967 -0.000673065 0)
(0.179167 -0.00103958 0)
(0.180953 -0.00158393 0)
(0.183602 -0.00242297 0)
(0.187552 -0.0037816 0)
(0.193526 -0.00612025 0)
(0.202734 -0.0104351 0)
(0.217052 -0.0189348 0)
(0.239872 -0.036489 0)
(0.273085 -0.0750668 0)
(0.0874719 -1.59484e-05 0)
(0.088897 -0.00205682 0)
(0.0924758 -0.00473049 0)
(0.0981564 -0.00729321 0)
(0.105687 -0.00943594 0)
(0.114693 -0.0110411 0)
(0.124747 -0.0120941 0)
(0.135426 -0.012634 0)
(0.146343 -0.0127271 0)
(0.157168 -0.0124516 0)
(0.16763 -0.0118882 0)
(0.177524 -0.0111142 0)
(0.186702 -0.0101993 0)
(0.195072 -0.00920406 0)
(0.202586 -0.0081784 0)
(0.209234 -0.00716201 0)
(0.215035 -0.00618483 0)
(0.22003 -0.0052681 0)
(0.224274 -0.0044256 0)
(0.227832 -0.00366498 0)
(0.230773 -0.00298903 0)
(0.233169 -0.00239688 0)
(0.235088 -0.001885 0)
(0.236596 -0.00144814 0)
(0.237755 -0.00108 0)
(0.23862 -0.000773846 0)
(0.239241 -0.000522959 0)
(0.239664 -0.000320976 0)
(0.239928 -0.000162168 0)
(0.24007 -4.16457e-05 0)
(0.240122 4.44636e-05 0)
(0.240114 9.88501e-05 0)
(0.240073 0.000122836 0)
(0.240028 0.000116137 0)
(0.240008 7.65232e-05 0)
(0.240046 -6.88522e-07 0)
(0.24018 -0.000123425 0)
(0.240458 -0.000304113 0)
(0.24094 -0.000561737 0)
(0.241709 -0.00092529 0)
(0.242877 -0.00143977 0)
(0.2446 -0.00217697 0)
(0.247106 -0.00325554 0)
(0.250728 -0.00487961 0)
(0.255965 -0.00741498 0)
(0.263559 -0.0115415 0)
(0.274584 -0.018554 0)
(0.290361 -0.0309074 0)
(0.312262 -0.0529277 0)
(0.339086 -0.0918267 0)
(0.112562 -0.000563882 0)
(0.114783 -0.00396499 0)
(0.119629 -0.00807717 0)
(0.126921 -0.0119776 0)
(0.136324 -0.0152437 0)
(0.147403 -0.0177001 0)
(0.159668 -0.019317 0)
(0.172632 -0.0201465 0)
(0.18585 -0.0202848 0)
(0.198937 -0.0198492 0)
(0.211579 -0.0189628 0)
(0.223533 -0.0177446 0)
(0.234629 -0.016303 0)
(0.244756 -0.0147324 0)
(0.253859 -0.0131113 0)
(0.261924 -0.0115022 0)
(0.268975 -0.00995254 0)
(0.275059 -0.00849623 0)
(0.280241 -0.00715545 0)
(0.284598 -0.00594276 0)
(0.288213 -0.00486302 0)
(0.29117 -0.00391529 0)
(0.29355 -0.00309444 0)
(0.295433 -0.00239248 0)
(0.296891 -0.00179979 0)
(0.297992 -0.00130598 0)
(0.298796 -0.000900648 0)
(0.299358 -0.000573925 0)
(0.299727 -0.000316928 0)
(0.299946 -0.00012209 0)
(0.300056 1.65352e-05 0)
(0.300093 0.000103001 0)
(0.300092 0.000139156 0)
(0.300089 0.000124243 0)
(0.30012 5.43482e-05 0)
(0.300227 -7.84242e-05 0)
(0.300458 -0.000287214 0)
(0.300871 -0.000592374 0)
(0.301542 -0.00102463 0)
(0.30257 -0.00163022 0)
(0.304087 -0.00247955 0)
(0.306273 -0.00368201 0)
(0.309379 -0.00541194 0)
(0.313753 -0.00795484 0)
(0.319876 -0.0117898 0)
(0.328391 -0.0177341 0)
(0.340078 -0.0271791 0)
(0.355591 -0.04241 0)
(0.374887 -0.066704 0)
(0.395466 -0.103798 0)
(0.137644 -0.00140772 0)
(0.140656 -0.0065337 0)
(0.146763 -0.0123211 0)
(0.155628 -0.0177291 0)
(0.166815 -0.0222431 0)
(0.179822 -0.0256372 0)
(0.194102 -0.0278687 0)
(0.209115 -0.0290043 0)
(0.224367 -0.0291736 0)
(0.239433 -0.0285371 0)
(0.253964 -0.0272654 0)
(0.267693 -0.0255247 0)
(0.280432 -0.0234671 0)
(0.292059 -0.0212254 0)
(0.302513 -0.0189107 0)
(0.311784 -0.0166116 0)
(0.319897 -0.0143954 0)
(0.326908 -0.0123105 0)
(0.33289 -0.0103888 0)
(0.337932 -0.00864839 0)
(0.342126 -0.00709671 0)
(0.345567 -0.00573278 0)
(0.34835 -0.00454965 0)
(0.350562 -0.00353634 0)
(0.352287 -0.00267946 0)
(0.353602 -0.00196449 0)
(0.354575 -0.00137688 0)
(0.35527 -0.000902807 0)
(0.355743 -0.000529817 0)
(0.356043 -0.000247346 0)
(0.356217 -4.71385e-05 0)
(0.356309 7.63396e-05 0)
(0.356359 0.000125443 0)
(0.356409 9.8771e-05 0)
(0.356502 -9.63196e-06 0)
(0.356686 -0.000211438 0)
(0.357018 -0.000525786 0)
(0.357565 -0.000981961 0)
(0.358413 -0.00162358 0)
(0.359671 -0.00251524 0)
(0.361482 -0.00375319 0)
(0.364035 -0.00548281 0)
(0.367579 -0.00792739 0)
(0.372441 -0.0114353 0)
(0.379034 -0.0165557 0)
(0.387836 -0.0241532 0)
(0.399295 -0.0355553 0)
(0.413511 -0.052664 0)
(0.429629 -0.0777054 0)
(0.444894 -0.112225 0)
(0.162717 -0.00253284 0)
(0.166485 -0.00974637 0)
(0.173814 -0.0174401 0)
(0.184197 -0.0245071 0)
(0.197078 -0.0303671 0)
(0.211884 -0.0347568 0)
(0.228007 -0.0376269 0)
(0.24486 -0.0390639 0)
(0.261908 -0.0392347 0)
(0.278694 -0.0383479 0)
(0.294847 -0.0366262 0)
(0.310083 -0.0342873 0)
(0.324202 -0.0315314 0)
(0.33708 -0.0285334 0)
(0.348655 -0.0254396 0)
(0.35892 -0.0223669 0)
(0.367906 -0.0194046 0)
(0.375677 -0.0166165 0)
(0.382316 -0.0140451 0)
(0.387919 -0.0117146 0)
(0.39259 -0.00963483 0)
(0.396433 -0.00780488 0)
(0.39955 -0.00621577 0)
(0.402039 -0.00485317 0)
(0.403991 -0.00369957 0)
(0.40549 -0.00273596 0)
(0.406613 -0.00194324 0)
(0.407427 -0.00130326 0)
(0.407996 -0.00079971 0)
(0.408375 -0.00041878 0)
(0.408615 -0.00014973 0)
(0.408765 1.45432e-05 0)
(0.408871 7.68942e-05 0)
(0.408979 3.51655e-05 0)
(0.409137 -0.000118853 0)
(0.409399 -0.000400913 0)
(0.409828 -0.000836509 0)
(0.410496 -0.00146417 0)
(0.411495 -0.00234048 0)
(0.412938 -0.00354775 0)
(0.41497 -0.00520587 0)
(0.417773 -0.00749076 0)
(0.421578 -0.0106627 0)
(0.426662 -0.0151088 0)
(0.433342 -0.0214042 0)
(0.441918 -0.0303873 0)
(0.452542 -0.0432252 0)
(0.464923 -0.0613786 0)
(0.477846 -0.0862095 0)
(0.48878 -0.11799 0)
(0.187781 -0.0039193 0)
(0.192256 -0.0135732 0)
(0.200753 -0.0233993 0)
(0.212586 -0.0322644 0)
(0.227072 -0.0395492 0)
(0.243554 -0.0449693 0)
(0.261363 -0.0484796 0)
(0.279863 -0.0501933 0)
(0.298489 -0.050321 0)
(0.316757 -0.0491246 0)
(0.33428 -0.0468836 0)
(0.350767 -0.0438716 0)
(0.366014 -0.0403399 0)
(0.3799 -0.0365082 0)
(0.392367 -0.0325603 0)
(0.403415 -0.0286431 0)
(0.413084 -0.0248683 0)
(0.421446 -0.0213162 0)
(0.428592 -0.0180397 0)
(0.43463 -0.0150693 0)
(0.439669 -0.0124172 0)
(0.443823 -0.0100823 0)
(0.447201 -0.00805313 0)
(0.449908 -0.00631182 0)
(0.452041 -0.00483636 0)
(0.453689 -0.00360289 0)
(0.454935 -0.00258745 0)
(0.455851 -0.00176732 0)
(0.456504 -0.00112208 0)
(0.456955 -0.000634482 0)
(0.457258 -0.000291175 0)
(0.457465 -8.34132e-05 0)
(0.457626 -7.82297e-06 0)
(0.457792 -6.73411e-05 0)
(0.458013 -0.000272478 0)
(0.458347 -0.000643093 0)
(0.45886 -0.00121095 0)
(0.459627 -0.00202348 0)
(0.460741 -0.00314927 0)
(0.462314 -0.00468632 0)
(0.464482 -0.00677403 0)
(0.467413 -0.00961102 0)
(0.471302 -0.0134804 0)
(0.476366 -0.0187842 0)
(0.482815 -0.0260858 0)
(0.490786 -0.0361482 0)
(0.500202 -0.0499357 0)
(0.510537 -0.0684955 0)
(0.520489 -0.0925485 0)
(0.527925 -0.121682 0)
(0.212836 -0.00554618 0)
(0.21797 -0.0179788 0)
(0.227572 -0.0301569 0)
(0.240781 -0.04095 0)
(0.256779 -0.0497234 0)
(0.274819 -0.0561899 0)
(0.294164 -0.0603217 0)
(0.314134 -0.062269 0)
(0.33413 -0.0622939 0)
(0.353652 -0.060718 0)
(0.372304 -0.0578828 0)
(0.389795 -0.0541215 0)
(0.405925 -0.0497396 0)
(0.42058 -0.0450038 0)
(0.433713 -0.0401363 0)
(0.445334 -0.0353146 0)
(0.455494 -0.0306734 0)
(0.464275 -0.0263091 0)
(0.471779 -0.022285 0)
(0.478119 -0.0186373 0)
(0.483415 -0.0153803 0)
(0.487785 -0.0125121 0)
(0.491346 -0.0100186 0)
(0.494207 -0.00787771 0)
(0.49647 -0.0060627 0)
(0.498228 -0.00454455 0)
(0.499566 -0.00329419 0)
(0.500561 -0.00228407 0)
(0.501283 -0.00148952 0)
(0.501793 -0.000889712 0)
(0.502151 -0.000468579 0)
(0.50241 -0.000215661 0)
(0.502623 -0.000127002 0)
(0.50284 -0.000206248 0)
(0.503117 -0.000466088 0)
(0.503512 -0.000930243 0)
(0.504091 -0.00163627 0)
(0.50493 -0.00263955 0)
(0.506117 -0.00401901 0)
(0.507758 -0.00588523 0)
(0.509977 -0.00839193 0)
(0.512916 -0.0117516 0)
(0.516728 -0.0162563 0)
(0.521566 -0.0223024 0)
(0.52754 -0.0304141 0)
(0.534649 -0.0412524 0)
(0.54266 -0.0555735 0)
(0.55093 -0.0740763 0)
(0.558223 -0.0970371 0)
(0.562814 -0.123713 0)
(0.237884 -0.00739393 0)
(0.243631 -0.0229274 0)
(0.254275 -0.0376696 0)
(0.268786 -0.0505113 0)
(0.286203 -0.0608241 0)
(0.305684 -0.0683362 0)
(0.326421 -0.0730525 0)
(0.347685 -0.0751728 0)
(0.368851 -0.0750204 0)
(0.389406 -0.0729841 0)
(0.408952 -0.0694733 0)
(0.427204 -0.0648848 0)
(0.443974 -0.0595806 0)
(0.459163 -0.0538757 0)
(0.472738 -0.0480316 0)
(0.484722 -0.042256 0)
(0.495181 -0.0367061 0)
(0.504209 -0.0314937 0)
(0.511916 -0.0266919 0)
(0.518426 -0.0223415 0)
(0.523863 -0.0184585 0)
(0.528353 -0.0150393 0)
(0.532016 -0.0120665 0)
(0.534964 -0.0095138 0)
(0.537302 -0.00734903 0)
(0.539127 -0.00553781 0)
(0.540524 -0.00404571 0)
(0.541572 -0.00284023 0)
(0.542342 -0.00189229 0)
(0.542899 -0.00117739 0)
(0.543301 -0.000676683 0)
(0.543603 -0.000377902 0)
(0.543858 -0.000276406 0)
(0.54412 -0.000376389 0)
(0.544441 -0.000692441 0)
(0.544882 -0.00125167 0)
(0.545505 -0.00209661 0)
(0.546383 -0.00328925 0)
(0.547599 -0.00491659 0)
(0.549248 -0.00709825 0)
(0.551434 -0.00999656 0)
(0.554272 -0.0138295 0)
(0.557871 -0.0188857 0)
(0.56232 -0.0255401 0)
(0.567642 -0.0342613 0)
(0.573734 -0.0455981 0)
(0.580264 -0.0601158 0)
(0.58656 -0.0782386 0)
(0.591514 -0.0999518 0)
(0.593767 -0.124386 0)
(0.262927 -0.00944565 0)
(0.269246 -0.0283856 0)
(0.280876 -0.0458945 0)
(0.296614 -0.0608962 0)
(0.315359 -0.0727863 0)
(0.336166 -0.0813271 0)
(0.35815 -0.0865733 0)
(0.380536 -0.0887887 0)
(0.402672 -0.0883697 0)
(0.424039 -0.0857813 0)
(0.444245 -0.0815068 0)
(0.463017 -0.0760107 0)
(0.480187 -0.069714 0)
(0.495674 -0.0629805 0)
(0.509466 -0.0561107 0)
(0.521605 -0.0493419 0)
(0.532172 -0.0428524 0)
(0.541274 -0.0367681 0)
(0.549032 -0.0311704 0)
(0.555576 -0.0261039 0)
(0.56104 -0.0215848 0)
(0.565551 -0.0176072 0)
(0.569232 -0.01415 0)
(0.572199 -0.0111815 0)
(0.574556 -0.00866414 0)
(0.576402 -0.0065578 0)
(0.577822 -0.00482254 0)
(0.578896 -0.00342075 0)
(0.579693 -0.00231885 0)
(0.580278 -0.00148862 0)
(0.58071 -0.000908362 0)
(0.581044 -0.00056392 0)
(0.581332 -0.000449828 0)
(0.581625 -0.000570582 0)
(0.581978 -0.000942277 0)
(0.582446 -0.00159475 0)
(0.583089 -0.00257447 0)
(0.583974 -0.0039484 0)
(0.585176 -0.00580911 0)
(0.586773 -0.0082815 0)
(0.588852 -0.0115311 0)
(0.591495 -0.0157737 0)
(0.59477 -0.0212853 0)
(0.598708 -0.0284084 0)
(0.603263 -0.0375477 0)
(0.608261 -0.0491426 0)
(0.613318 -0.063594 0)
(0.617781 -0.0811201 0)
(0.620697 -0.101526 0)
(0.621003 -0.123929 0)
(0.287967 -0.0116877 0)
(0.294826 -0.0343245 0)
(0.30739 -0.0547925 0)
(0.324289 -0.0720544 0)
(0.344273 -0.0855455 0)
(0.366289 -0.0950812 0)
(0.389374 -0.100785 0)
(0.412706 -0.103 0)
(0.43561 -0.10221 0)
(0.457566 -0.0989671 0)
(0.478194 -0.0938344 0)
(0.497243 -0.0873485 0)
(0.51457 -0.079991 0)
(0.530119 -0.0721749 0)
(0.543905 -0.0642386 0)
(0.555991 -0.0564473 0)
(0.566475 -0.0489985 0)
(0.575479 -0.0420304 0)
(0.583135 -0.0356307 0)
(0.589581 -0.0298463 0)
(0.594955 -0.0246922 0)
(0.599389 -0.0201592 0)
(0.603006 -0.0162214 0)
(0.605922 -0.0128415 0)
(0.608243 -0.00997597 0)
(0.610064 -0.00757874 0)
(0.61147 -0.00560415 0)
(0.612539 -0.00400942 0)
(0.61334 -0.00275642 0)
(0.613936 -0.0018132 0)
(0.614383 -0.00115514 0)
(0.614735 -0.000766111 0)
(0.615042 -0.000639661 0)
(0.615355 -0.000780288 0)
(0.615723 -0.0012051 0)
(0.616199 -0.00194589 0)
(0.616838 -0.00305188 0)
(0.617699 -0.00459324 0)
(0.618844 -0.0066656 0)
(0.620338 -0.00939553 0)
(0.622244 -0.0129469 0)
(0.624616 -0.0175274 0)
(0.627483 -0.0233932 0)
(0.630827 -0.0308483 0)
(0.634551 -0.0402322 0)
(0.638433 -0.051884 0)
(0.642076 -0.0660699 0)
(0.644871 -0.0828598 0)
(0.646015 -0.101956 0)
(0.644684 -0.122517 0)
(0.313004 -0.0141101 0)
(0.320381 -0.0407206 0)
(0.333838 -0.0643287 0)
(0.351836 -0.0839381 0)
(0.372973 -0.099038 0)
(0.396081 -0.109516 0)
(0.420117 -0.115585 0)
(0.444212 -0.117687 0)
(0.467676 -0.116408 0)
(0.48999 -0.112396 0)
(0.510797 -0.106305 0)
(0.529875 -0.0987454 0)
(0.547113 -0.0902617 0)
(0.562489 -0.0813151 0)
(0.576045 -0.0722802 0)
(0.587869 -0.0634477 0)
(0.598081 -0.0550317 0)
(0.606817 -0.0471799 0)
(0.61422 -0.0399841 0)
(0.620437 -0.0334915 0)
(0.625609 -0.0277142 0)
(0.629868 -0.0226388 0)
(0.63334 -0.0182334 0)
(0.636138 -0.0144546 0)
(0.638366 -0.0112524 0)
(0.640116 -0.00857456 0)
(0.641472 -0.00636958 0)
(0.642507 -0.00458946 0)
(0.643287 -0.00319156 0)
(0.643874 -0.00214014 0)
(0.644319 -0.00140768 0)
(0.644676 -0.000975997 0)
(0.644989 -0.000837452 0)
(0.645307 -0.000996223 0)
(0.645675 -0.00146989 0)
(0.64614 -0.00229137 0)
(0.646751 -0.00351141 0)
(0.647557 -0.00520166 0)
(0.648609 -0.00745836 0)
(0.649954 -0.0104066 0)
(0.651636 -0.0142046 0)
(0.653679 -0.0190473 0)
(0.656078 -0.0251667 0)
(0.658778 -0.0328262 0)
(0.661646 -0.0423024 0)
(0.664432 -0.0538472 0)
(0.666747 -0.0676204 0)
(0.668042 -0.0835891 0)
(0.667649 -0.101404 0)
(0.66493 -0.120291 0)
(0.338041 -0.0167062 0)
(0.345921 -0.0475569 0)
(0.360242 -0.0744742 0)
(0.379286 -0.096503 0)
(0.401491 -0.1132 0)
(0.425572 -0.124547 0)
(0.450403 -0.130867 0)
(0.47507 -0.132724 0)
(0.498871 -0.130821 0)
(0.521304 -0.125918 0)
(0.542039 -0.118762 0)
(0.560891 -0.110046 0)
(0.57779 -0.100374 0)
(0.592752 -0.0902566 0)
(0.605853 -0.0801007 0)
(0.61721 -0.0702195 0)
(0.626962 -0.0608404 0)
(0.635264 -0.0521173 0)
(0.642269 -0.0441435 0)
(0.648129 -0.0369639 0)
(0.652988 -0.0305863 0)
(0.65698 -0.0249911 0)
(0.660228 -0.02014 0)
(0.662843 -0.0159825 0)
(0.664923 -0.012462 0)
(0.666559 -0.00951963 0)
(0.667827 -0.00709808 0)
(0.668799 -0.00514413 0)
(0.669536 -0.00361064 0)
(0.670093 -0.00245818 0)
(0.670522 -0.00165631 0)
(0.670867 -0.00118472 0)
(0.671174 -0.00103442 0)
(0.671483 -0.00120893 0)
(0.671835 -0.00172574 0)
(0.672271 -0.00261807 0)
(0.672831 -0.00393701 0)
(0.673556 -0.00575402 0)
(0.674483 -0.00816384 0)
(0.675644 -0.0112874 0)
(0.67706 -0.0152742 0)
(0.678732 -0.0203033 0)
(0.680627 -0.0265804 0)
(0.682662 -0.0343285 0)
(0.684676 -0.0437669 0)
(0.686415 -0.0550742 0)
(0.687505 -0.0683286 0)
(0.687464 -0.0834289 0)
(0.685739 -0.100007 0)
(0.681834 -0.117365 0)
(0.363078 -0.0194736 0)
(0.371459 -0.0548229 0)
(0.386625 -0.0852059 0)
(0.40667 -0.109708 0)
(0.429863 -0.127969 0)
(0.454792 -0.140086 0)
(0.48025 -0.146521 0)
(0.505285 -0.14798 0)
(0.52919 -0.145304 0)
(0.551487 -0.139376 0)
(0.571886 -0.131046 0)
(0.590248 -0.12109 0)
(0.606553 -0.110174 0)
(0.620859 -0.0988539 0)
(0.63328 -0.0875657 0)
(0.643965 -0.0766406 0)
(0.653075 -0.0663152 0)
(0.66078 -0.056746 0)
(0.667245 -0.0480245 0)
(0.672626 -0.0401908 0)
(0.677068 -0.0332461 0)
(0.680705 -0.0271637 0)
(0.683654 -0.0218972 0)
(0.686023 -0.0173889 0)
(0.687906 -0.0135747 0)
(0.689384 -0.0103894 0)
(0.690532 -0.0077697 0)
(0.691413 -0.00565721 0)
(0.692083 -0.00400041 0)
(0.692594 -0.00275626 0)
(0.692989 -0.00189144 0)
(0.69331 -0.00138351 0)
(0.693596 -0.00122195 0)
(0.693882 -0.00140928 0)
(0.694204 -0.00196241 0)
(0.694594 -0.00291406 0)
(0.695086 -0.00431455 0)
(0.695707 -0.00623375 0)
(0.696484 -0.00876306 0)
(0.697432 -0.0120171 0)
(0.698554 -0.0161346 0)
(0.69983 -0.0212769 0)
(0.701205 -0.0276229 0)
(0.702572 -0.0353573 0)
(0.703761 -0.0446491 0)
(0.704516 -0.0556168 0)
(0.704492 -0.0682781 0)
(0.703268 -0.0824887 0)
(0.700389 -0.0978822 0)
(0.695471 -0.113838 0)
(0.388118 -0.0224134 0)
(0.397006 -0.0625153 0)
(0.413011 -0.0965075 0)
(0.434021 -0.123515 0)
(0.458121 -0.143279 0)
(0.483768 -0.15604 0)
(0.509673 -0.162425 0)
(0.534853 -0.163312 0)
(0.558609 -0.159698 0)
(0.580499 -0.152602 0)
(0.600284 -0.142988 0)
(0.617884 -0.131712 0)
(0.633332 -0.119505 0)
(0.646737 -0.106961 0)
(0.658256 -0.0945415 0)
(0.668067 -0.0825909 0)
(0.676357 -0.0713497 0)
(0.68331 -0.060973 0)
(0.6891 -0.0515466 0)
(0.693886 -0.0431032 0)
(0.697814 -0.0356353 0)
(0.701012 -0.0291072 0)
(0.703595 -0.023464 0)
(0.705662 -0.0186396 0)
(0.707299 -0.0145627 0)
(0.708583 -0.0111611 0)
(0.709579 -0.00836587 0)
(0.710344 -0.00611356 0)
(0.710927 -0.00434842 0)
(0.711373 -0.00302394 0)
(0.71172 -0.00210403 0)
(0.712004 -0.00156409 0)
(0.712257 -0.00139196 0)
(0.712509 -0.00158891 0)
(0.712787 -0.00217075 0)
(0.713118 -0.00316902 0)
(0.713524 -0.00463232 0)
(0.714025 -0.0066277 0)
(0.714632 -0.0092418 0)
(0.715349 -0.0125815 0)
(0.71616 -0.0167731 0)
(0.717028 -0.0219598 0)
(0.717881 -0.0282944 0)
(0.718598 -0.0359266 0)
(0.719003 -0.0449824 0)
(0.718849 -0.0555322 0)
(0.717822 -0.0675503 0)
(0.715559 -0.0808675 0)
(0.711685 -0.0951319 0)
(0.705901 -0.109794 0)
(0.413161 -0.025531 0)
(0.422575 -0.0706385 0)
(0.439426 -0.108369 0)
(0.461373 -0.13789 0)
(0.486297 -0.159064 0)
(0.51252 -0.172308 0)
(0.538675 -0.178449 0)
(0.563756 -0.178565 0)
(0.58709 -0.173833 0)
(0.608282 -0.165422 0)
(0.62716 -0.154411 0)
(0.643712 -0.141743 0)
(0.658035 -0.128207 0)
(0.670293 -0.114431 0)
(0.680688 -0.100896 0)
(0.689429 -0.0879535 0)
(0.696728 -0.0758418 0)
(0.702782 -0.0647098 0)
(0.707771 -0.0546342 0)
(0.711856 -0.0456369 0)
(0.71518 -0.0376998 0)
(0.717866 -0.0307767 0)
(0.72002 -0.024803 0)
(0.721734 -0.019704 0)
(0.723085 -0.0154006 0)
(0.72414 -0.0118142 0)
(0.724957 -0.0088699 0)
(0.725583 -0.00649957 0)
(0.726061 -0.00464347 0)
(0.726427 -0.00325182 0)
(0.726714 -0.00228591 0)
(0.726949 -0.00171903 0)
(0.727158 -0.00153731 0)
(0.727365 -0.00174054 0)
(0.727589 -0.00234304 0)
(0.727849 -0.00337456 0)
(0.728158 -0.00488122 0)
(0.728525 -0.00692628 0)
(0.728951 -0.00959054 0)
(0.729425 -0.0129721 0)
(0.729919 -0.0171844 0)
(0.730379 -0.0223524 0)
(0.730722 -0.0286044 0)
(0.730819 -0.0360592 0)
(0.730493 -0.0448065 0)
(0.729511 -0.0548799 0)
(0.727591 -0.0662228 0)
(0.72442 -0.0786547 0)
(0.719691 -0.0918446 0)
(0.71317 -0.105308 0)
(0.438209 -0.0288366 0)
(0.448181 -0.0792051 0)
(0.4659 -0.120788 0)
(0.48876 -0.152797 0)
(0.514423 -0.17525 0)
(0.541065 -0.188777 0)
(0.567248 -0.194448 0)
(0.59196 -0.19357 0)
(0.614569 -0.187525 0)
(0.63475 -0.177645 0)
(0.65241 -0.16513 0)
(0.667618 -0.151008 0)
(0.680543 -0.136118 0)
(0.691409 -0.121118 0)
(0.700462 -0.106501 0)
(0.707946 -0.0926158 0)
(0.714091 -0.0796946 0)
(0.719108 -0.0678741 0)
(0.723181 -0.0572177 0)
(0.72647 -0.0477337 0)
(0.72911 -0.0393912 0)
(0.731219 -0.0321321 0)
(0.732891 -0.0258814 0)
(0.734208 -0.0205552 0)
(0.735238 -0.0160668 0)
(0.736037 -0.012331 0)
(0.736651 -0.00926747 0)
(0.73712 -0.0068036 0)
(0.737478 -0.00487599 0)
(0.737752 -0.00343187 0)
(0.737967 -0.00243013 0)
(0.738145 -0.00184205 0)
(0.738302 -0.00165205 0)
(0.738456 -0.00185826 0)
(0.738618 -0.00247322 0)
(0.738798 -0.00352444 0)
(0.739002 -0.0050549 0)
(0.739228 -0.00712339 0)
(0.739466 -0.00980421 0)
(0.739694 -0.0131861 0)
(0.739871 -0.0173695 0)
(0.739935 -0.022462 0)
(0.73979 -0.0285694 0)
(0.739306 -0.0357839 0)
(0.738309 -0.0441655 0)
(0.736583 -0.0537194 0)
(0.733876 -0.0643692 0)
(0.729919 -0.0759315 0)
(0.724461 -0.0880997 0)
(0.717319 -0.100448 0)
(0.463265 -0.0323452 0)
(0.473841 -0.0882363 0)
(0.492462 -0.133766 0)
(0.516219 -0.168204 0)
(0.542524 -0.191757 0)
(0.569405 -0.205324 0)
(0.595365 -0.210259 0)
(0.619406 -0.20814 0)
(0.640958 -0.200575 0)
(0.659788 -0.189071 0)
(0.675901 -0.174952 0)
(0.689459 -0.159326 0)
(0.70071 -0.143076 0)
(0.70994 -0.126879 0)
(0.717441 -0.111231 0)
(0.723488 -0.0964715 0)
(0.728332 -0.0828182 0)
(0.732188 -0.0703907 0)
(0.735243 -0.0592348 0)
(0.737652 -0.0493425 0)
(0.739542 -0.0406677 0)
(0.741018 -0.0331394 0)
(0.742165 -0.0266715 0)
(0.743051 -0.021171 0)
(0.743732 -0.0165434 0)
(0.744251 -0.0126971 0)
(0.744645 -0.00954703 0)
(0.744944 -0.00701631 0)
(0.745169 -0.00503834 0)
(0.745342 -0.00355773 0)
(0.745478 -0.00253122 0)
(0.745591 -0.00192828 0)
(0.74569 -0.00173164 0)
(0.745784 -0.00193774 0)
(0.745879 -0.00255708 0)
(0.745975 -0.00361461 0)
(0.746069 -0.00514977 0)
(0.746151 -0.00721638 0)
(0.746201 -0.00988186 0)
(0.746186 -0.0132254 0)
(0.746057 -0.017335 0)
(0.745742 -0.0223017 0)
(0.74514 -0.0282116 0)
(0.744121 -0.035134 0)
(0.742519 -0.0431052 0)
(0.740132 -0.0521097 0)
(0.736739 -0.0620585 0)
(0.732109 -0.0727718 0)
(0.726037 -0.0839686 0)
(0.718377 -0.0952744 0)
(0.48833 -0.0360784 0)
(0.499573 -0.0977632 0)
(0.519147 -0.147313 0)
(0.543786 -0.184073 0)
(0.570621 -0.208495 0)
(0.597533 -0.221804 0)
(0.62298 -0.225698 0)
(0.646005 -0.222064 0)
(0.666134 -0.212763 0)
(0.683247 -0.199483 0)
(0.697467 -0.183674 0)
(0.70906 -0.166512 0)
(0.718359 -0.148917 0)
(0.725715 -0.131574 0)
(0.731465 -0.114968 0)
(0.735911 -0.0994221 0)
(0.739318 -0.0851317 0)
(0.741906 -0.0721936 0)
(0.743857 -0.0606323 0)
(0.745318 -0.0504203 0)
(0.746403 -0.041495 0)
(0.747205 -0.0337713 0)
(0.747794 -0.0271519 0)
(0.748223 -0.0215344 0)
(0.748535 -0.0168168 0)
(0.74876 -0.012902 0)
(0.748922 -0.00970017 0)
(0.74904 -0.00713099 0)
(0.749126 -0.00512509 0)
(0.749191 -0.00362491 0)
(0.749243 -0.00258538 0)
(0.749286 -0.00197439 0)
(0.749324 -0.00177312 0)
(0.749356 -0.00197629 0)
(0.74938 -0.00259229 0)
(0.74939 -0.00364326 0)
(0.749374 -0.00516486 0)
(0.749313 -0.00720573 0)
(0.749179 -0.00982623 0)
(0.748932 -0.0130963 0)
(0.748512 -0.0170919 0)
(0.747843 -0.0218892 0)
(0.746822 -0.0275571 0)
(0.74532 -0.0341456 0)
(0.743178 -0.0416727 0)
(0.740214 -0.0501077 0)
(0.736232 -0.0593556 0)
(0.731034 -0.0692436 0)
(0.724452 -0.0795165 0)
(0.716372 -0.0898453 0)
(0.51341 -0.0400648 0)
(0.525403 -0.107828 0)
(0.545995 -0.161442 0)
(0.571497 -0.200361 0)
(0.598726 -0.225353 0)
(0.625418 -0.238048 0)
(0.650014 -0.240553 0)
(0.671635 -0.235109 0)
(0.689933 -0.223849 0)
(0.704934 -0.208652 0)
(0.716899 -0.191084 0)
(0.726206 -0.172382 0)
(0.73328 -0.153484 0)
(0.738536 -0.135069 0)
(0.742349 -0.117603 0)
(0.745048 -0.101379 0)
(0.746903 -0.0865646 0)
(0.748134 -0.0732275 0)
(0.748913 -0.0613669 0)
(0.749374 -0.0509338 0)
(0.749617 -0.0418475 0)
(0.749717 -0.0340084 0)
(0.749726 -0.0273077 0)
(0.749683 -0.021634 0)
(0.749615 -0.0168786 0)
(0.749537 -0.0129391 0)
(0.749461 -0.00972189 0)
(0.749394 -0.00714377 0)
(0.749338 -0.00513321 0)
(0.749293 -0.00363096 0)
(0.749259 -0.0025906 0)
(0.749231 -0.00197873 0)
(0.749206 -0.00177515 0)
(0.749175 -0.00197295 0)
(0.749129 -0.00257839 0)
(0.749054 -0.00361073 0)
(0.748931 -0.00510174 0)
(0.748733 -0.0070948 0)
(0.748425 -0.00964335 0)
(0.747959 -0.0128084 0)
(0.74727 -0.0166549 0)
(0.746278 -0.0212457 0)
(0.744879 -0.0266347 0)
(0.742947 -0.0328565 0)
(0.740335 -0.0399148 0)
(0.736875 -0.0477688 0)
(0.732396 -0.0563215 0)
(0.726728 -0.0654099 0)
(0.719732 -0.0748037 0)
(0.711321 -0.0842139 0)
(0.538508 -0.0443425 0)
(0.55136 -0.118484 0)
(0.57305 -0.17617 0)
(0.599387 -0.217015 0)
(0.626839 -0.2422 0)
(0.653006 -0.253858 0)
(0.676353 -0.254581 0)
(0.696124 -0.247011 0)
(0.712142 -0.233572 0)
(0.72461 -0.216335 0)
(0.733942 -0.196966 0)
(0.740643 -0.176749 0)
(0.745229 -0.156622 0)
(0.748172 -0.137241 0)
(0.749887 -0.119037 0)
(0.750714 -0.102267 0)
(0.750925 -0.0870598 0)
(0.750732 -0.0734497 0)
(0.750293 -0.0614074 0)
(0.749722 -0.0508604 0)
(0.749102 -0.0417091 0)
(0.748485 -0.0338394 0)
(0.747907 -0.0271311 0)
(0.747388 -0.0214646 0)
(0.746937 -0.0167252 0)
(0.746556 -0.0128062 0)
(0.746243 -0.00961078 0)
(0.745992 -0.00705378 0)
(0.745794 -0.00506215 0)
(0.745641 -0.00357559 0)
(0.745522 -0.00254676 0)
(0.745425 -0.00194135 0)
(0.745338 -0.00173806 0)
(0.745247 -0.00192846 0)
(0.745134 -0.00251677 0)
(0.744978 -0.0035194 0)
(0.744754 -0.00496423 0)
(0.744429 -0.00688952 0)
(0.743959 -0.00934206 0)
(0.743293 -0.0123745 0)
(0.742361 -0.0160417 0)
(0.741081 -0.020395 0)
(0.739348 -0.0254756 0)
(0.737044 -0.0313056 0)
(0.734028 -0.037878 0)
(0.730153 -0.0451461 0)
(0.725263 -0.0530138 0)
(0.719217 -0.0613295 0)
(0.711899 -0.0698865 0)
(0.70324 -0.078431 0)
(0.563631 -0.0489614 0)
(0.577482 -0.129799 0)
(0.600364 -0.191514 0)
(0.627489 -0.233962 0)
(0.654937 -0.258869 0)
(0.680205 -0.268993 0)
(0.701832 -0.267499 0)
(0.719246 -0.257474 0)
(0.73249 -0.241649 0)
(0.741976 -0.222274 0)
(0.748291 -0.201102 0)
(0.752073 -0.179434 0)
(0.753922 -0.158188 0)
(0.754368 -0.13798 0)
(0.753847 -0.11919 0)
(0.752706 -0.102027 0)
(0.75121 -0.0865758 0)
(0.749553 -0.0728321 0)
(0.747872 -0.0607358 0)
(0.746259 -0.0501893 0)
(0.744772 -0.0410742 0)
(0.743442 -0.0332619 0)
(0.742282 -0.0266221 0)
(0.741294 -0.0210276 0)
(0.740468 -0.0163588 0)
(0.739792 -0.0125055 0)
(0.739249 -0.00936915 0)
(0.73882 -0.0068632 0)
(0.738486 -0.00491393 0)
(0.738229 -0.00346064 0)
(0.738029 -0.00245561 0)
(0.737867 -0.00186402 0)
(0.737723 -0.00166377 0)
(0.737575 -0.00184516 0)
(0.737401 -0.00241051 0)
(0.737171 -0.00337347 0)
(0.736856 -0.0047582 0)
(0.736415 -0.00659804 0)
(0.735801 -0.00893354 0)
(0.734957 -0.0118097 0)
(0.733811 -0.0152724 0)
(0.732279 -0.0193629 0)
(0.730261 -0.0241119 0)
(0.727641 -0.0295318 0)
(0.724291 -0.0356081 0)
(0.720075 -0.0422907 0)
(0.714859 -0.049487 0)
(0.708521 -0.0570576 0)
(0.700966 -0.0648177 0)
(0.692141 -0.0725451 0)
(0.58879 -0.0539868 0)
(0.603816 -0.141855 0)
(0.627997 -0.207489 0)
(0.655828 -0.251103 0)
(0.682973 -0.27515 0)
(0.706873 -0.283164 0)
(0.726221 -0.278977 0)
(0.740701 -0.266167 0)
(0.750632 -0.247774 0)
(0.756667 -0.226207 0)
(0.759584 -0.203274 0)
(0.760148 -0.180266 0)
(0.759043 -0.158055 0)
(0.756836 -0.137193 0)
(0.753977 -0.117998 0)
(0.750807 -0.100619 0)
(0.747572 -0.0850888 0)
(0.74444 -0.0713633 0)
(0.741521 -0.0593489 0)
(0.738878 -0.0489229 0)
(0.736542 -0.0399484 0)
(0.734518 -0.0322835 0)
(0.732796 -0.0257887 0)
(0.731358 -0.0203309 0)
(0.730175 -0.0157867 0)
(0.729219 -0.0120439 0)
(0.728458 -0.00900303 0)
(0.727863 -0.00657726 0)
(0.727404 -0.00469308 0)
(0.727051 -0.00329005 0)
(0.726778 -0.00232067 0)
(0.726558 -0.00175008 0)
(0.726363 -0.00155572 0)
(0.726165 -0.0017269 0)
(0.725936 -0.00226421 0)
(0.725643 -0.00317878 0)
(0.725247 -0.00449126 0)
(0.724705 -0.00623038 0)
(0.723967 -0.00843093 0)
(0.72297 -0.0111311 0)
(0.721642 -0.0143686 0)
(0.719899 -0.0181764 0)
(0.717643 -0.0225767 0)
(0.714765 -0.0275743 0)
(0.711147 -0.0331496 0)
(0.706665 -0.0392517 0)
(0.701203 -0.045793 0)
(0.694656 -0.0526464 0)
(0.686944 -0.0596478 0)
(0.678029 -0.0666028 0)