/*--------------------------------*- C++ -*----------------------------------*\
| =========                 |                                                 |
| \\      /  F ield         | OpenFOAM: The Open Source CFD Toolbox           |
|  \\    /   O peration     | Version:  v1812                                 |
|   \\  /    A nd           | Web:      www.OpenFOAM.com                      |
|    \\/     M anipulation  |                                                 |
\*---------------------------------------------------------------------------*/
FoamFile
{
    version     2.0;
    format      ascii;
    class       volScalarField;
    location    "0";
    object      Tdirect;
}
// * * * * * * * * * * * * * * * * * * * * * * * * * * * * * * * * * * * * * //

dimensions      [0 0 0 1 0 0 0];


internalField   nonuniform List<scalar> 
366300
(
300.512
300.517
300.528
300.544
300.565
300.592
300.623
300.658
300.698
300.741
300.787
300.836
300.887
300.939
300.993
301.047
301.101
301.155
301.209
301.263
301.317
301.371
301.426
301.482
301.54
301.599
301.66
301.724
301.789
301.855
301.923
301.99
302.058
302.125
302.19
302.253
302.315
302.374
302.432
302.489
302.545
302.602
302.659
302.719
302.78
302.844
302.909
302.976
303.045
303.113
303.18
303.245
303.307
303.365
303.42
303.471
303.52
303.566
303.611
303.657
303.705
303.757
303.812
303.874
303.94
304.013
304.09
304.171
304.255
304.339
304.423
304.506
304.584
304.659
304.73
304.796
304.858
304.917
304.973
305.028
305.081
305.132
305.181
305.227
305.267
305.299
305.321
305.329
305.32
305.292
305.242
305.169
305.074
304.955
304.816
304.659
304.487
304.304
304.115
303.924
303.735
303.554
303.383
303.226
303.086
302.966
302.868
302.793
302.742
302.717
300.507
300.512
300.523
300.539
300.56
300.586
300.616
300.651
300.69
300.732
300.778
300.826
300.876
300.928
300.981
301.034
301.088
301.141
301.194
301.248
301.301
301.354
301.409
301.464
301.521
301.58
301.641
301.703
301.767
301.833
301.899
301.966
302.033
302.099
302.163
302.226
302.286
302.345
302.402
302.459
302.514
302.57
302.627
302.686
302.747
302.81
302.874
302.941
303.008
303.075
303.141
303.205
303.266
303.324
303.378
303.429
303.477
303.523
303.568
303.613
303.661
303.712
303.767
303.828
303.894
303.965
304.041
304.121
304.204
304.287
304.37
304.451
304.529
304.603
304.672
304.738
304.799
304.857
304.913
304.967
305.019
305.069
305.117
305.162
305.201
305.233
305.254
305.261
305.252
305.224
305.175
305.103
305.008
304.892
304.755
304.6
304.431
304.251
304.065
303.877
303.692
303.513
303.345
303.191
303.053
302.935
302.838
302.764
302.714
302.689
300.501
300.507
300.517
300.533
300.553
300.579
300.609
300.643
300.682
300.724
300.768
300.816
300.865
300.916
300.968
301.021
301.074
301.126
301.179
301.232
301.284
301.337
301.391
301.446
301.502
301.56
301.62
301.681
301.745
301.809
301.875
301.941
302.007
302.072
302.135
302.197
302.257
302.315
302.371
302.427
302.482
302.537
302.594
302.652
302.712
302.773
302.837
302.903
302.969
303.035
303.1
303.163
303.224
303.281
303.334
303.385
303.432
303.477
303.522
303.567
303.614
303.665
303.719
303.779
303.844
303.915
303.989
304.068
304.149
304.231
304.313
304.393
304.469
304.542
304.611
304.676
304.736
304.794
304.849
304.902
304.953
305.003
305.05
305.094
305.132
305.163
305.183
305.19
305.181
305.153
305.104
305.033
304.94
304.825
304.69
304.538
304.371
304.195
304.012
303.827
303.645
303.469
303.304
303.152
303.017
302.901
302.806
302.733
302.684
302.659
300.495
300.501
300.511
300.526
300.547
300.572
300.601
300.635
300.673
300.714
300.758
300.805
300.854
300.904
300.955
301.007
301.059
301.111
301.163
301.215
301.267
301.319
301.372
301.426
301.481
301.539
301.597
301.658
301.721
301.784
301.849
301.914
301.979
302.043
302.105
302.166
302.225
302.282
302.338
302.393
302.448
302.502
302.558
302.615
302.674
302.735
302.798
302.863
302.928
302.993
303.057
303.119
303.179
303.235
303.288
303.337
303.384
303.429
303.473
303.518
303.565
303.615
303.669
303.728
303.792
303.861
303.935
304.012
304.092
304.173
304.253
304.331
304.407
304.479
304.546
304.61
304.67
304.727
304.781
304.833
304.884
304.932
304.979
305.022
305.059
305.089
305.109
305.115
305.105
305.078
305.029
304.959
304.868
304.755
304.622
304.473
304.309
304.136
303.956
303.775
303.596
303.423
303.261
303.112
302.979
302.865
302.771
302.7
302.652
302.627
300.489
300.494
300.504
300.52
300.54
300.564
300.593
300.627
300.664
300.704
300.748
300.794
300.842
300.891
300.941
300.992
301.043
301.095
301.146
301.197
301.248
301.3
301.352
301.405
301.46
301.516
301.574
301.634
301.695
301.758
301.822
301.886
301.95
302.012
302.074
302.134
302.192
302.249
302.304
302.358
302.411
302.465
302.52
302.577
302.635
302.695
302.757
302.82
302.884
302.948
303.011
303.073
303.131
303.187
303.239
303.288
303.334
303.378
303.422
303.466
303.513
303.562
303.615
303.673
303.737
303.805
303.877
303.953
304.032
304.111
304.19
304.267
304.341
304.412
304.479
304.541
304.6
304.656
304.71
304.761
304.811
304.859
304.904
304.946
304.983
305.012
305.031
305.036
305.027
304.999
304.951
304.883
304.792
304.681
304.551
304.404
304.244
304.074
303.897
303.719
303.544
303.375
303.215
303.069
302.939
302.826
302.734
302.664
302.617
302.593
300.482
300.487
300.497
300.512
300.532
300.556
300.585
300.618
300.654
300.694
300.737
300.782
300.829
300.877
300.927
300.977
301.027
301.077
301.128
301.178
301.228
301.279
301.331
301.383
301.437
301.493
301.55
301.609
301.669
301.731
301.793
301.856
301.919
301.981
302.041
302.1
302.157
302.213
302.267
302.321
302.374
302.427
302.481
302.537
302.594
302.653
302.714
302.776
302.839
302.902
302.964
303.024
303.082
303.136
303.188
303.236
303.281
303.325
303.369
303.412
303.458
303.506
303.559
303.616
303.679
303.746
303.817
303.892
303.969
304.046
304.124
304.2
304.273
304.342
304.408
304.469
304.527
304.582
304.635
304.686
304.734
304.781
304.826
304.867
304.903
304.931
304.949
304.955
304.945
304.917
304.87
304.802
304.714
304.605
304.477
304.333
304.176
304.009
303.836
303.661
303.489
303.323
303.167
303.024
302.896
302.786
302.695
302.627
302.58
302.557
300.475
300.48
300.49
300.505
300.524
300.548
300.576
300.608
300.644
300.683
300.725
300.769
300.815
300.863
300.911
300.961
301.01
301.06
301.109
301.159
301.208
301.258
301.309
301.36
301.413
301.468
301.524
301.582
301.641
301.702
301.763
301.825
301.887
301.947
302.007
302.065
302.121
302.176
302.229
302.282
302.334
302.386
302.44
302.494
302.551
302.609
302.669
302.73
302.792
302.853
302.914
302.973
303.03
303.084
303.134
303.182
303.227
303.27
303.312
303.356
303.401
303.449
303.5
303.557
303.618
303.684
303.754
303.827
303.903
303.979
304.055
304.129
304.201
304.269
304.334
304.394
304.451
304.505
304.557
304.607
304.655
304.701
304.745
304.785
304.819
304.847
304.864
304.869
304.859
304.832
304.786
304.719
304.632
304.525
304.4
304.259
304.104
303.941
303.772
303.601
303.432
303.27
303.116
302.976
302.85
302.743
302.654
302.587
302.541
302.518
300.468
300.473
300.482
300.497
300.516
300.539
300.566
300.598
300.633
300.671
300.712
300.756
300.801
300.848
300.896
300.944
300.992
301.041
301.09
301.138
301.187
301.236
301.286
301.337
301.389
301.442
301.497
301.554
301.613
301.672
301.732
301.793
301.853
301.913
301.971
302.028
302.084
302.137
302.19
302.242
302.293
302.344
302.397
302.451
302.506
302.563
302.622
302.682
302.742
302.803
302.863
302.92
302.976
303.029
303.078
303.125
303.169
303.212
303.254
303.297
303.341
303.388
303.439
303.495
303.555
303.619
303.688
303.76
303.834
303.909
303.983
304.056
304.126
304.193
304.256
304.316
304.372
304.425
304.476
304.525
304.572
304.617
304.66
304.699
304.733
304.759
304.776
304.781
304.77
304.743
304.698
304.632
304.547
304.442
304.32
304.181
304.03
303.87
303.705
303.538
303.372
303.213
303.063
302.926
302.803
302.698
302.611
302.545
302.5
302.478
300.46
300.465
300.474
300.488
300.507
300.53
300.557
300.587
300.622
300.659
300.7
300.742
300.786
300.832
300.879
300.926
300.974
301.022
301.069
301.117
301.165
301.213
301.262
301.312
301.363
301.416
301.47
301.525
301.583
301.641
301.7
301.759
301.819
301.877
301.934
301.99
302.045
302.097
302.149
302.2
302.25
302.301
302.352
302.405
302.459
302.515
302.573
302.632
302.691
302.75
302.809
302.866
302.92
302.972
303.02
303.066
303.11
303.152
303.193
303.235
303.279
303.325
303.375
303.43
303.489
303.552
303.619
303.69
303.762
303.836
303.908
303.98
304.049
304.114
304.176
304.235
304.29
304.342
304.392
304.44
304.486
304.53
304.572
304.61
304.643
304.668
304.685
304.689
304.679
304.652
304.607
304.543
304.459
304.356
304.236
304.101
303.954
303.797
303.635
303.472
303.31
303.155
303.008
302.874
302.753
302.65
302.566
302.501
302.457
302.435
300.452
300.456
300.466
300.479
300.497
300.52
300.546
300.576
300.61
300.647
300.686
300.728
300.771
300.816
300.862
300.908
300.955
301.001
301.048
301.095
301.142
301.189
301.237
301.286
301.336
301.388
301.441
301.495
301.551
301.609
301.666
301.725
301.783
301.84
301.896
301.951
302.004
302.056
302.106
302.156
302.206
302.255
302.306
302.358
302.411
302.466
302.522
302.58
302.638
302.696
302.753
302.809
302.862
302.913
302.96
303.006
303.048
303.09
303.13
303.172
303.215
303.26
303.309
303.363
303.42
303.482
303.548
303.617
303.688
303.76
303.831
303.901
303.968
304.033
304.093
304.151
304.205
304.256
304.305
304.351
304.397
304.44
304.48
304.518
304.55
304.574
304.59
304.594
304.584
304.557
304.513
304.45
304.368
304.268
304.151
304.018
303.874
303.721
303.563
303.404
303.246
303.094
302.951
302.819
302.702
302.601
302.518
302.455
302.412
302.391
300.443
300.448
300.457
300.47
300.488
300.51
300.535
300.565
300.598
300.634
300.672
300.713
300.755
300.799
300.844
300.889
300.935
300.981
301.026
301.072
301.118
301.165
301.212
301.259
301.309
301.359
301.411
301.464
301.519
301.575
301.632
301.689
301.745
301.801
301.856
301.91
301.962
302.013
302.062
302.111
302.16
302.208
302.258
302.309
302.361
302.415
302.47
302.526
302.583
302.64
302.696
302.75
302.802
302.852
302.898
302.943
302.985
303.025
303.065
303.106
303.148
303.193
303.241
303.293
303.35
303.41
303.475
303.542
303.611
303.681
303.751
303.819
303.885
303.948
304.007
304.064
304.116
304.167
304.214
304.26
304.304
304.347
304.386
304.422
304.453
304.477
304.492
304.496
304.486
304.46
304.416
304.355
304.275
304.177
304.062
303.933
303.792
303.643
303.489
303.333
303.179
303.031
302.891
302.762
302.648
302.549
302.469
302.407
302.365
302.344
300.434
300.438
300.447
300.46
300.478
300.499
300.524
300.553
300.585
300.62
300.658
300.698
300.739
300.782
300.826
300.87
300.914
300.959
301.004
301.049
301.094
301.139
301.185
301.232
301.28
301.329
301.38
301.432
301.486
301.541
301.596
301.652
301.707
301.762
301.815
301.868
301.919
301.968
302.017
302.065
302.112
302.16
302.208
302.258
302.309
302.362
302.416
302.471
302.526
302.581
302.636
302.689
302.74
302.789
302.834
302.878
302.919
302.959
302.998
303.038
303.079
303.123
303.17
303.221
303.276
303.336
303.399
303.464
303.532
303.6
303.668
303.735
303.799
303.861
303.919
303.974
304.025
304.075
304.121
304.166
304.209
304.25
304.289
304.324
304.354
304.378
304.392
304.395
304.385
304.359
304.317
304.256
304.178
304.082
303.971
303.845
303.708
303.562
303.412
303.26
303.11
302.965
302.829
302.704
302.592
302.496
302.417
302.357
302.316
302.296
300.425
300.429
300.438
300.45
300.467
300.488
300.513
300.541
300.572
300.606
300.643
300.682
300.722
300.764
300.807
300.85
300.893
300.937
300.981
301.025
301.068
301.113
301.158
301.204
301.251
301.299
301.348
301.399
301.452
301.505
301.559
301.613
301.667
301.721
301.773
301.824
301.874
301.923
301.97
302.017
302.063
302.11
302.157
302.206
302.256
302.307
302.36
302.413
302.468
302.522
302.575
302.627
302.676
302.724
302.769
302.811
302.851
302.89
302.929
302.968
303.008
303.051
303.097
303.147
303.201
303.259
303.32
303.384
303.45
303.517
303.583
303.648
303.711
303.771
303.828
303.881
303.932
303.98
304.025
304.069
304.111
304.151
304.189
304.223
304.252
304.275
304.288
304.291
304.281
304.256
304.214
304.155
304.079
303.986
303.877
303.754
303.621
303.479
303.333
303.185
303.039
302.898
302.765
302.643
302.534
302.441
302.364
302.305
302.266
302.246
300.415
300.419
300.427
300.44
300.456
300.477
300.501
300.528
300.559
300.592
300.628
300.665
300.705
300.745
300.787
300.829
300.872
300.914
300.957
301
301.043
301.086
301.13
301.174
301.22
301.267
301.316
301.365
301.416
301.468
301.521
301.574
301.627
301.679
301.73
301.78
301.828
301.876
301.922
301.968
302.013
302.059
302.105
302.152
302.201
302.251
302.302
302.355
302.407
302.46
302.512
302.562
302.611
302.657
302.701
302.742
302.782
302.82
302.857
302.895
302.935
302.977
303.022
303.071
303.123
303.18
303.24
303.302
303.366
303.431
303.496
303.559
303.62
303.679
303.734
303.786
303.835
303.882
303.927
303.969
304.01
304.049
304.086
304.119
304.147
304.169
304.182
304.185
304.174
304.15
304.109
304.052
303.977
303.886
303.781
303.661
303.531
303.394
303.251
303.107
302.965
302.828
302.699
302.58
302.475
302.383
302.309
302.252
302.213
302.194
300.405
300.409
300.417
300.429
300.445
300.465
300.488
300.515
300.545
300.577
300.612
300.648
300.687
300.726
300.767
300.808
300.849
300.891
300.932
300.974
301.016
301.058
301.101
301.144
301.189
301.235
301.282
301.33
301.38
301.431
301.482
301.533
301.585
301.635
301.685
301.734
301.781
301.827
301.873
301.917
301.961
302.006
302.051
302.097
302.144
302.193
302.243
302.294
302.345
302.397
302.447
302.496
302.544
302.589
302.631
302.671
302.71
302.747
302.784
302.821
302.86
302.901
302.945
302.992
303.044
303.098
303.157
303.217
303.28
303.343
303.406
303.467
303.527
303.584
303.638
303.688
303.737
303.782
303.826
303.867
303.907
303.945
303.98
304.012
304.04
304.061
304.073
304.075
304.065
304.041
304.001
303.945
303.873
303.785
303.682
303.566
303.44
303.306
303.167
303.028
302.89
302.757
302.631
302.516
302.413
302.324
302.252
302.196
302.159
302.14
300.394
300.398
300.406
300.418
300.434
300.453
300.476
300.501
300.53
300.562
300.595
300.631
300.668
300.707
300.746
300.786
300.826
300.867
300.907
300.948
300.988
301.029
301.071
301.114
301.157
301.202
301.247
301.295
301.343
301.392
301.442
301.492
301.542
301.591
301.64
301.687
301.733
301.778
301.822
301.865
301.908
301.952
301.996
302.04
302.087
302.134
302.183
302.232
302.282
302.332
302.381
302.429
302.475
302.518
302.56
302.599
302.637
302.673
302.709
302.745
302.783
302.823
302.866
302.912
302.962
303.015
303.072
303.13
303.191
303.252
303.313
303.373
303.431
303.486
303.539
303.588
303.635
303.679
303.722
303.762
303.801
303.838
303.872
303.903
303.93
303.95
303.962
303.964
303.954
303.93
303.891
303.837
303.766
303.681
303.581
303.468
303.346
303.216
303.082
302.946
302.812
302.683
302.561
302.449
302.349
302.264
302.193
302.139
302.103
302.084
300.384
300.388
300.395
300.407
300.422
300.44
300.462
300.488
300.515
300.546
300.579
300.613
300.65
300.687
300.725
300.764
300.803
300.842
300.881
300.921
300.96
301
301.041
301.082
301.124
301.168
301.212
301.258
301.305
301.353
301.401
301.449
301.498
301.546
301.593
301.639
301.684
301.727
301.77
301.812
301.854
301.896
301.939
301.982
302.027
302.073
302.12
302.169
302.217
302.265
302.313
302.359
302.404
302.446
302.487
302.525
302.561
302.597
302.632
302.667
302.704
302.743
302.784
302.829
302.878
302.929
302.984
303.042
303.1
303.16
303.219
303.277
303.333
303.387
303.438
303.486
303.531
303.574
303.615
303.655
303.692
303.728
303.761
303.791
303.817
303.836
303.848
303.849
303.839
303.816
303.779
303.726
303.657
303.574
303.477
303.368
303.25
303.124
302.994
302.862
302.733
302.607
302.489
302.381
302.284
302.201
302.133
302.08
302.045
302.027
300.373
300.376
300.384
300.395
300.41
300.428
300.449
300.473
300.5
300.53
300.562
300.595
300.63
300.667
300.704
300.741
300.779
300.817
300.855
300.893
300.932
300.97
301.01
301.05
301.091
301.133
301.176
301.22
301.266
301.312
301.359
301.406
301.453
301.499
301.545
301.59
301.633
301.675
301.717
301.758
301.798
301.839
301.881
301.923
301.967
302.011
302.057
302.104
302.15
302.197
302.243
302.288
302.332
302.373
302.412
302.449
302.485
302.519
302.553
302.587
302.623
302.661
302.701
302.745
302.792
302.842
302.895
302.951
303.007
303.065
303.122
303.179
303.233
303.285
303.334
303.381
303.425
303.467
303.507
303.545
303.581
303.616
303.648
303.677
303.702
303.72
303.731
303.733
303.723
303.7
303.664
303.612
303.546
303.466
303.372
303.266
303.152
303.03
302.904
302.777
302.651
302.53
302.416
302.311
302.217
302.137
302.071
302.02
301.986
301.969
300.361
300.365
300.372
300.383
300.397
300.415
300.435
300.459
300.485
300.513
300.544
300.577
300.611
300.646
300.681
300.718
300.754
300.791
300.828
300.865
300.902
300.94
300.978
301.017
301.056
301.097
301.139
301.182
301.226
301.271
301.316
301.362
301.407
301.452
301.496
301.539
301.581
301.622
301.663
301.702
301.742
301.781
301.821
301.863
301.905
301.948
301.992
302.037
302.083
302.128
302.173
302.216
302.258
302.298
302.336
302.372
302.406
302.439
302.472
302.506
302.54
302.577
302.616
302.658
302.704
302.753
302.804
302.858
302.913
302.968
303.024
303.078
303.131
303.181
303.229
303.274
303.317
303.357
303.396
303.433
303.468
303.501
303.532
303.56
303.584
303.602
303.612
303.614
303.604
303.582
303.547
303.497
303.433
303.355
303.264
303.162
303.051
302.934
302.812
302.689
302.568
302.451
302.341
302.239
302.149
302.071
302.007
301.958
301.925
301.908
300.35
300.353
300.36
300.371
300.384
300.401
300.421
300.444
300.469
300.497
300.526
300.558
300.59
300.624
300.659
300.694
300.729
300.765
300.801
300.836
300.872
300.909
300.945
300.983
301.021
301.061
301.101
301.143
301.185
301.228
301.272
301.316
301.36
301.404
301.446
301.488
301.529
301.568
301.607
301.646
301.684
301.722
301.761
301.801
301.841
301.883
301.926
301.969
302.013
302.057
302.1
302.142
302.183
302.221
302.258
302.293
302.326
302.358
302.39
302.422
302.456
302.491
302.529
302.57
302.614
302.661
302.711
302.763
302.816
302.87
302.923
302.976
303.026
303.075
303.121
303.165
303.206
303.245
303.283
303.318
303.352
303.384
303.414
303.441
303.464
303.481
303.491
303.492
303.483
303.462
303.427
303.379
303.317
303.242
303.155
303.056
302.949
302.836
302.718
302.6
302.483
302.37
302.264
302.166
302.079
302.003
301.942
301.894
301.863
301.847
300.338
300.341
300.348
300.358
300.371
300.387
300.406
300.428
300.453
300.479
300.508
300.538
300.57
300.602
300.636
300.67
300.704
300.738
300.773
300.807
300.842
300.877
300.912
300.948
300.986
301.024
301.063
301.103
301.144
301.185
301.228
301.27
301.312
301.354
301.395
301.436
301.475
301.513
301.551
301.588
301.625
301.662
301.699
301.738
301.777
301.817
301.858
301.9
301.943
301.985
302.026
302.067
302.106
302.143
302.179
302.212
302.244
302.275
302.306
302.338
302.37
302.404
302.441
302.48
302.523
302.568
302.616
302.666
302.717
302.769
302.82
302.871
302.92
302.967
303.012
303.054
303.094
303.131
303.167
303.202
303.234
303.266
303.294
303.32
303.342
303.358
303.368
303.369
303.36
303.339
303.306
303.259
303.2
303.127
303.043
302.948
302.845
302.736
302.623
302.509
302.396
302.288
302.185
302.091
302.007
301.934
301.875
301.83
301.799
301.783
300.326
300.329
300.335
300.345
300.358
300.373
300.392
300.413
300.436
300.462
300.489
300.518
300.549
300.58
300.612
300.645
300.678
300.711
300.744
300.777
300.811
300.844
300.879
300.913
300.949
300.986
301.023
301.062
301.101
301.142
301.182
301.223
301.264
301.304
301.344
301.383
301.42
301.457
301.493
301.529
301.565
301.6
301.636
301.673
301.711
301.75
301.79
301.83
301.871
301.911
301.951
301.99
302.028
302.064
302.098
302.13
302.161
302.191
302.221
302.251
302.283
302.316
302.351
302.389
302.43
302.473
302.519
302.567
302.617
302.666
302.716
302.765
302.812
302.857
302.9
302.94
302.979
303.015
303.05
303.083
303.115
303.144
303.172
303.197
303.218
303.234
303.243
303.243
303.234
303.214
303.182
303.138
303.08
303.011
302.93
302.839
302.74
302.634
302.526
302.416
302.308
302.204
302.105
302.014
301.934
301.864
301.807
301.763
301.734
301.719
300.313
300.316
300.322
300.332
300.344
300.359
300.377
300.397
300.419
300.444
300.47
300.498
300.527
300.558
300.588
300.62
300.651
300.683
300.715
300.747
300.779
300.811
300.844
300.878
300.912
300.947
300.983
301.021
301.058
301.097
301.136
301.175
301.214
301.253
301.291
301.328
301.365
301.4
301.435
301.469
301.504
301.538
301.573
301.608
301.644
301.682
301.72
301.759
301.798
301.837
301.875
301.912
301.949
301.983
302.016
302.047
302.077
302.106
302.134
302.163
302.193
302.225
302.259
302.296
302.335
302.377
302.421
302.467
302.514
302.562
302.61
302.657
302.702
302.745
302.786
302.825
302.862
302.897
302.931
302.962
302.993
303.021
303.048
303.072
303.092
303.107
303.115
303.116
303.107
303.088
303.057
303.014
302.959
302.892
302.814
302.727
302.632
302.531
302.427
302.322
302.218
302.118
302.023
301.936
301.859
301.792
301.737
301.695
301.667
301.653
300.3
300.303
300.309
300.318
300.33
300.344
300.361
300.381
300.402
300.426
300.451
300.478
300.506
300.535
300.564
300.594
300.624
300.655
300.685
300.716
300.747
300.778
300.809
300.842
300.874
300.908
300.943
300.978
301.015
301.052
301.089
301.127
301.164
301.201
301.238
301.274
301.308
301.342
301.376
301.409
301.441
301.474
301.508
301.542
301.577
301.612
301.649
301.686
301.723
301.761
301.798
301.833
301.868
301.901
301.932
301.962
301.991
302.019
302.046
302.074
302.103
302.133
302.166
302.201
302.239
302.279
302.321
302.365
302.411
302.456
302.502
302.547
302.59
302.632
302.671
302.709
302.744
302.777
302.809
302.84
302.869
302.896
302.922
302.944
302.963
302.978
302.986
302.986
302.978
302.959
302.93
302.889
302.836
302.772
302.697
302.614
302.523
302.426
302.327
302.226
302.127
302.031
301.94
301.857
301.783
301.719
301.666
301.626
301.599
301.586
300.288
300.29
300.296
300.304
300.316
300.329
300.346
300.364
300.385
300.407
300.431
300.457
300.484
300.511
300.54
300.568
300.597
300.626
300.655
300.685
300.714
300.744
300.774
300.805
300.836
300.869
300.902
300.936
300.97
301.006
301.042
301.078
301.113
301.149
301.184
301.218
301.251
301.284
301.316
301.347
301.378
301.41
301.442
301.474
301.508
301.542
301.577
301.612
301.648
301.684
301.719
301.753
301.786
301.818
301.848
301.876
301.904
301.93
301.957
301.983
302.011
302.04
302.071
302.105
302.141
302.179
302.22
302.262
302.305
302.349
302.392
302.435
302.477
302.516
302.554
302.59
302.624
302.656
302.686
302.715
302.743
302.769
302.794
302.815
302.833
302.847
302.855
302.855
302.847
302.829
302.801
302.762
302.711
302.65
302.579
302.499
302.412
302.32
302.225
302.129
302.034
301.942
301.856
301.776
301.706
301.644
301.594
301.556
301.53
301.517
300.274
300.277
300.282
300.291
300.301
300.314
300.33
300.347
300.367
300.388
300.411
300.436
300.461
300.488
300.515
300.542
300.569
300.597
300.625
300.653
300.681
300.709
300.738
300.768
300.798
300.828
300.86
300.892
300.925
300.959
300.993
301.028
301.062
301.095
301.129
301.161
301.193
301.224
301.254
301.285
301.314
301.344
301.375
301.406
301.438
301.47
301.504
301.537
301.572
301.606
301.639
301.672
301.703
301.733
301.762
301.789
301.815
301.841
301.866
301.891
301.918
301.946
301.975
302.007
302.042
302.078
302.117
302.157
302.198
302.24
302.281
302.322
302.362
302.4
302.436
302.47
302.502
302.532
302.562
302.589
302.616
302.641
302.664
302.684
302.702
302.715
302.722
302.722
302.714
302.697
302.67
302.633
302.585
302.527
302.459
302.383
302.3
302.212
302.122
302.03
301.94
301.852
301.77
301.695
301.627
301.569
301.521
301.485
301.46
301.447
300.261
300.264
300.269
300.276
300.286
300.299
300.314
300.33
300.349
300.369
300.391
300.414
300.439
300.464
300.489
300.515
300.541
300.568
300.594
300.621
300.648
300.675
300.702
300.73
300.758
300.787
300.818
300.848
300.88
300.912
300.944
300.977
301.009
301.041
301.073
301.104
301.134
301.164
301.193
301.221
301.25
301.278
301.307
301.337
301.367
301.398
301.429
301.462
301.494
301.526
301.558
301.589
301.619
301.648
301.675
301.701
301.726
301.75
301.774
301.798
301.823
301.85
301.878
301.908
301.941
301.976
302.012
302.051
302.09
302.129
302.169
302.208
302.245
302.281
302.315
302.348
302.378
302.408
302.435
302.462
302.487
302.51
302.532
302.552
302.568
302.58
302.587
302.588
302.58
302.564
302.538
302.503
302.457
302.402
302.337
302.265
302.186
302.103
302.017
301.93
301.844
301.761
301.683
301.611
301.547
301.492
301.447
301.412
301.388
301.377
300.247
300.25
300.255
300.262
300.271
300.283
300.297
300.313
300.331
300.35
300.371
300.393
300.416
300.439
300.464
300.488
300.513
300.538
300.563
300.588
300.614
300.639
300.665
300.691
300.718
300.746
300.775
300.804
300.834
300.864
300.895
300.926
300.956
300.987
301.017
301.046
301.075
301.103
301.13
301.157
301.184
301.211
301.238
301.266
301.295
301.324
301.354
301.385
301.416
301.446
301.476
301.506
301.534
301.561
301.587
301.612
301.635
301.658
301.681
301.704
301.728
301.753
301.78
301.808
301.839
301.872
301.907
301.943
301.98
302.018
302.055
302.092
302.127
302.161
302.194
302.224
302.253
302.281
302.307
302.332
302.356
302.379
302.399
302.418
302.433
302.445
302.451
302.451
302.444
302.429
302.405
302.371
302.328
302.275
302.214
302.146
302.071
301.993
301.911
301.829
301.748
301.669
301.595
301.527
301.466
301.414
301.371
301.338
301.316
301.305
300.234
300.236
300.24
300.247
300.256
300.267
300.281
300.296
300.312
300.33
300.35
300.371
300.392
300.415
300.438
300.461
300.484
300.508
300.531
300.555
300.579
300.603
300.628
300.653
300.678
300.704
300.731
300.759
300.787
300.816
300.845
300.874
300.903
300.931
300.96
300.987
301.014
301.041
301.067
301.092
301.118
301.143
301.169
301.195
301.222
301.25
301.278
301.307
301.336
301.365
301.394
301.421
301.448
301.474
301.498
301.521
301.544
301.565
301.587
301.608
301.631
301.655
301.68
301.707
301.736
301.767
301.8
301.834
301.869
301.905
301.94
301.974
302.008
302.04
302.071
302.1
302.127
302.153
302.178
302.201
302.224
302.245
302.265
302.282
302.297
302.308
302.314
302.314
302.307
302.293
302.27
302.238
302.197
302.147
302.09
302.025
301.955
301.881
301.804
301.726
301.65
301.576
301.506
301.442
301.384
301.335
301.294
301.263
301.242
301.232
300.22
300.222
300.226
300.232
300.241
300.251
300.264
300.278
300.294
300.311
300.329
300.348
300.369
300.39
300.411
300.433
300.455
300.477
300.5
300.522
300.544
300.567
300.59
300.614
300.637
300.662
300.687
300.713
300.74
300.767
300.794
300.821
300.848
300.875
300.902
300.928
300.953
300.978
301.003
301.027
301.051
301.075
301.099
301.124
301.149
301.175
301.202
301.229
301.256
301.283
301.31
301.336
301.361
301.385
301.408
301.43
301.451
301.471
301.491
301.512
301.533
301.555
301.579
301.605
301.632
301.661
301.692
301.724
301.757
301.79
301.823
301.856
301.887
301.918
301.946
301.974
301.999
302.024
302.047
302.069
302.09
302.11
302.129
302.145
302.159
302.169
302.175
302.175
302.169
302.155
302.133
302.103
302.065
302.018
301.964
301.904
301.838
301.768
301.696
301.623
301.551
301.481
301.415
301.355
301.301
301.255
301.217
301.188
301.168
301.158
300.514
300.519
300.53
300.547
300.568
300.595
300.626
300.662
300.702
300.745
300.792
300.842
300.893
300.946
301
301.055
301.109
301.164
301.218
301.273
301.327
301.381
301.437
301.493
301.551
301.611
301.673
301.736
301.802
301.869
301.938
302.006
302.074
302.142
302.208
302.272
302.333
302.393
302.451
302.508
302.565
302.622
302.68
302.739
302.801
302.865
302.931
302.999
303.068
303.137
303.205
303.271
303.334
303.393
303.448
303.5
303.548
303.594
303.639
303.685
303.733
303.784
303.84
303.902
303.969
304.042
304.121
304.203
304.288
304.373
304.459
304.542
304.622
304.697
304.769
304.835
304.897
304.956
305.013
305.068
305.121
305.173
305.222
305.269
305.31
305.344
305.367
305.376
305.368
305.341
305.291
305.218
305.121
305.001
304.86
304.7
304.525
304.34
304.147
303.954
303.762
303.578
303.405
303.246
303.104
302.982
302.883
302.807
302.755
302.73
300.509
300.514
300.525
300.541
300.562
300.589
300.619
300.655
300.694
300.737
300.783
300.832
300.883
300.935
300.988
301.042
301.096
301.15
301.204
301.257
301.311
301.365
301.419
301.475
301.533
301.592
301.653
301.716
301.781
301.847
301.914
301.982
302.049
302.116
302.181
302.244
302.305
302.364
302.421
302.478
302.534
302.59
302.647
302.706
302.767
302.831
302.896
302.963
303.031
303.099
303.166
303.231
303.293
303.351
303.406
303.457
303.505
303.551
303.595
303.641
303.688
303.739
303.795
303.856
303.922
303.994
304.071
304.152
304.236
304.32
304.404
304.486
304.565
304.64
304.71
304.776
304.837
304.896
304.951
305.005
305.058
305.109
305.158
305.204
305.244
305.277
305.299
305.307
305.299
305.272
305.222
305.15
305.055
304.937
304.798
304.641
304.469
304.286
304.097
303.906
303.718
303.537
303.366
303.21
303.07
302.951
302.853
302.778
302.727
302.702
300.503
300.509
300.519
300.535
300.556
300.582
300.612
300.647
300.686
300.728
300.774
300.822
300.872
300.923
300.976
301.029
301.082
301.135
301.188
301.241
301.294
301.347
301.401
301.456
301.513
301.571
301.631
301.694
301.758
301.823
301.889
301.956
302.022
302.088
302.152
302.214
302.275
302.333
302.39
302.446
302.501
302.556
302.613
302.671
302.732
302.794
302.859
302.925
302.992
303.059
303.125
303.189
303.25
303.307
303.361
303.412
303.459
303.504
303.549
303.594
303.641
303.691
303.746
303.806
303.872
303.943
304.019
304.099
304.181
304.264
304.347
304.428
304.505
304.579
304.648
304.713
304.774
304.831
304.886
304.94
304.991
305.042
305.09
305.134
305.174
305.206
305.227
305.235
305.227
305.199
305.15
305.079
304.985
304.869
304.732
304.578
304.409
304.229
304.043
303.856
303.671
303.493
303.325
303.171
303.034
302.917
302.82
302.747
302.697
302.672
300.498
300.503
300.513
300.529
300.549
300.575
300.605
300.639
300.677
300.719
300.763
300.811
300.86
300.911
300.962
301.015
301.067
301.119
301.172
301.224
301.276
301.329
301.382
301.436
301.492
301.55
301.609
301.67
301.733
301.798
301.863
301.929
301.994
302.059
302.122
302.183
302.243
302.3
302.357
302.412
302.466
302.521
302.577
302.635
302.694
302.756
302.819
302.884
302.95
303.016
303.081
303.144
303.204
303.261
303.314
303.364
303.411
303.456
303.5