/*--------------------------------*- C++ -*----------------------------------*\
  =========                 |
  \\      /  F ield         | OpenFOAM: The Open Source CFD Toolbox
   \\    /   O peration     | Website:  https://openfoam.org
    \\  /    A nd           | Version:  6
     \\/     M anipulation  |
\*---------------------------------------------------------------------------*/
FoamFile
{
    version     2.0;
    format      ascii;
    class       volScalarField;
    location    "550";
    object      alphat;
}
// * * * * * * * * * * * * * * * * * * * * * * * * * * * * * * * * * * * * * //

dimensions      [1 -1 -1 0 0 0 0];

internalField   nonuniform List<scalar> 
16000
(
5.7372328e-06
2.4543106e-05
2.7146741e-05
3.8273026e-05
3.2798504e-05
4.2092109e-05
4.1192718e-05
4.6507555e-05
4.7711272e-05
4.7910756e-05
4.8559931e-05
4.7066751e-05
4.7202096e-05
4.5987816e-05
4.5995596e-05
4.5440801e-05
4.5646211e-05
4.5703013e-05
4.6196745e-05
4.6738095e-05
4.7572238e-05
4.8550375e-05
4.9774947e-05
5.1202087e-05
5.2884592e-05
5.4826715e-05
5.7071197e-05
5.9649712e-05
6.2613831e-05
6.6020051e-05
6.994198e-05
7.4468137e-05
7.970828e-05
8.579622e-05
9.2896414e-05
0.0001012109
0.00011098819
0.00012253435
0.00013622613
0.00015252641
0.00017200451
0.00019536334
0.00022346766
0.00025738001
0.00029840443
0.00034813764
0.00040852492
0.0004819243
0.00057117367
0.0006796568
0.00081136182
0.00097094223
0.0011638274
0.0012231233
0.0012243695
0.0012245748
0.0012240372
0.0012230871
0.0012219278
0.0012205518
0.0012188589
0.0012168263
0.0012144183
0.0012115551
0.0012081946
0.0012044213
0.0012004518
0.001196662
0.0011931712
0.0011901681
0.0011873053
0.0011851656
0.0011826503
0.0011814611
0.0011789312
0.001180106
0.001176695
0.0011836689
0.001173811
0.0011827959
4.7903807e-06
2.4284415e-05
2.4878004e-05
3.5004697e-05
3.0269825e-05
3.7976722e-05
3.7932451e-05
4.1627872e-05
4.3584494e-05
4.278771e-05
4.3885892e-05
4.1987464e-05
4.2308699e-05
4.0951946e-05
4.1053719e-05
4.0492324e-05
4.0705813e-05
4.0736738e-05
4.1185956e-05
4.1664374e-05
4.2410781e-05
4.328304e-05
4.4375872e-05
4.5648865e-05
4.71488e-05
4.8879618e-05
5.0878659e-05
5.3174211e-05
5.5811439e-05
5.8840245e-05
6.2325149e-05
6.6343902e-05
7.099296e-05
7.6389818e-05
8.2679135e-05
9.0038233e-05
9.8684668e-05
0.00010888568
0.0001209702
0.00013534269
0.00015249882
0.00017304941
0.00019774506
0.00022750659
0.00026346223
0.00030699265
0.00035978006
0.00042386577
0.00050171393
0.00059627805
0.00071106992
0.00085022702
0.0010186156
0.0012219501
0.0012234252
0.0012237665
0.0012232735
0.0012223138
0.0012211466
0.001219835
0.0012183309
0.0012164646
0.0012142159
0.001211496
0.0012082483
0.0012045222
0.0012005447
0.0011966915
0.001193179
0.0011900978
0.0011872755
0.0011849913
0.0011826638
0.0011813335
0.0011790019
0.0011794723
0.0011766012
0.0011826032
0.0011738456
0.00118251
4.0990587e-06
2.4028323e-05
2.3071108e-05
3.2207069e-05
2.8264323e-05
3.4464625e-05
3.5460558e-05
3.7303938e-05
4.005945e-05
3.8084515e-05
3.9594196e-05
3.7274327e-05
3.7757229e-05
3.6358323e-05
3.6536306e-05
3.5990224e-05
3.6211177e-05
3.6235097e-05
3.6650262e-05
3.708572e-05
3.7763151e-05
3.855387e-05
3.9541599e-05
4.0691858e-05
4.2044863e-05
4.360552e-05
4.5406334e-05
4.7473277e-05
4.9846328e-05
5.257027e-05
5.5702517e-05
5.9312499e-05
6.3486122e-05
6.8327954e-05
7.3966746e-05
8.0560399e-05
8.8302684e-05
9.7431141e-05
0.00010823713
0.00012107871
0.00013639465
0.0001547245
0.00017672967
0.00020322047
0.00023518789
0.00027384293
0.00032065992
0.00037742723
0.00044630595
0.00052989272
0.00063128919
0.00075417402
0.00090289312
0.0010825956
0.0012225089
0.0012230008
0.0012225586
0.0012215828
0.0012203841
0.001219053
0.0012175679
0.0012158761
0.0012138211
0.0012112784
0.0012081761
0.0012045311
0.0012005632
0.0011966681
0.0011931284
0.0011900024
0.001187193
0.0011848346
0.0011826048
0.0011811883
0.0011790361
0.0011790447
0.0011765643
0.0011816593
0.0011738345
0.0011816622
3.6476959e-06
2.3691424e-05
2.1538546e-05
2.9589838e-05
2.6382948e-05
3.1253267e-05
3.3068939e-05
3.3425848e-05
3.6640405e-05
3.3875349e-05
3.5555286e-05
3.3050969e-05
3.3611209e-05
3.227952e-05
3.2478911e-05
3.1983843e-05
3.2195941e-05
3.2229459e-05
3.2611688e-05
3.3016968e-05
3.363546e-05
3.4359584e-05
3.5258594e-05
3.630588e-05
3.7534827e-05
3.8951907e-05
4.0585322e-05
4.2459372e-05
4.4609788e-05
4.7077249e-05
4.9913381e-05
5.3180893e-05
5.6957216e-05
6.1336739e-05
6.6435405e-05
7.2395403e-05
7.9391269e-05
8.7637252e-05
9.7396043e-05
0.00010898914
0.00012281007
0.0001393435
0.00015918245
0.0001830521
0.00021183855
0.00024662401
0.00028872512
0.00033973893
0.00040159709
0.00047662495
0.00056760988
0.00067787508
0.00081136489
0.00097276658
0.0011676627
0.0012222641
0.0012218824
0.001220888
0.0012196491
0.0012182841
0.0012167777
0.0012150985
0.0012131835
0.0012108577
0.001207941
0.0012044162
0.0012004853
0.0011965682
0.0011930105
0.0011898612
0.0011870594
0.0011846597
0.0011824964
0.0011809455
0.00117904
0.0011787753
0.0011765427
0.0011806954
0.0011738533
0.0011811506
3.2745919e-06
2.3234162e-05
2.0292256e-05
2.716555e-05
2.4658591e-05
2.8320808e-05
3.0824796e-05
2.9910363e-05
3.3356005e-05
3.0047005e-05
3.1746197e-05
2.927229e-05
2.9827921e-05
2.8615348e-05
2.8806735e-05
2.838114e-05
2.857826e-05
2.863048e-05
2.8983828e-05
2.9367814e-05
2.993692e-05
3.0606211e-05
3.1430491e-05
3.2390957e-05
3.3514753e-05
3.4809943e-05
3.630111e-05
3.8011174e-05
3.9972391e-05
4.2222062e-05
4.4807037e-05
4.7784466e-05
5.1224851e-05
5.5214109e-05
5.9857766e-05
6.5285351e-05
7.1655648e-05
7.9163429e-05
8.8048244e-05
9.8603234e-05
0.0001111851
0.00012623406
0.0001442892
0.00016600846
0.00019219491
0.00022382985
0.0002621065
0.0003084727
0.00036468137
0.000432846
0.00051550727
0.00061570638
0.00073707093
0.00088392268
0.0010614307
0.0012215406
0.0012212345
0.0012202223
0.0012189377
0.001217532
0.0012159929
0.0012142955
0.0012123987
0.0012102191
0.0012075331
0.0012041721
0.0012003102
0.0011963908
0.0011928265
0.0011896707
0.0011868791
0.0011844637
0.0011823464
0.0011807124
0.001179
0.0011785074
0.001176531
0.0011798313
0.0011738893
0.0011804365
2.9608739e-06
2.0786746e-05
1.9217007e-05
2.4881131e-05
2.3086322e-05
2.5609197e-05
2.8702511e-05
2.6702841e-05
3.0203956e-05
2.6606935e-05
2.8202162e-05
2.5909399e-05
2.6407078e-05
2.5344231e-05
2.5510293e-05
2.5162558e-05
2.5342698e-05
2.5417984e-05
2.5747131e-05
2.6116087e-05
2.6644574e-05
2.7268998e-05
2.8031157e-05
2.8919192e-05
2.995504e-05
3.1148081e-05
3.251999e-05
3.409253e-05
3.589517e-05
3.7962438e-05
4.0337297e-05
4.307235e-05
4.6232451e-05
4.9896645e-05
5.4162006e-05
5.914768e-05
6.4999916e-05
7.1897868e-05
8.0061763e-05
8.9762366e-05
0.00010132743
0.00011516126
0.00013175949
0.00015172721
0.00017580105
0.00020488222
0.00024006624
0.00028268226
0.00033434128
0.0003969875
0.00047296311
0.00056508015
0.00067670518
0.00081186124
0.00097537006
0.0011730079
0.0012206023
0.0012195762
0.0012182415
0.0012167902
0.0012152128
0.0012134869
0.0012115797
0.001209435
0.0012069372
0.0012037899
0.0012000347
0.0011961339
0.0011925768
0.0011894299
0.0011866546
0.0011842428
0.0011821619
0.0011804812
0.0011789171
0.0011782395
0.0011765248
0.0011791259
0.0011739413
0.0011799402
2.6757847e-06
1.9022526e-05
1.8023454e-05
2.271942e-05
2.1664128e-05
2.3108869e-05
2.6684885e-05
2.3776358e-05
2.7189974e-05
2.3567224e-05
2.4973262e-05
2.2922264e-05
2.3330722e-05
2.242781e-05
2.2559977e-05
2.2289152e-05
2.2452538e-05
2.2550763e-05
2.2859774e-05
2.3217172e-05
2.3711976e-05
2.4298906e-05
2.5009025e-05
2.5836064e-05
2.6797895e-05
2.7904799e-05
2.9176186e-05
3.0632801e-05
3.230184e-05
3.4215571e-05
3.6413752e-05
3.8945193e-05
4.1870169e-05
4.5262055e-05
4.9210979e-05
5.382768e-05
5.9248091e-05
6.5638738e-05
7.3204184e-05
8.2196917e-05
9.2921389e-05
0.00010575315
0.00012115263
0.00013968254
0.00016202643
0.00018902111
0.00022168437
0.00026125039
0.00030921679
0.00036739234
0.00043795937
0.0005235443
0.00062730022
0.00075300698
0.00090520029
0.0010893344
0.0012199715
0.0012189398
0.0012175522
0.0012160521
0.0012144327
0.0012126735
0.0012107458
0.0012086051
0.0012061704
0.0012032605
0.0011996563
0.0011957965
0.0011922614
0.0011891377
0.0011863877
0.0011839946
0.0011819458
0.0011802497
0.0011787951
0.001177966
0.0011765163
0.0011785022
0.0011739974
0.0011794498
2.4195604e-06
1.8487978e-05
1.6791705e-05
2.0685419e-05
2.0361645e-05
2.0790444e-05
2.4710774e-05
2.1160306e-05
2.4285924e-05
2.0867781e-05
2.2036054e-05
2.0260052e-05
2.056772e-05
1.9823286e-05
1.9921695e-05
1.9723057e-05
1.9873069e-05
1.9993124e-05
2.0286864e-05
2.0635705e-05
2.1103532e-05
2.1659683e-05
2.2326975e-05
2.3103358e-05
2.4003618e-05
2.5038694e-05
2.6226207e-05
2.7585999e-05
2.9143469e-05
3.0928996e-05
3.2979793e-05
3.5341467e-05
3.8070606e-05
4.1235959e-05
4.4921956e-05
4.9232518e-05
5.429521e-05
6.026631e-05
6.7337596e-05
7.5747036e-05
8.5779987e-05
9.778896e-05
0.00011220614
0.00012955996
0.00015049126
0.00017578498
0.0002063965
0.0002434835
0.00028845238
0.00034300224
0.00040918573
0.00048947741
0.00058685456
0.00070489529
0.00084789932
0.0010210485
0.0012193259
0.0012183028
0.0012168609
0.0012153101
0.0012136467
0.0012118515
0.0012098988
0.0012077511
0.0012053479
0.0012025745
0.0011991743
0.0011953796
0.001191882
0.0011887955
0.0011860814
0.0011837199
0.0011817033
0.0011800155
0.0011786416
0.0011776857
0.0011765001
0.0011779213
0.0011740585
0.0011790416
2.1993699e-06
1.7900301e-05
1.5668466e-05
1.8760621e-05
1.9148073e-05
1.8608289e-05
2.2725464e-05
1.8815709e-05
2.1521607e-05
1.8451961e-05
1.9368183e-05
1.7875901e-05
1.8086943e-05
1.7491292e-05
1.7561985e-05
1.742877e-05
1.757056e-05
1.7710858e-05
1.799435e-05
1.8337303e-05
1.8784226e-05
1.9315597e-05
1.9948147e-05
2.0682948e-05
2.1532525e-05
2.250815e-05
2.3626176e-05
2.4905597e-05
2.6370401e-05
2.8049424e-05
2.9977804e-05
3.2198531e-05
3.4765169e-05
3.774272e-05
4.1211016e-05
4.5268366e-05
5.0035631e-05
5.5660905e-05
6.2325148e-05
7.0255299e-05
7.9721117e-05
9.1056483e-05
0.00010467059
0.00012106491
0.00014084545
0.0001647555
0.00019370037
0.00022877591
0.00027131514
0.00032292865
0.00038556386
0.00046157152
0.00055378483
0.00066561536
0.00080117037
0.0009654061
0.0011642938
0.0012176546
0.0012161585
0.0012145565
0.0012128485
0.0012110164
0.0012090366
0.0012068765
0.0012044867
0.0012017824
0.0011985888
0.0011948857
0.001191441
0.0011884052
0.0011857387
0.0011834202
0.0011814396
0.0011797785
0.0011784646
0.0011774366
0.0011764743
0.0011773884
0.0011741343
0.0011786405
2.0081087e-06
1.7241703e-05
1.461383e-05
1.6916526e-05
1.800613e-05
1.6634315e-05
2.070546e-05
1.6704816e-05
1.8946034e-05
1.6283034e-05
1.695854e-05
1.573791e-05
1.5865831e-05
1.5403283e-05
1.5454857e-05
1.537903e-05
1.5517966e-05
1.5676708e-05
1.5954481e-05
1.62939e-05
1.6725334e-05
1.7237279e-05
1.7842276e-05
1.8543525e-05
1.9352032e-05
2.0279168e-05
2.1340349e-05
2.255384e-05
2.3942508e-05
2.5533962e-05
2.7361672e-05
2.9466461e-05
3.1899482e-05
3.4722727e-05
3.8012318e-05
4.1862008e-05
4.6387372e-05
5.1730075e-05
5.8061725e-05
6.5601466e-05
7.4606184e-05
8.5394698e-05
9.8357543e-05
0.00011397559
0.00013282623
0.00015561919
0.00018322008
0.00021667465
0.00025725727
0.00030650709
0.00036628637
0.00043884537
0.00052689958
0.00063372388
0.00076326765
0.00092030129
0.0011105844
0.0012169848
0.0012154364
0.001213784
0.001212032
0.0012101635
0.0012081566
0.0012059821
0.0012035986
0.001200942
0.0011979005
0.0011943189
0.0011909422
0.0011879704
0.0011853631
0.0011830979
0.0011811602
0.0011795396
0.0011782709
0.0011772163
0.0011764384
0.0011769153
0.0011742292
0.0011782562
1.8420964e-06
1.6478301e-05
1.3633899e-05
1.514161e-05
1.6909157e-05
1.4845449e-05
1.8639829e-05
1.4799211e-05
1.6571698e-05
1.4332582e-05
1.4794582e-05
1.3820002e-05
1.388285e-05
1.3535088e-05
1.3576726e-05
1.3550207e-05
1.3691215e-05
1.3866731e-05
1.4083607e-05
1.4412105e-05
1.4825576e-05
1.531703e-05
1.5895515e-05
1.656512e-05
1.733543e-05
1.8217536e-05
1.9225895e-05
2.0377925e-05
2.1695353e-05
2.320462e-05
2.4937686e-05
2.6933261e-05
2.9240346e-05
3.1918194e-05
3.5039613e-05
3.8694289e-05
4.2993073e-05
4.8072489e-05
5.4455912e-05
6.1681308e-05
7.0315562e-05
8.0665603e-05
9.3106617e-05
0.00010810429
0.00012621266
0.0001481144
0.00017464432
0.00020680753
0.00024583218
0.00029320022
0.00035070569
0.00042051805
0.00050525785
0.00060808943
0.00073283393
0.00088411092
0.0010675066
0.0012162834
0.0012146863
0.0012129856
0.0012111916
0.0012092884
0.0012072557
0.001205067
0.0012026864
0.0012000617
0.0011971098
0.0011936847
0.0011903904
0.0011874954
0.0011849589
0.0011827565
0.0011808699
0.0011792996
0.0011780671
0.0011770222
0.0011763918
0.0011765144
0.0011743419
0.0011778979
1.6977829e-06
1.5593284e-05
1.2717209e-05
1.3425273e-05
1.5814364e-05
1.321966e-05
1.6551067e-05
1.3072207e-05
1.4403984e-05
1.2574897e-05
1.2860122e-05
1.2099361e-05
1.2116841e-05
1.1865777e-05
1.1849918e-05
1.1844581e-05
1.1979963e-05
1.2164466e-05
1.243667e-05
1.277298e-05
1.3185055e-05
1.3670056e-05
1.4235639e-05
1.4887067e-05
1.563338e-05
1.6485736e-05
1.7458136e-05
1.8567542e-05
1.9834972e-05
2.1286135e-05
2.29521e-05
2.4869953e-05
2.7087277e-05
2.9661462e-05
3.2662979e-05
3.6178564e-05
4.0315606e-05
4.5208074e-05
5.1016237e-05
5.7938699e-05
6.6218463e-05
7.6152403e-05
8.8786504e-05
0.00010329805
0.00012082554
0.00014202965
0.00016772252
0.00019887597
0.00023668272
0.00028257966
0.00033830691
0.00040597001
0.00048811432
0.00058781641
0.00070879575
0.00085555219
0.0010335342
0.001215541
0.001213901
0.0012121552
0.0012103222
0.0012083873
0.0012063314
0.0012041305
0.001201753
0.0011991548
0.0011962703
0.0011929905
0.0011897918
0.0011869855
0.0011845304
0.0011823997
0.0011805735
0.0011790602
0.0011778599
0.0011768505
0.0011763328
0.0011761893
0.0011744673
0.0011776071
1.5729898e-06
1.4580255e-05
1.1864479e-05
1.1869341e-05
1.4684478e-05
1.1736396e-05
1.4526714e-05
1.1502408e-05
1.2445586e-05
1.0989832e-05
1.113887e-05
1.0557865e-05
1.0466408e-05
1.0269427e-05
1.0302014e-05
1.0349842e-05
1.050716e-05
1.0715421e-05
1.0998308e-05
1.1341877e-05
1.1754182e-05
1.2235072e-05
1.2791459e-05
1.3429408e-05
1.4157548e-05
1.4987082e-05
1.5931672e-05
1.7007883e-05
1.8236156e-05
1.9641636e-05
2.1254889e-05
2.3111514e-05
2.5258121e-05
2.7750712e-05
3.0658054e-05
3.4064605e-05
3.8074586e-05
4.282024e-05
4.8457627e-05
5.5180953e-05
6.3227798e-05
7.2888925e-05
8.4522249e-05
9.8557737e-05
0.00011552299
0.00013718792
0.00016224596
0.0001926323
0.00022951387
0.00027429299
0.0003286682
0.00039469582
0.00047486321
0.00057217932
0.00069028548
0.00083359044
0.0010074387
0.0012147489
0.0012130743
0.0012112876
0.0012094198
0.001207457
0.0012053817
0.0012031718
0.0012007993
0.001198227
0.0011954024
0.0011922447
0.0011891535
0.0011864465
0.0011840824
0.0011820317
0.0011802749
0.001178823
0.0011776547
0.0011766976
0.0011762589
0.0011759287
0.0011746011
0.0011773678
1.4653757e-06
1.3440046e-05
1.1067837e-05
1.0457969e-05
1.3479634e-05
1.0382129e-05
1.260221e-05
1.0075806e-05
1.0696013e-05
9.5628761e-06
9.5225667e-06
9.0444854e-06
9.002682e-06
8.8960649e-06
8.9571055e-06
9.0477001e-06
9.2253474e-06
9.45373e-06
9.7471588e-06
1.0097961e-05
1.0512173e-05
1.099131e-05
1.1541939e-05
1.2170731e-05
1.2885967e-05
1.3698882e-05
1.4622907e-05
1.5674277e-05
1.6872939e-05
1.8243575e-05
1.9740721e-05
2.1535934e-05
2.3611557e-05
2.6022226e-05
2.8835133e-05
3.2132723e-05
3.622241e-05
4.0857402e-05
4.6366669e-05
5.2941378e-05
6.0815144e-05
7.0272792e-05
8.1668688e-05
9.542383e-05
0.00011205735
0.0001322038
0.00015662705
0.00018786859
0.00022407856
0.00026804581
0.00032143804
0.00038627527
0.00046500201
0.00056057736
0.00067658533
0.00081736982
0.00098820193
0.0011954701
0.0012122017
0.0012103791
0.0012084815
0.0012064955
0.0012044052
0.0012021905
0.0011998263
0.0011972806
0.0011945109
0.001191457
0.0011884833
0.0011858848
0.0011836198
0.0011816564
0.0011799773
0.0011785895
0.0011774562
0.0011765616
0.0011761681
0.0011756833
0.0011747362
0.0011771785
1.3736132e-06
1.2185074e-05
1.0318427e-05
9.1761414e-06
1.2161348e-05
9.1425679e-06
1.0807747e-05
8.778038e-06
9.1474932e-06
8.1377333e-06
8.077116e-06
7.7557412e-06
7.7400775e-06
7.70436e-06
7.7925587e-06
7.9180784e-06
8.1147634e-06
8.3607515e-06
8.6647872e-06
9.0231735e-06
9.4409675e-06
9.9206652e-06
1.0468693e-05
1.1065889e-05
1.1766187e-05
1.2560872e-05
1.3462904e-05
1.4487973e-05
1.5655318e-05
1.6988732e-05
1.8517225e-05
2.0276437e-05
2.2310205e-05
2.4672536e-05
2.7429974e-05
3.0664559e-05
3.4477392e-05
3.8993027e-05
4.4364741e-05
5.0781058e-05
5.8472339e-05
6.8231144e-05
7.9464379e-05
9.302818e-05
0.00010943397
0.00012931151
0.00015341436
0.00018266528
0.00022016277
0.0002635836
0.00031631316
0.00038034658
0.00045809904
0.0005524955
0.00066708102
0.00080615721
0.00097494799
0.0011797915
0.0012112801
0.0012094276
0.0012075056
0.0012055019
0.0012034018
0.0012011871
0.0011988353
0.0011963185
0.0011936014
0.0011906378
0.0011877896
0.0011853069
0.0011831473
0.0011812777
0.0011796828
0.0011783612
0.0011772684
0.0011764393
0.0011760645
0.0011754818
0.0011748623
0.0011770135
1.2973274e-06
1.0829026e-05
9.6080119e-06
8.0119938e-06
1.0773321e-05
8.0062571e-06
9.1746335e-06
7.5379354e-06
7.5877586e-06
6.9009251e-06
6.8433242e-06
6.6422153e-06
6.6547361e-06
6.675005e-06
6.7889636e-06
6.9436414e-06
7.1582911e-06
7.4202227e-06
7.735105e-06
8.1016621e-06
8.5049835e-06
8.9820314e-06
9.5251376e-06
1.0140973e-05
1.0838094e-05
1.1626943e-05
1.2520455e-05
1.353421e-05
1.4687152e-05
1.6002894e-05
1.751018e-05
1.9244349e-05
2.1248926e-05
2.3577564e-05
2.6296432e-05
2.9487123e-05
3.3250168e-05
3.7709336e-05
4.3016972e-05
4.9360893e-05
5.6971882e-05
6.612869e-05
7.717289e-05
9.0518522e-05
0.00010755331
0.00012727273
0.00015118539
0.00018021177
0.00021545557
0.00026067915
0.00031302292
0.00037658703
0.00045376953
0.00054747524
0.00066122645
0.00079930203
0.00096690251
0.0011703437
0.0012103088
0.0012084326
0.0012064923
0.0012044766
0.0012023723
0.0012001629
0.0011978284
0.0011953442
0.0011926798
0.0011897981
0.001187081
0.001184719
0.0011826693
0.0011808986
0.0011793924
0.0011781387
0.0011770944
0.0011763294
0.001175949
0.0011753145
0.0011749639
0.0011768528
1.2375659e-06
9.384543e-06
8.9155256e-06
6.9533659e-06
9.343361e-06
6.9498981e-06
7.9987181e-06
6.3312235e-06
6.3006241e-06
5.8358322e-06
5.7937197e-06
5.684189e-06
5.7258067e-06
5.7911684e-06
5.9294633e-06
6.1091911e-06
6.340989e-06
6.617824e-06
6.9257003e-06
7.2967144e-06
7.7220241e-06
8.205483e-06
8.7527095e-06
9.3706234e-06
1.0067859e-05
1.0854834e-05
1.1744489e-05
1.2752398e-05
1.389719e-05
1.5202432e-05
1.669674e-05
1.8415334e-05
2.0401651e-05
2.2709289e-05
2.5404393e-05
2.8568564e-05
3.230231e-05
3.6729196e-05
4.2001143e-05
4.8305352e-05
5.5873754e-05
6.4983964e-05
7.5978497e-05
8.9271195e-05
0.00010536524
0.00012487243
0.00014981186
0.00017874725
0.00021388515
0.00025655779
0.00031131372
0.00037469415
0.00045165256
0.00054508657
0.00065850914
0.00079619416
0.00096333957
0.0011662644
0.0012092886
0.0012073955
0.0012054432
0.0012034215
0.0012013185
0.0011991199
0.001196808
0.001194361
0.0011917519
0.0011889486
0.0011863659
0.0011841271
0.0011821896
0.001180521
0.0011791054
0.0011779208
0.0011769336
0.00117623
0.001175825
0.0011751697
0.0011750422
0.0011766926
1.1989362e-06
7.8740376e-06
8.2064113e-06
5.9989922e-06
7.9363869e-06
6.3453201e-06
6.5597631e-06
5.2707524e-06
5.2289166e-06
4.9205735e-06
4.9037642e-06
4.8655911e-06
4.9360205e-06
5.0387198e-06
5.1999663e-06
5.4017541e-06
5.6342222e-06
5.9212894e-06
6.255462e-06
6.6380704e-06
7.072675e-06
7.5636475e-06
8.1167859e-06
8.7391603e-06
9.4394893e-06
1.0228084e-05
1.1117914e-05
1.2098264e-05
1.3232676e-05
1.4524385e-05
1.6001674e-05
1.7699444e-05
1.9660847e-05
2.1939222e-05
2.4600523e-05
2.7726195e-05
3.1416613e-05
3.579511e-05
4.1013021e-05
4.7567653e-05
5.5126876e-05
6.4229365e-05
7.5220787e-05
8.8514865e-05
0.0001046147
0.00012413327
0.00014781434
0.00017812286
0.00021328837
0.00025599822
0.00030786234
0.0003743677
0.00045138925
0.00054490184
0.00065841926
0.00079622573
0.00096353508
0.0011666921
0.0012082231
0.0012063198
0.0012043619
0.0012023402
0.0012002441
0.0011980613
0.0011957769
0.0011933721
0.001190823
0.0011880997
0.0011856522
0.0011835363
0.001181711
0.0011801453
0.0011788201
0.0011777055
0.0011767825
0.0011761348
0.0011756972
0.001175054
0.0011751042
0.0011765148
1.1849289e-06
7.0203071e-06
7.4790241e-06
5.9257453e-06
7.5277086e-06
5.0432681e-06
5.0359512e-06
4.3757349e-06
4.3316793e-06
4.1455943e-06
4.1554041e-06
4.1741768e-06
4.2720858e-06
4.4060495e-06
4.5766506e-06
4.7934588e-06
5.0542483e-06
5.3572959e-06
5.7046455e-06
6.0986056e-06
6.5430298e-06
7.0426339e-06
7.6033456e-06
8.2322909e-06
8.9248841e-06
9.7137907e-06
1.0601896e-05
1.1604422e-05
1.2740036e-05
1.4031708e-05
1.5507796e-05
1.7203356e-05
1.9161796e-05
2.1436828e-05
2.409494e-05
2.7218267e-05
3.0908046e-05
3.5288806e-05
4.0513659e-05
4.6770103e-05
5.4286434e-05
6.3803993e-05
7.4829901e-05
8.8170605e-05
0.00010432983
0.00012392278
0.00014769601
0.00017655545
0.00021348263
0.00025635902
0.00030842153
0.0003716411
0.0004526053
0.00054647454
0.00066042364
0.00079875993
0.00096672895
0.0011707196
0.0012071176
0.0012052111
0.001203254
0.0012012382
0.0011991542
0.0011969918
0.0011947386
0.0011923799
0.0011898963
0.0011872606
0.0011849467
0.0011829513
0.0011812357
0.0011797707
0.0011785331
0.0011774891
0.0011766329
0.0011760316
0.0011755674
0.0011749703
0.0011751295
0.0011763067
1.1936934e-06
7.2199308e-06
6.6977117e-06
6.5029771e-06
6.583695e-06
4.0045001e-06
4.0859661e-06
3.6186249e-06
3.5879847e-06
3.4962972e-06
3.5342157e-06
3.5982935e-06
3.7220184e-06
3.8700197e-06
4.068265e-06
4.3056158e-06
4.5829316e-06
4.9003229e-06
5.2601993e-06
5.665511e-06
6.1203486e-06
6.6296429e-06
7.1914045e-06
7.8259042e-06
8.5361069e-06
9.3322307e-06
1.0226706e-05
1.1234737e-05
1.2375004e-05
1.3670554e-05
1.514991e-05
1.6848404e-05
1.8809826e-05
2.1088437e-05
2.3751436e-05
2.6881833e-05
3.058189e-05
3.4977492e-05
4.0223393e-05
4.6508639e-05
5.4063614e-05
6.3170324e-05
7.4731673e-05
8.8152464e-05
0.00010441068
0.00012412475
0.00014804484
0.00017708103
0.00021426973
0.00025740588
0.00030977818
0.00037336775
0.00045489233
0.0005493163
0.00066393846
0.0008030984
0.0009720853
0.0011773463
0.0012059794
0.0012040764
0.0012021266
0.0012001225
0.0011980558
0.0011959174
0.0011936976
0.0011913855
0.0011889689
0.0011864386
0.001184255
0.0011823758
0.0011807651
0.0011793955
0.0011782408
0.0011772666
0.0011764748
0.001175912
0.0011754439
0.0011749065
0.0011750951
0.0011760508
1.0168329e-06
7.628836e-06
5.8368933e-06
4.3816873e-06
4.2564904e-06
3.3244448e-06
3.2650857e-06
3.0055206e-06
2.9823702e-06
2.9612245e-06
3.0269155e-06
3.1264816e-06
3.2629851e-06
3.441982e-06
3.66041e-06
3.9150702e-06
4.2071126e-06
4.5378005e-06
4.9098826e-06
5.3267094e-06
5.7925255e-06
6.3067228e-06
6.8844999e-06
7.5290072e-06
8.2486616e-06
9.0536381e-06
9.9563283e-06
1.0971931e-05
1.2119183e-05
1.3421266e-05
1.4906932e-05
1.6611874e-05
1.8580377e-05
2.0867371e-05
2.3540881e-05
2.668488e-05
3.0402836e-05
3.4822281e-05
4.0099758e-05
4.6425403e-05
5.4031283e-05
6.3671591e-05
7.4845198e-05
8.8366066e-05
0.00010474677
0.00012460976
0.00014870985
0.00017796257
0.00021542626
0.00025887381
0.00031161876
0.00037565514
0.0004577872
0.00055287316
0.00066830034
0.00080844646
0.00097865139
0.0011854292
0.001204817
0.0012029243
0.0012009882
0.0011990018
0.0011969576
0.0011948475
0.0011926624
0.0011903929
0.0011880281
0.001185639
0.0011835807
0.0011818124
0.0011803006
0.0011790191
0.0011779401
0.001177032
0.0011763019
0.0011757755
0.0011753058
0.0011747939
0.00117499
0.0011757328
7.9226648e-07
6.2910526e-06
4.6029038e-06
3.2244349e-06
3.3029453e-06
2.6938971e-06
2.6319314e-06
2.486267e-06
2.4929319e-06
2.5223859e-06
2.6164806e-06
2.7376734e-06
2.902877e-06
3.1033797e-06
3.3390343e-06
3.6088461e-06
3.9144088e-06
4.2577244e-06
4.6417974e-06
5.0702105e-06
5.5440032e-06
6.0734192e-06
6.6621713e-06
7.317251e-06
8.0470201e-06
8.8616035e-06
9.7733676e-06
1.0797526e-05
1.1952901e-05
1.3262851e-05
1.4756413e-05
1.6469684e-05
1.8447512e-05
2.074555e-05
2.3432661e-05
2.6593766e-05
3.0333617e-05
3.4781508e-05
4.0096084e-05
4.6468129e-05
5.4505674e-05
6.3823356e-05
7.5082719e-05
8.8708403e-05
0.0001052167
0.00012523417
0.00014952073
0.00017899741
0.00021670226
0.0002604647
0.00031358721
0.00037807749
0.00046076676
0.00055651842
0.00067275762
0.00081390155
0.00098534233
0.0011936624
0.0012036402
0.0012017641
0.0011998479
0.0011978854
0.0011958698
0.0011937937
0.0011916493
0.001189428
0.0011871204
0.0011848648
0.0011829248
0.0011812615
0.0011798426
0.001178642
0.001177631
0.0011767828
0.0011761076
0.0011756096
0.0011751421
0.0011746714
0.0011748426
0.0011753556
6.1815415e-07
3.4458232e-06
3.6549926e-06
2.6238852e-06
2.5493964e-06
2.1790282e-06
2.1329639e-06
2.0684428e-06
2.104873e-06
2.1741312e-06
2.2933716e-06
2.4393111e-06
2.6250849e-06
2.843068e-06
3.0934771e-06
3.3767275e-06
3.6947831e-06
4.0500785e-06
4.445755e-06
4.8854843e-06
5.373585e-06
5.9120999e-06
6.5116594e-06
7.1771644e-06
7.9169206e-06
8.7410107e-06
9.6617906e-06
1.0694512e-05
1.1858102e-05
1.3176111e-05
1.467787e-05
1.6399902e-05
1.8387625e-05
2.0697403e-05
2.3398864e-05
2.6577822e-05
3.0340103e-05
3.5006281e-05
4.0397067e-05
4.6861512e-05
5.4638088e-05
6.4018235e-05
7.5354295e-05
8.9073089e-05
0.00010569383
0.00012584653
0.00015029634
0.00018154841
0.00021782443
0.00026185034
0.00031528892
0.00038016028
0.00046324291
0.00055954458
0.00067645857
0.00081843718
0.00099091941
0.0012005492
0.0012024596
0.0012006059
0.0011987154
0.0011967823
0.0011948006
0.0011927636
0.0011906646
0.0011884961
0.0011862501
0.0011841169
0.0011822859
0.0011807195
0.0011793867
0.0011782607
0.0011773124
0.0011765202
0.0011758929
0.0011754164
0.0011749626
0.0011745538
0.0011746906
0.0011750196
5.0034032e-07
2.5912542e-06
2.8001055e-06
2.0722864e-06
1.985826e-06
1.7702839e-06
1.7460812e-06
1.73953e-06
1.8042288e-06
1.9050099e-06
2.0463385e-06
2.2148263e-06
2.4174911e-06
2.6501717e-06
2.9135828e-06
3.2089673e-06
3.538529e-06
3.9049199e-06
4.311334e-06
4.7614605e-06
5.2595797e-06
5.810664e-06
6.4205546e-06
7.096198e-06
7.845956e-06
8.6800071e-06
9.6108553e-06
1.065397e-05
1.1828578e-05
1.3158624e-05
1.4673942e-05
1.6411692e-05
1.841809e-05
2.0750403e-05
2.3479317e-05
2.6692092e-05
3.0496379e-05
3.5024e-05
4.0434921e-05
4.692463e-05
5.4733573e-05
6.4154317e-05
7.5540739e-05
8.9320169e-05
0.0001060127
0.0001273153
0.00015204418
0.00018204128
0.00021843814
0.00026260762
0.00031621775
0.00038489679
0.00046446998
0.0005610607
0.00067833795
0.00082077841
0.00099385459
0.001203082
0.0012012855
0.0011994596
0.0011975998
0.001195701
0.0011937576
0.001191764
0.0011897142
0.0011876018
0.0011854199
0.0011833952
0.0011816608
0.0011801806
0.0011789244
0.0011778647
0.0011769734
0.0011762329
0.0011756469
0.0011751883
0.0011747557
0.0011744062
0.0011744993
0.0011746744
3.8642023e-07
2.0194084e-06
2.1014003e-06
1.6449528e-06
1.5564136e-06
1.4440775e-06
1.4443436e-06
1.4808179e-06
1.5710456e-06
1.6967522e-06
1.8563452e-06
2.0432912e-06
2.2591568e-06
2.5034916e-06
2.777414e-06
3.0826296e-06
3.4214712e-06
3.7966912e-06
4.2114944e-06
4.669565e-06
5.1751587e-06
5.7332109e-06
6.3495019e-06
7.0309068e-06
7.7857177e-06
8.624047e-06
9.5583484e-06
1.0604063e-05
1.1780418e-05
1.3111394e-05
1.4626909e-05
1.636426e-05
1.8369824e-05
2.0701006e-05
2.3428774e-05
2.6641028e-05
3.0445631e-05
3.4974013e-05
4.0385886e-05
4.687764e-05
5.4689889e-05
6.4586413e-05
7.6063139e-05
8.9947197e-05
0.00010676058
0.00012713663
0.00015184355
0.00018181345
0.00021817784
0.00026230677
0.00031874694
0.00038422071
0.00046368804
0.00056016221
0.00067731618
0.00081963388
0.00099259907
0.0012018957
0.0012001306
0.001198337
0.0011965122
0.0011946515
0.00119275
0.0011908027
0.0011888045
0.0011867498
0.001184633
0.0011827001
0.0011810476
0.0011796405
0.0011784489
0.0011774452
0.001176603
0.0011759072
0.0011753551
0.0011749127
0.0011745061
0.0011742052
0.0011742498
0.0011743037
2.4856734e-07
1.5922053e-06
1.5363309e-06
1.3183534e-06
1.2377349e-06
1.1949321e-06
1.2224285e-06
1.2936446e-06
1.4079658e-06
1.5549498e-06
1.7309e-06
1.9331282e-06
2.1616352e-06
2.4171723e-06
2.7013341e-06
3.0155518e-06
3.3632853e-06
3.7468903e-06
4.169583e-06
4.6350667e-06
5.147622e-06
5.7121699e-06
6.33441e-06
7.0211449e-06
7.7805942e-06
8.6227881e-06
9.5601079e-06
1.0607924e-05
1.1785398e-05
1.3116459e-05
1.4630987e-05
1.6366242e-05
1.8368474e-05
2.0694865e-05
2.350465e-05
2.6730584e-05
3.0550908e-05
3.5096564e-05
4.0527788e-05
4.7042159e-05
5.4879994e-05
6.4331267e-05
7.5748288e-05
8.955938e-05
0.00010628219
0.00012654561
0.00015111227
0.00018252251
0.00021893472
0.00026310478
0.00031669695
0.00038173466
0.00046068024
0.0005565331
0.00067295102
0.00081440108
0.00098634894
0.0011954803
0.0011990031
0.0011972457
0.0011954592
0.0011936396
0.0011917826
0.0011898836
0.0011879382
0.0011859415
0.0011838885
0.0011820289
0.0011804416
0.0011790924
0.0011779517
0.0011769921
0.001176189
0.0011755286
0.0011750023
0.001174574
0.0011741941
0.0011739303
0.001173926
0.0011738839
3.2554437e-07
1.2816395e-06
1.128003e-06
1.0586986e-06
1.0134625e-06
1.0121463e-06
1.0624451e-06
1.1562359e-06
1.2856042e-06
1.4437999e-06
1.6273356e-06
1.8351726e-06
2.0677086e-06
2.3261285e-06
2.6121597e-06
2.9279104e-06
3.2758769e-06
3.6589228e-06
4.0803292e-06
4.5438323e-06
5.0536482e-06
5.6144407e-06
6.2314319e-06
6.9115642e-06
7.6630136e-06
8.4957646e-06
9.4221075e-06
1.0457293e-05
1.1620321e-05
1.2934924e-05
1.4430747e-05
1.6144721e-05
1.8122641e-05
2.0421211e-05
2.3110674e-05
2.6277416e-05
3.0026831e-05
3.4487335e-05
3.9817321e-05
4.6211188e-05
5.3903772e-05
6.3179415e-05
7.4961328e-05
8.8620331e-05
0.00010515599
0.00012518984
0.00014947601
0.00017892983
0.00021466274
0.00025802509
0.00031065847
0.00037456027
0.0004521627
0.00054643036
0.0006609806
0.00080023378
0.0009696004
0.0011757013
0.0011979014
0.0011961852
0.0011944417
0.0011926671
0.0011908576
0.0011890093
0.0011871182
0.0011851803
0.0011831915
0.0011813834
0.0011798421
0.0011785336
0.0011774281
0.0011764986
0.0011757223
0.0011750851
0.001174573
0.0011741521
0.0011737932
0.0011735586