/*--------------------------------*- C++ -*----------------------------------*\
  =========                 |
  \\      /  F ield         | OpenFOAM: The Open Source CFD Toolbox
   \\    /   O peration     | Website:  https://openfoam.org
    \\  /    A nd           | Version:  6
     \\/     M anipulation  |
\*---------------------------------------------------------------------------*/
FoamFile
{
    version     2.0;
    format      ascii;
    class       volScalarField;
    location    "550";
    object      k;
}
// * * * * * * * * * * * * * * * * * * * * * * * * * * * * * * * * * * * * * //

dimensions      [0 2 -2 0 0 0 0];

internalField   nonuniform List<scalar> 
16000
(
0.12372799
0.031733517
0.021490551
0.017624526
0.015219341
0.014310254
0.013303952
0.012961219
0.012496805
0.012276123
0.01202388
0.011857194
0.011697574
0.011570583
0.011458121
0.011365797
0.011288589
0.011223607
0.011168265
0.011120805
0.011079774
0.011044078
0.011012825
0.010985314
0.010960973
0.010939337
0.010920021
0.010902705
0.010887121
0.010873042
0.010860273
0.010848649
0.010838023
0.010828267
0.010819264
0.01081091
0.010803107
0.010795763
0.010788793
0.010782115
0.010775648
0.010769319
0.010763054
0.010756781
0.01075043
0.010743932
0.010737218
0.010730219
0.010722865
0.010715086
0.010706811
0.010697967
0.010688477
0.010678257
0.010667211
0.010655206
0.010642066
0.010627547
0.010611218
0.010591891
0.010567989
0.01053916
0.010504883
0.010463925
0.010415732
0.010361568
0.010304986
0.010251425
0.010203324
0.010162422
0.01012554
0.010097793
0.010069099
0.010053816
0.01003218
0.010045805
0.010028445
0.010110018
0.010031567
0.010110804
0.10507337
0.03224455
0.020967337
0.017496651
0.015027363
0.014228271
0.013201846
0.012890762
0.012422598
0.012208404
0.01195834
0.011792146
0.011635808
0.011509259
0.011404145
0.011317874
0.011245721
0.011185005
0.011133299
0.011088962
0.011050633
0.011017288
0.010988088
0.010962378
0.010939618
0.010919374
0.010901282
0.010885043
0.010870402
0.010857145
0.010845089
0.010834077
0.010823973
0.010814653
0.010806008
0.01079794
0.010790356
0.01078317
0.010776303
0.010769677
0.010763217
0.010756854
0.010750518
0.010744144
0.010737665
0.010731016
0.010724133
0.010716951
0.010709404
0.010701426
0.010692947
0.010683898
0.010674204
0.010663784
0.010652547
0.010640378
0.010627119
0.010612572
0.010596492
0.010578523
0.010557874
0.010531924
0.010500383
0.010461896
0.010415649
0.01036243
0.010305846
0.010251553
0.010203095
0.010161392
0.010124735
0.010095683
0.0100688
0.010053378
0.010031844
0.010038951
0.010024282
0.010098081
0.010029866
0.010109691
0.091096144
0.032713427
0.020424438
0.017345131
0.014829189
0.014130673
0.013095836
0.012810214
0.012345272
0.012133864
0.011889778
0.011722237
0.011571101
0.011451528
0.011353512
0.011273079
0.011205809
0.011149214
0.011101023
0.011059704
0.011023983
0.010992906
0.010965685
0.010941706
0.010920464
0.010901551
0.010884627
0.010869407
0.010855655
0.010843167
0.010831771
0.010821319
0.010811681
0.010802743
0.010794402
0.010786564
0.010779143
0.010772059
0.010765236
0.010758603
0.010752091
0.010745634
0.010739168
0.010732632
0.010725964
0.010719104
0.010711992
0.010704567
0.010696767
0.010688529
0.010679789
0.010670477
0.010660523
0.010649848
0.010638364
0.010625966
0.010612511
0.010597815
0.010581659
0.010563782
0.010543795
0.010520886
0.010492649
0.010457185
0.010413429
0.010361694
0.010305442
0.010250723
0.010201953
0.010159833
0.0101233
0.010093619
0.010067648
0.010052291
0.010031604
0.010034571
0.010021902
0.010087578
0.010027874
0.010100499
0.081780802
0.032939794
0.019881674
0.017170054
0.014629668
0.014015842
0.012988718
0.012717958
0.012265617
0.012051364
0.011818136
0.011649163
0.011508594
0.01139737
0.011306198
0.011231382
0.011168822
0.011116196
0.011071392
0.011032978
0.010999767
0.010970867
0.010945544
0.01092322
0.010903425
0.010885775
0.010869951
0.010855687
0.01084276
0.01083098
0.010820182
0.010810228
0.010800996
0.010792379
0.01078428
0.010776612
0.010769294
0.010762252
0.010755414
0.010748716
0.010742093
0.010735484
0.010728831
0.010722077
0.010715165
0.010708041
0.010700647
0.010692927
0.010684824
0.010676277
0.010667226
0.010657605
0.010647345
0.01063637
0.010624596
0.010611922
0.010598219
0.010583314
0.010566999
0.01054904
0.010529134
0.010506801
0.010481074
0.010449272
0.01040866
0.010359027
0.010303557
0.010248709
0.010199808
0.010157532
0.010121138
0.010091147
0.010065894
0.010049305
0.010031249
0.010032143
0.010020081
0.010075929
0.010026206
0.010094397
0.07361013
0.03281288
0.019350334
0.016969792
0.01443017
0.01388296
0.012880919
0.012613492
0.012183601
0.011960629
0.011743005
0.011580522
0.011450113
0.011346889
0.011262302
0.011192886
0.01113486
0.011086051
0.011044507
0.011008883
0.010978082
0.010951266
0.010927755
0.010907007
0.010888582
0.010872121
0.010857326
0.010843949
0.010831777
0.010820634
0.010810365
0.010800841
0.010791946
0.010783581
0.010775654
0.010768087
0.010760803
0.010753733
0.010746814
0.010739984
0.010733184
0.010726361
0.010719458
0.010712426
0.010705212
0.010697765
0.010690034
0.010681966
0.010673507
0.010664602
0.010655192
0.010645215
0.010634604
0.010623285
0.010611177
0.010598184
0.010584187
0.010569023
0.010552494
0.010534379
0.010514409
0.010492199
0.010467125
0.01043792
0.010401165
0.010354323
0.010300149
0.010245481
0.010196652
0.010154458
0.01011831
0.010088294
0.01006363
0.01004632
0.010030403
0.010029484
0.010018729
0.010065211
0.01002495
0.010084809
0.066442051
0.032181328
0.018842692
0.016742713
0.014232461
0.013730896
0.012773083
0.01249605
0.01209913
0.011868016
0.011666824
0.011516392
0.011395727
0.011300158
0.011221893
0.011157657
0.011103983
0.011058837
0.011020416
0.010987464
0.010958963
0.010934134
0.010912341
0.010893081
0.010875941
0.010860588
0.010846741
0.010834169
0.010822674
0.010812089
0.01080227
0.010793096
0.010784459
0.010776267
0.010768436
0.010760891
0.010753565
0.010746395
0.010739322
0.01073229
0.010725247
0.010718142
0.010710928
0.010703558
0.010695984
0.01068816
0.01068004
0.010671575
0.010662714
0.010653406
0.010643594
0.01063322
0.010622218
0.010610519
0.010598042
0.010584695
0.010570364
0.010554902
0.010538116
0.010519797
0.010499694
0.01047747
0.010452626
0.010424313
0.010390775
0.010347502
0.010295212
0.010241049
0.010192512
0.01015062
0.010114833
0.010085027
0.01006089
0.010043213
0.010029013
0.010026544
0.010017584
0.010056449
0.01002376
0.010077903
0.060155712
0.031134571
0.018364366
0.016486643
0.014038394
0.013558647
0.012665748
0.012365118
0.012011333
0.011781373
0.011595865
0.011456884
0.011345536
0.011257281
0.011185067
0.011125789
0.011076281
0.011034637
0.010999199
0.010968793
0.010942477
0.010919527
0.010899352
0.010881483
0.010865534
0.010851196
0.010838206
0.010826348
0.010815439
0.010805321
0.010795862
0.010786948
0.01077848
0.010770373
0.01076255
0.010754944
0.010747493
0.010740142
0.010732837
0.010725529
0.010718171
0.010710719
0.01070313
0.010695361
0.010687372
0.01067912
0.010670562
0.010661653
0.010652348
0.010642595
0.010632344
0.010621537
0.010610111
0.010597999
0.010585122
0.010571391
0.010556698
0.010540904
0.010523829
0.010505268
0.01048499
0.010462685
0.010437921
0.01041003
0.010377791
0.010338455
0.010288734
0.010235418
0.010187403
0.010146024
0.010110743
0.010081339
0.010057713
0.010040005
0.010027084
0.010023231
0.010016453
0.010048659
0.010022574
0.010070515
0.054643232
0.030027299
0.017904396
0.016199891
0.01384982
0.013365719
0.012559313
0.01223765
0.011918388
0.011700767
0.011530182
0.011402079
0.011299618
0.01121834
0.011151905
0.011097361
0.011051828
0.011013521
0.010980918
0.010952925
0.010928672
0.010907484
0.010888816
0.010872229
0.010857366
0.010843937
0.010831699
0.010820452
0.010810023
0.01080027
0.010791068
0.010782311
0.010773912
0.010765792
0.010757881
0.010750121
0.010742457
0.010734839
0.010727221
0.010719561
0.010711818
0.010703951
0.010695926
0.010687703
0.010679246
0.010670517
0.010661477
0.010652085
0.010642298
0.010632069
0.010621347
0.010610078
0.010598202
0.010585652
0.010572352
0.010558215
0.010543137
0.010526988
0.010509598
0.01049077
0.010470285
0.010447859
0.010423106
0.010395467
0.010364034
0.010327085
0.010280741
0.010228637
0.010181375
0.010140711
0.010106092
0.010077259
0.010054161
0.010036681
0.010024722
0.010019562
0.010015203
0.010041197
0.010021109
0.010063787
0.04980381
0.029012485
0.017456843
0.015881984
0.01366812
0.013152328
0.012452253
0.012118472
0.011826441
0.011626273
0.011469841
0.011352065
0.01125806
0.011183426
0.011122495
0.011072459
0.011030705
0.010995562
0.010965638
0.010939916
0.010917591
0.010898038
0.010880751
0.010865325
0.010851426
0.010838786
0.010827181
0.010816424
0.010806358
0.01079685
0.010787788
0.010779075
0.010770633
0.010762391
0.010754289
0.010746275
0.010738303
0.01073033
0.010722317
0.01071423
0.010706031
0.010697687
0.010689167
0.010680438
0.010671467
0.010662221
0.010652663
0.010642755
0.010632457
0.010621724
0.010610509
0.010598757
0.010586411
0.010573406
0.010559667
0.01054511
0.010529633
0.010513113
0.010495392
0.01047628
0.01045557
0.010432998
0.010408213
0.010380731
0.010349818
0.010314208
0.010271272
0.010220776
0.010174492
0.010134736
0.010100941
0.010072829
0.010050317
0.010033266
0.010022044
0.010016166
0.010013804
0.010034166
0.010019521
0.010056899
0.045546969
0.028067798
0.017024938
0.015532132
0.01349422
0.012951966
0.012342053
0.012008148
0.011741704
0.011557966
0.011414915
0.011306936
0.011220953
0.011152635
0.011096927
0.011051167
0.011012988
0.010980829
0.010953418
0.010929809
0.010909264
0.010891201
0.010875155
0.010860748
0.010847674
0.010835685
0.010824574
0.010814169
0.010804329
0.010794933
0.010785879
0.010777083
0.010768476
0.010759996
0.010751592
0.010743222
0.010734846
0.010726431
0.010717943
0.010709354
0.010700635
0.010691757
0.010682692
0.010673413
0.01066389
0.010654093
0.010643989
0.010633542
0.010622713
0.01061146
0.010599736
0.01058749
0.010574664
0.010561194
0.010547008
0.010532023
0.010516142
0.010499245
0.010481185
0.010461782
0.010440838
0.010418108
0.010393271
0.010365898
0.010335378
0.010300762
0.010260382
0.010211934
0.010166842
0.010128179
0.010095367
0.01006811
0.010046269
0.010029794
0.010019142
0.010013015
0.010012257
0.010027723
0.010017813
0.010050062
0.041794909
0.027172169
0.016609696
0.015148991
0.013326665
0.012765087
0.012225577
0.011906656
0.011664175
0.011495915
0.011365483
0.011266789
0.011188396
0.011126065
0.011075293
0.011033571
0.010998751
0.010969382
0.0109443
0.010922633
0.010903698
0.01088696
0.01087199
0.010858441
0.01084603
0.01083453
0.010823754
0.010813545
0.010803776
0.010794342
0.010785153
0.010776136
0.010767232
0.010758392
0.010749574
0.010740743
0.01073187
0.010722928
0.010713891
0.010704736
0.01069544
0.010685979
0.01067633
0.010666467
0.010656365
0.010645996
0.010635328
0.010624328
0.010612959
0.010601179
0.010588942
0.010576198
0.01056289
0.010548956
0.010534323
0.010518912
0.010502627
0.010485356
0.010466959
0.010447264
0.010426088
0.010403199
0.010378304
0.010351017
0.010320812
0.010286922
0.010248119
0.010202235
0.010158532
0.010121134
0.010089456
0.010063176
0.010042105
0.010026308
0.010016117
0.010010105
0.010010592
0.010022096
0.0100162
0.010043657
0.038480148
0.026303318
0.016213023
0.01473167
0.013163444
0.012592411
0.012105338
0.011813965
0.011593863
0.011440194
0.011321633
0.011231725
0.01116049
0.011103814
0.011057685
0.011019747
0.010988057
0.010961264
0.010938305
0.010918381
0.010900864
0.010885258
0.010871174
0.010858292
0.010846356
0.01083516
0.010824535
0.010814344
0.010804476
0.010794839
0.010785359
0.010775976
0.010766643
0.01075732
0.010747977
0.010738588
0.01072913
0.010719586
0.010709936
0.010700162
0.010690245
0.010680167
0.010669906
0.010659439
0.010648744
0.010637793
0.010626557
0.010615003
0.010603095
0.010590791
0.010578047
0.010564812
0.01055103
0.010536639
0.01052157
0.010505742
0.010489064
0.010471428
0.010452702
0.010432726
0.010411326
0.010388288
0.01036334
0.010336137
0.010306219
0.010272946
0.010235353
0.01019183
0.010149693
0.010113714
0.010083305
0.010058109
0.010037914
0.010022863
0.010013075
0.010007412
0.010008812
0.010017387
0.010014694
0.010038274
0.035543499
0.025437451
0.015836693
0.014350612
0.013001441
0.012434583
0.011995768
0.011730034
0.011530783
0.011390874
0.011283455
0.011201844
0.011137335
0.011085973
0.011044177
0.011009753
0.010980937
0.010956482
0.010935417
0.010917007
0.010900679
0.010885981
0.010872558
0.010860123
0.010848444
0.010837339
0.010826661
0.010816292
0.010806137
0.010796124
0.010786194
0.010776298
0.010766403
0.010756482
0.010746512
0.010736477
0.010726362
0.010716156
0.010705844
0.010695414
0.010684849
0.010674135
0.010663251
0.010652176
0.010640888
0.01062936
0.010617565
0.010605468
0.010593033
0.01058022
0.010566984
0.010553274
0.010539035
0.010524205
0.010508716
0.010492489
0.010475436
0.010457453
0.010438416
0.010418176
0.010396569
0.010373398
0.010348414
0.010321306
0.010291669
0.010258966
0.010222434
0.01018089
0.01014047
0.010106043
0.010077018
0.010053002
0.010033781
0.010019514
0.010010111
0.01000492
0.010006875
0.010013436
0.010013293
0.010033634
0.03293423
0.024549782
0.015479795
0.014003625
0.012836199
0.012291176
0.011896664
0.011654846
0.011474987
0.011348042
0.011251051
0.01117725
0.011119024
0.011072621
0.011034835
0.011003626
0.010977397
0.010955
0.010935555
0.010918388
0.01090298
0.010888924
0.0108759
0.010863655
0.010851986
0.010840736
0.010829781
0.010819025
0.010808392
0.010797827
0.010787288
0.010776742
0.010766166
0.010755545
0.010744865
0.010734117
0.010723293
0.010712386
0.010701386
0.010690282
0.010679063
0.010667712
0.010656212
0.01064454
0.010632675
0.010620591
0.010608257
0.01059564
0.010582704
0.010569407
0.010555704
0.010541545
0.010526874
0.01051163
0.010495746
0.010479145
0.010461741
0.010443436
0.010424113
0.010403632
0.010381843
0.010358564
0.010333568
0.010306576
0.010277229
0.01024507
0.010209487
0.010169607
0.010131023
0.010098254
0.010070704
0.01004795
0.010029785
0.010016321
0.01000731
0.010002637
0.010004773
0.010009504
0.01001195
0.010029794
0.030608435
0.023612674
0.015141163
0.013688992
0.012661385
0.012161756
0.011807852
0.01158838
0.011426529
0.011311781
0.011224518
0.011158032
0.011105649
0.01106382
0.011029678
0.011001337
0.010977358
0.010956689
0.010938536
0.010922289
0.010907486
0.01089376
0.010880836
0.010868494
0.010856563
0.010844914
0.010833449
0.010822095
0.010810796
0.010799515
0.010788226
0.010776911
0.010765559
0.010754162
0.010742715
0.010731215
0.010719656
0.010708036
0.010696345
0.010684577
0.010672717
0.010660751
0.01064866
0.010636421
0.01062401
0.010611401
0.010598563
0.010585461
0.010572058
0.010558312
0.010544176
0.010529601
0.010514531
0.010498907
0.01048266
0.010465716
0.010447994
0.010429398
0.010409819
0.010389129
0.010367188
0.01034383
0.010318853
0.010292005
0.010262968
0.010231347
0.010196638
0.01015818
0.01012152
0.010090487
0.010064476
0.010043046
0.010025999
0.010013349
0.010004761
0.010000579
0.010002638
0.010006077
0.010010508
0.010026503
0.028528511
0.022596093
0.014818901
0.013405999
0.012497249
0.012045911
0.011729202
0.011530628
0.011385477
0.011282168
0.011203966
0.01114428
0.011097252
0.011059559
0.011028636
0.011002756
0.010980623
0.010961287
0.010944037
0.010928331
0.010913762
0.010900017
0.010886859
0.010874109
0.010861631
0.010849328
0.010837127
0.010824978
0.010812847
0.010800715
0.010788568
0.010776401
0.010764211
0.010751998
0.010739762
0.010727501
0.010715215
0.010702898
0.010690543
0.010678141
0.010665679
0.010653139
0.0106405
0.010627737
0.010614826
0.010601738
0.010588441
0.010574899
0.010561073
0.010546919
0.010532392
0.010517442
0.010502014
0.010486047
0.010469475
0.010452228
0.010434224
0.010415374
0.010395577
0.010374712
0.010352655
0.010329254
0.01030433
0.010277659
0.010248963
0.010217894
0.010184021
0.010146819
0.010112132
0.010082877
0.010058442
0.010038377
0.010022482
0.010010654
0.010002544
0.0099987868
0.010000507
0.01000303
0.010008799
0.010023512
0.026662896
0.021467979
0.014509879
0.013153014
0.012350412
0.011943312
0.011660651
0.01148157
0.011351881
0.011259307
0.011189465
0.011136008
0.011093783
0.011059709
0.011031501
0.011007589
0.01098682
0.010968344
0.010951542
0.01093594
0.010921194
0.010907047
0.010893308
0.010879838
0.010866541
0.010853347
0.010840213
0.010827111
0.010814024
0.010800947
0.010787879
0.010774822
0.010761779
0.010748753
0.010735745
0.010722756
0.010709781
0.010696815
0.010683848
0.010670868
0.01065786
0.010644804
0.010631675
0.010618448
0.010605094
0.010591583
0.01057788
0.01056395
0.010549751
0.01053524
0.010520369
0.01050509
0.010489348
0.010473082
0.01045623
0.010438721
0.010420479
0.010401418
0.010381443
0.010360446
0.01033831
0.010314904
0.010290069
0.010263612
0.010235291
0.010204802
0.010171765
0.010135728
0.010103027
0.010075555
0.010052703
0.010034019
0.010019278
0.01000827
0.010000703
0.0099973176
0.009998513
0.010000303
0.010006942
0.010020773
0.024986162
0.02019556
0.014207898
0.012928313
0.012220176
0.011853698
0.011602203
0.011441241
0.011325862
0.011243246
0.011181
0.011133106
0.011095031
0.011063955
0.01103785
0.011015313
0.010995333
0.010977172
0.010960299
0.010944326
0.010928972
0.010914038
0.010899382
0.010884909
0.010870558
0.010856288
0.010842081
0.010827926
0.01081382
0.010799768
0.010785775
0.010771845
0.010757985
0.010744195
0.010730476
0.010716824
0.010703232
0.010689692
0.010676188
0.010662706
0.010649226
0.010635726
0.010622178
0.010608554
0.010594822
0.010580951
0.010566904
0.010552642
0.010538126
0.010523311
0.010508149
0.010492591
0.010476584
0.010460069
0.010442983
0.01042526
0.010406826
0.010387601
0.010367495
0.010346409
0.010324239
0.010300867
0.010276157
0.010249945
0.010222031
0.010192156
0.010159988
0.010125102
0.010094366
0.010068645
0.010047348
0.01003003
0.01001642
0.010006222
0.0099992453
0.009996182
0.0099968015
0.0099980856
0.010005232
0.010018103
0.023479569
0.018957524
0.013901347
0.012730507
0.012105881
0.011776633
0.011553543
0.011409702
0.011307465
0.011233921
0.011178385
0.011135248
0.011100528
0.011071687
0.011046948
0.011025086
0.011005236
0.010986786
0.010969302
0.010952477
0.010936102
0.010920035
0.010904185
0.010888495
0.010872934
0.010857486
0.010842148
0.010826921
0.010811811
0.010796823
0.010781965
0.010767238
0.010752645
0.010738184
0.010723849
0.010709632
0.010695521
0.010681502
0.010667556
0.010653662
0.010639797
0.010625935
0.010612046
0.010598098
0.01058406
0.010569895
0.010555567
0.010541036
0.010526262
0.010511199
0.0104958
0.010480017
0.010463796
0.010447082
0.010429814
0.010411928
0.010393353
0.010374014
0.010353827
0.010332701
0.010310543
0.010287247
0.010262696
0.010236756
0.010209265
0.010180026
0.010148773
0.010115121
0.010086294
0.010062259
0.010042453
0.010026447
0.01001392
0.010004515
0.0099981308
0.0099953113
0.0099954259
0.0099964644
0.010003525
0.010015361
0.022126267
0.017907696
0.013588555
0.012558785
0.012007385
0.011711655
0.011514797
0.011387036
0.011296587
0.011231011
0.011181104
0.011141719
0.011109385
0.011081866
0.01105764
0.011035678
0.011015268
0.010995923
0.010977312
0.010959213
0.010941485
0.01092404
0.010906825
0.010889815
0.010873
0.010856378
0.010839952
0.010823727
0.010807707
0.010791895
0.010776291
0.010760893
0.010745695
0.010730688
0.010715861
0.010701199
0.010686683
0.010672294
0.010658008
0.010643799
0.010629643
0.010615506
0.010601356
0.010587162
0.010572889
0.010558499
0.010543956
0.010529218
0.010514245
0.010498991
0.010483412
0.010467458
0.010451078
0.010434219
0.010416821
0.010398824
0.010380162
0.010360762
0.010340549
0.010319436
0.010297339
0.010274165
0.010249809
0.010224159
0.010197089
0.010168459
0.010138111
0.010105932
0.010078936
0.010056497
0.010038088
0.010023298
0.010011773
0.010003131
0.0099972962
0.0099946328
0.0099944081
0.00999538
0.010001671
0.010012371
0.020904934
0.017013282
0.013310879
0.012408573
0.011922896
0.011658531
0.011485908
0.011372713
0.011292534
0.011233608
0.01118804
0.011151214
0.011120148
0.011092935
0.011068327
0.011045488
0.011023869
0.011003107
0.010982971
0.010963316
0.010944054
0.010925136
0.010906537
0.010888248
0.010870265
0.010852588
0.010835217
0.01081815
0.010801386
0.010784916
0.010768733
0.010752825
0.010737178
0.010721774
0.010706595
0.010691619
0.010676821
0.010662176
0.010647656
0.010633233
0.010618876
0.010604551
0.010590222
0.010575858
0.010561421
0.010546875
0.01053218
0.010517298
0.010502185
0.010486799
0.010471095
0.010455026
0.010438541
0.01042159
0.010404118
0.010386065
0.01036737
0.010347966
0.010327781
0.010306739
0.01028476
0.01026176
0.010237645
0.010212314
0.010185655
0.010157543
0.010127841
0.010097653
0.010072388
0.010051444
0.010034322
0.010020629
0.010009996
0.010002048
0.0099967227
0.0099941819
0.0099935897
0.0099941531
0.009999553
0.010008771
0.019796635
0.016227819
0.013064874
0.012274356
0.011851092
0.011617504
0.011466348
0.011365911
0.011294122
0.011240205
0.011197434
0.011161793
0.011130783
0.011102857
0.011077028
0.011052657
0.011029346
0.011006843
0.010984996
0.010963712
0.010942939
0.010922644
0.01090281
0.010883427
0.010864485
0.010845973
0.010827881
0.010810195
0.0107929
0.010775978
0.01075941
0.010743173
0.010727245
0.0107116
0.010696212
0.010681053
0.010666095
0.010651307
0.010636658
0.010622116
0.010607648
0.010593217
0.010578787
0.010564325
0.010549794
0.010535157
0.010520374
0.010505407
0.010490213
0.010474752
0.010458979
0.010442849
0.010426315
0.010409328
0.010391834
0.010373781
0.010355109
0.010335757
0.01031566
0.010294746
0.010272944
0.010250179
0.010226366
0.010201416
0.01017523
0.0101477
0.010118707
0.010090371
0.010066715
0.010047158
0.010031221
0.010018513
0.010008656
0.010001311
0.009996423
0.0099939727
0.0099930696
0.0099932917
0.0099977099
0.010004912
0.018790354
0.015521424
0.012850265
0.012158754
0.011793246
0.011587646
0.01145479
0.011364781
0.01129913
0.011248296
0.011206638
0.011170787
0.011138729
0.011109253
0.011081613
0.011055344
0.011030162
0.011005893
0.010982427
0.010959695
0.01093765
0.010916257
0.010895485
0.010875311
0.010855707
0.010836649
0.010818108
0.010800058
0.010782469
0.010765312
0.010748556
0.010732173
0.010716129
0.010700393
0.010684934
0.010669719
0.010654714
0.010639888
0.010625206
0.010610636
0.010596138
0.010581678
0.01056722
0.01055273
0.01053817
0.010523505
0.010508694
0.010493701
0.010478484
0.010463004
0.010447217
0.010431082
0.010414553
0.010397583
0.010380124
0.010362124
0.010343531
0.010324287
0.010304333
0.010283604
0.010262037
0.010239563
0.010216108
0.010191595
0.010165937
0.01013904
0.010110805
0.010084141
0.010061941
0.010043643
0.010028781
0.010016961
0.010007801
0.010000998
0.0099964798
0.0099940902
0.0099930219
0.0099931821
0.0099968331
0.010002595
0.017879409
0.014870356
0.01266475
0.012062378
0.011747347
0.011566326
0.011448265
0.011365938
0.011304017
0.011254329
0.011212259
0.011175089
0.011141248
0.011109807
0.011080205
0.01105209
0.011025243
0.010999515
0.010974803
0.010951029
0.010928127
0.010906044
0.010884727
0.01086413
0.010844207
0.010824915
0.01080621
0.010788053
0.010770402
0.010753218
0.010736464
0.010720101
0.010704094
0.010688405
0.010673
0.010657842
0.010642895
0.010628126
0.0106135
0.010598981
0.01058453
0.010570113
0.010555696
0.010541243
0.010526718
0.010512084
0.010497306
0.010482343
0.01046716
0.010451715
0.01043597
0.010419884
0.010403414
0.010386516
0.010369146
0.010351255
0.010332795
0.010313713
0.010293956
0.010273466
0.010252185
0.010230053
0.010207007
0.010182976
0.010157888
0.010131664
0.010104217
0.010079008
0.010058074
0.010040871
0.010026944
0.010015895
0.010007348
0.010001028
0.0099968243
0.0099944831
0.0099933363
0.0099935001
0.0099965172
0.010001039
0.017063612
0.014314351
0.012506898
0.011982332
0.011710332
0.011549499
0.011442274
0.011364704
0.011304242
0.011254118
0.011210637
0.011171649
0.011135921
0.011102701
0.011071522
0.011042071
0.011014131
0.01098754
0.010962168
0.01093791
0.010914673
0.010892375
0.010870943
0.010850308
0.01083041
0.010811189
0.010792592
0.010774567
0.010757066
0.010740045
0.01072346
0.010707269
0.010691433
0.010675913
0.010660672
0.010645671
0.010630874
0.010616248
0.010601758
0.010587364
0.010573031
0.010558725
0.010544413
0.01053006
0.01051563
0.010501087
0.010486397
0.010471522
0.010456427
0.010441074
0.010425425
0.010409442
0.010393085
0.010376313
0.010359084
0.010341354
0.010323079
0.010304211
0.010284701
0.010264498
0.01024355
0.010221804
0.010199204
0.010175691
0.010151202
0.010125669
0.010099023
0.01007502
0.010055134
0.010038837
0.010025679
0.010015262
0.010007224
0.010001305
0.0099973533
0.0099950606
0.0099939068
0.0099940932
0.0099965814
0.010000106
0.016351822
0.013862059
0.01237481
0.011914278
0.011676543
0.011530967
0.011430801
0.011355642
0.011295269
0.011244143
0.011199262
0.011158867
0.01112192
0.011087728
0.011055827
0.01102588
0.010997637
0.010970903
0.010945516
0.010921343
0.010898268
0.01087619
0.01085502
0.010834677
0.010815087
0.010796185
0.010777909
0.010760205
0.010743019
0.010726305
0.010710017
0.010694112
0.010678549
0.01066329
0.010648296
0.010633531
0.010618959
0.010604545
0.010590254
0.010576049
0.010561893
0.010547757
0.010533607
0.010519409
0.010505128
0.010490731
0.010476184
0.010461451
0.010446498
0.01043129
0.01041579
0.010399963
0.010383771
0.010367176
0.01035014
0.010332621
0.010314579
0.010295972
0.010276753
0.010256878
0.010236301
0.010214975
0.010192851
0.010169877
0.010145999
0.010121158
0.010095295
0.010072218
0.010053135
0.010037528
0.010024952
0.010015011
0.010007357
0.010001738
0.0099979609
0.0099957018
0.0099945688
0.0099947591
0.0099967988
0.0099995375
0.015657846
0.013462658
0.012250858
0.011843781
0.01163301
0.011499747
0.011405211
0.01133237
0.01127273
0.011221645
0.01117652
0.011135786
0.011098739
0.01106468
0.011033088
0.011003578
0.010975858
0.010949698
0.010924914
0.010901357
0.010878901
0.010857438
0.010836877
0.010817127
0.010798113
0.010779764
0.010762018
0.010744818
0.010728114
0.010711856
0.010696
0.010680505
0.010665331
0.01065044
0.010635794
0.010621359
0.0106071
0.010592984
0.010578975
0.010565036
0.010551136
0.010537246
0.010523333
0.010509363
0.010495304
0.010481123
0.010466788
0.010452266
0.010437522
0.010422525
0.01040724
0.010391633
0.010375668
0.01035931
0.010342524
0.010325272
0.010307515
0.010289215
0.010270331
0.010250823
0.010230649
0.010209769
0.01018814
0.010165718
0.010142456
0.010118308
0.010093224
0.010070742
0.010052175
0.010037008
0.010024797
0.010015147
0.010007725
0.010002275
0.0099985718
0.0099962984
0.00999518
0.0099953887
0.0099971192
0.009999337
0.014472756
0.012826686
0.011992236
0.011684445
0.011516313
0.011406603
0.011326819
0.011264231
0.011212451
0.011167921
0.011128582
0.011093152
0.011060529
0.011030157
0.011001665
0.010974777
0.01094928
0.010925008
0.010901822
0.010879608
0.010858271
0.010837757
0.010818093
0.01079919
0.01078097
0.010763363
0.01074631
0.010729756
0.010713653
0.010697955
0.010682621
0.010667612
0.010652891
0.010638424
0.010624176
0.010610116
0.010596213
0.010582435
0.010568747
0.010555117
0.010541516
0.010527915
0.01051428
0.010500583
0.01048679
0.010472871
0.010458795
0.01044453
0.010430044
0.010415306
0.010400284
0.010384943
0.010369253
0.010353178
0.010336684
0.010319737
0.0103023
0.010284338
0.010265812
0.010246684
0.010226917
0.010206474
0.010185315
0.0101634
0.01014069
0.010117141
0.010092711
0.010070519
0.010052198
0.010037232
0.010025173
0.010015628
0.010008268
0.010002826
0.0099990516
0.0099966663
0.00999548
0.0099955378
0.0099967581
0.0099984267
0.014027451
0.012615472
0.011855512
0.011579346
0.011429294
0.011331594
0.011260203
0.01120387
0.01115684
0.011116022
0.011079635
0.011046598
0.011016214
0.010988023
0.010961691
0.010936964
0.010913639
0.01089155
0.010870557
0.01085054
0.010831392
0.010812993
0.010795169
0.010777876
0.010761071
0.010744717
0.010728775
0.010713213
0.010697996
0.010683093
0.010668476
0.010654114
0.010639979
0.010626043
0.01061228
0.010598665
0.010585192
0.010571836
0.010558561
0.010545339
0.010532139
0.01051893
0.010505681
0.010492363
0.010478946
0.010465398
0.01045169
0.010437792
0.010423672
0.010409301
0.010394647
0.010379679
0.010364364
0.010348672
0.010332568
0.010316019
0.010298991
0.010281449
0.010263357
0.010244678
0.010225376
0.010205415
0.010184758
0.010163368
0.010141205
0.010118229
0.010094399
0.010071925
0.010053397
0.010038275
0.010026094
0.01001645
0.010009004
0.010003467
0.0099995752
0.0099970803
0.0099958146
0.0099957063
0.009996581
0.0099980463
0.013599913
0.012400739
0.011683663
0.0114438
0.011315302
0.011233981
0.011174728
0.011127971
0.011088623
0.011054136
0.011023063
0.01099456
0.010968093
0.010943302
0.01091993
0.01089778
0.010876702
0.010856572
0.010837291
0.010818774
0.010800951
0.010783758
0.010767141
0.010751055
0.010735457
0.010720309
0.010705572
0.01069121
0.010677189
0.010663475
0.010650036
0.010636841
0.010623858
0.010611057
0.01059841
0.010585889
0.01057344
0.010561026
0.010548626
0.010536219
0.010523781
0.010511289
0.010498717
0.010486041
0.010473235
0.010460273
0.01044713
0.010433778
0.010420189
0.010406337
0.010392193
0.010377727
0.010362912
0.010347716
0.010332108
0.010316058
0.010299532
0.010282498
0.010264921
0.010246767
0.010227999
0.010208584
0.010188486
0.010167669
0.010146094
0.010123723
0.010100517
0.010077116
0.010057797
0.010042
0.01002924
0.010019098
0.010011217
0.01000529
0.010001044
0.0099982424
0.0099967033
0.0099962771
0.0099967851
0.0099980404
55.828755
101.34681
59.742507
40.141685
27.700243
19.286987
13.614142
9.7412508
7.0316503
5.0944463
3.6888278
2.6684048
1.9217386
1.3814787
0.9840002
0.69736633
0.48950201
0.34150592
0.23739619
0.16460571
0.11413814
0.079515423
0.056043169
0.040328099
0.029950148
0.023187305
0.018843815
0.016088922
0.014361208
0.013287172
0.012622098
0.012208712
0.011947938
0.011778573
0.011663576
0.011580975
0.011517977
0.011467237
0.011424563
0.011387601
0.01135492
0.011325644
0.011299247
0.011275248
0.011253291
0.011233034
0.011213842
0.011192961
0.011162643
0.011120362
0.011069501
0.011015011
0.010960537
0.010908238
0.010859595
0.010815088
0.010776935
0.010744015
0.010714196
0.01068706
0.010658146
0.010629649