/*--------------------------------*- C++ -*----------------------------------*\
  =========                 |
  \\      /  F ield         | OpenFOAM: The Open Source CFD Toolbox
   \\    /   O peration     | Website:  https://openfoam.org
    \\  /    A nd           | Version:  6
     \\/     M anipulation  |
\*---------------------------------------------------------------------------*/
FoamFile
{
    version     2.0;
    format      ascii;
    class       volScalarField;
    location    "550";
    object      nut;
}
// * * * * * * * * * * * * * * * * * * * * * * * * * * * * * * * * * * * * * //

dimensions      [0 2 -1 0 0 0 0];

internalField   nonuniform List<scalar> 
16000
(
4.9630905e-06
2.1131837e-05
2.3406911e-05
3.2962371e-05
2.825838e-05
3.6242768e-05
3.5469524e-05
4.0028408e-05
4.1059172e-05
4.1216107e-05
4.1765624e-05
4.0468185e-05
4.0573828e-05
3.9517492e-05
3.95125e-05
3.9023337e-05
3.9187335e-05
3.9223139e-05
3.9633728e-05
4.0084556e-05
4.0785981e-05
4.1610128e-05
4.2644722e-05
4.3851959e-05
4.5276912e-05
4.6923015e-05
4.8826651e-05
5.1014686e-05
5.3530979e-05
5.642355e-05
5.9754995e-05
6.3600584e-05
6.8053655e-05
7.3227994e-05
7.9263463e-05
8.6331837e-05
9.4644423e-05
0.00010446143
0.00011610319
0.00012996321
0.00014652552
0.00016638769
0.00019028492
0.00021912055
0.00025400327
0.0002962907
0.00034763693
0.00041004713
0.00048593479
0.00057817796
0.00069016921
0.0008258678
0.00098989395
0.0010403033
0.001041354
0.0010415344
0.0010410977
0.0010403242
0.0010393864
0.0010382772
0.0010369111
0.0010352676
0.0010333166
0.001030988
0.0010282485
0.0010251645
0.0010219303
0.0010188476
0.0010160531
0.0010136446
0.0010114442
0.0010097372
0.0010079566
0.0010069051
0.0010054682
0.0010059766
0.0010046993
0.0010089029
0.0010040362
0.0010078169
4.1424043e-06
2.090084e-05
2.1443582e-05
3.013578e-05
2.6069972e-05
3.2685619e-05
3.2648599e-05
3.5812439e-05
3.7490557e-05
3.6791095e-05
3.7726695e-05
3.608216e-05
3.6347937e-05
3.5170426e-05
3.5246734e-05
3.4752875e-05
3.4924383e-05
3.4938715e-05
3.5311645e-05
3.5709073e-05
3.6335737e-05
3.7069586e-05
3.799168e-05
3.9067227e-05
4.0336136e-05
4.1801598e-05
4.3495379e-05
4.5441465e-05
4.7678244e-05
5.0248111e-05
5.3205907e-05
5.6617715e-05
6.0565523e-05
6.51492e-05
7.0491701e-05
7.6743749e-05
8.4090258e-05
9.2758347e-05
0.00010302757
0.00011524168
0.00012982197
0.00014728755
0.00016827641
0.00019357125
0.00022413107
0.00026112961
0.00030599701
0.00036046891
0.0004266407
0.00050702427
0.00060460674
0.00072290807
0.00086606904
0.0010389532
0.0010402228
0.0010405423
0.0010401658
0.0010394053
0.0010384805
0.0010374446
0.0010362562
0.0010347701
0.0010329689
0.001030776
0.0010281438
0.0010251123
0.0010218782
0.0010187549
0.0010159405
0.0010134872
0.0010112991
0.0010095187
0.0010078394
0.0010067795
0.0010053478
0.0010054891
0.0010043613
0.0010081271
0.0010038296
0.0010076329
3.5427282e-06
2.0669454e-05
1.9876341e-05
2.7712107e-05
2.4329579e-05
2.9645717e-05
3.0503184e-05
3.2072894e-05
3.443674e-05
3.2725716e-05
3.4014507e-05
3.2009757e-05
3.241463e-05
3.1202478e-05
3.1344721e-05
3.0865094e-05
3.1043566e-05
3.1052661e-05
3.1396908e-05
3.1758076e-05
3.2326065e-05
3.2990479e-05
3.3822896e-05
3.4793657e-05
3.5937036e-05
3.7257074e-05
3.8781401e-05
4.0532032e-05
4.254293e-05
4.4852121e-05
4.7508381e-05
5.057069e-05
5.4112034e-05
5.8221251e-05
6.3007727e-05
6.8605613e-05
7.5179529e-05
8.2931305e-05
9.2108462e-05
0.00010301519
0.00011602431
0.00013159424
0.00015028701
0.0001727912
0.000199949
0.00023278969
0.0002725665
0.00032079978
0.00037932699
0.00045035629
0.00053652571
0.00064096462
0.00076737079
0.00092012633
0.001039085
0.0010395584
0.0010392498
0.0010384989
0.0010375692
0.0010365371
0.0010353837
0.0010340636
0.0010324431
0.0010304159
0.0010279206
0.0010249709
0.0010217551
0.0010186078
0.0010157758
0.0010132988
0.0010111172
0.0010093011
0.0010076723
0.0010066154
0.0010052306
0.0010051382
0.0010041212
0.0010074301
0.001003607
0.0010070016
3.1504478e-06
2.0365769e-05
1.854374e-05
2.5441894e-05
2.2693953e-05
2.6863175e-05
2.8424273e-05
2.8715885e-05
3.1472123e-05
2.9084544e-05
3.0518649e-05
2.8357978e-05
2.8829284e-05
2.7676527e-05
2.7837548e-05
2.7402766e-05
2.7574132e-05
2.7592167e-05
2.7908626e-05
2.8244419e-05
2.8762269e-05
2.9369976e-05
3.012668e-05
3.1009502e-05
3.2046861e-05
3.3244154e-05
3.462533e-05
3.6210986e-05
3.8031455e-05
4.0121262e-05
4.252424e-05
4.5293633e-05
4.8495193e-05
5.2209067e-05
5.6533712e-05
6.1589874e-05
6.7525769e-05
7.4523339e-05
8.2805694e-05
9.264587e-05
0.0001043781
0.00011841407
0.00013525755
0.00015552463
0.00017996821
0.00020950792
0.00024526276
0.00028859026
0.0003411326
0.00040486704
0.00048216411
0.00057585059
0.00068928233
0.00082644814
0.00099209971
0.0010385765
0.0010383474
0.0010376071
0.0010366679
0.0010356298
0.0010344793
0.0010331893
0.0010317055
0.0010298789
0.0010275561
0.001024722
0.0010215489
0.0010183939
0.0010155538
0.0010130674
0.0010108929
0.0010090587
0.0010074696
0.0010063426
0.0010051047
0.0010048949
0.0010039109
0.0010066681
0.0010034036
0.001006552
2.8258076e-06
1.9956298e-05
1.7456333e-05
2.3336829e-05
2.119199e-05
2.4320146e-05
2.6470483e-05
2.5670844e-05
2.8622601e-05
2.5771357e-05
2.7220726e-05
2.5089035e-05
2.5556305e-05
2.4507487e-05
2.4662012e-05
2.428785e-05
2.4446836e-05
2.4481558e-05
2.4773677e-05
2.5091662e-05
2.556753e-05
2.6128571e-05
2.6821516e-05
2.7630203e-05
2.8577704e-05
2.967079e-05
3.093032e-05
3.2375715e-05
3.403434e-05
3.5937839e-05
3.8125964e-05
4.0647216e-05
4.3561426e-05
4.6941512e-05
5.0877039e-05
5.5477946e-05
6.0879011e-05
6.7245566e-05
7.4780966e-05
8.3734101e-05
9.4407811e-05
0.00010717591
0.00012249622
0.00014092757
0.00016315216
0.00019000371
0.00022249616
0.00026186004
0.0003095854
0.00036746917
0.00043767187
0.00052278024
0.0006258804
0.00075064985
0.00090148804
0.0010375886
0.001037454
0.001036727
0.0010357754
0.001034727
0.0010335713
0.0010322863
0.0010308368
0.0010291517
0.0010270403
0.0010243594
0.0010212572
0.0010181112
0.0010152742
0.0010127914
0.0010106298
0.0010087932
0.0010072362
0.001006068
0.0010049494
0.0010046369
0.0010037256
0.0010059578
0.0010032251
0.001005916
2.5524764e-06
1.7836551e-05
1.6514714e-05
2.135159e-05
1.9819526e-05
2.1967106e-05
2.4620111e-05
2.2891273e-05
2.5887011e-05
2.2793007e-05
2.4151774e-05
2.2178486e-05
2.2595967e-05
2.1677226e-05
2.181041e-05
2.1503944e-05
2.1648819e-05
2.1703884e-05
2.1975642e-05
2.2281122e-05
2.272248e-05
2.324534e-05
2.3885284e-05
2.4632111e-05
2.5504441e-05
2.6510177e-05
2.7667694e-05
2.8995428e-05
3.0518364e-05
3.2265777e-05
3.4274102e-05
3.6587953e-05
3.9262338e-05
4.2364306e-05
4.5976202e-05
5.0199105e-05
5.515709e-05
6.1002165e-05
6.7921205e-05
7.6143996e-05
8.5948739e-05
9.7678626e-05
0.00011175445
0.00012869004
0.00014911102
0.0001737829
0.00020363647
0.00023980122
0.00028364639
0.00033682482
0.00040132808
0.00047954777
0.00057434777
0.00068915113
0.00082806143
0.00099599563
0.001036565
0.0010358562
0.0010348899
0.0010338285
0.0010326637
0.001031376
0.0010299371
0.0010282992
0.0010263638
0.0010238787
0.0010208797
0.0010177604
0.0010149384
0.0010124713
0.0010103287
0.0010085028
0.0010069744
0.0010057847
0.0010047618
0.0010043618
0.0010035511
0.0010053572
0.0010030526
0.0010054375
2.3039292e-06
1.6303247e-05
1.547038e-05
1.9471916e-05
1.857495e-05
1.9796322e-05
2.2858869e-05
2.0354586e-05
2.3271197e-05
2.0160173e-05
2.1355398e-05
1.9592322e-05
1.9933334e-05
1.9153205e-05
1.9257756e-05
1.9018026e-05
1.9148985e-05
1.9224194e-05
1.9479048e-05
1.9774941e-05
2.0187697e-05
2.0678649e-05
2.1274191e-05
2.1968917e-05
2.2777971e-05
2.3710034e-05
2.4781545e-05
2.6010075e-05
2.7418665e-05
2.903466e-05
3.0891758e-05
3.3031329e-05
3.5504469e-05
3.8373383e-05
4.1714483e-05
4.5621665e-05
5.0210198e-05
5.562131e-05
6.2028513e-05
6.9645998e-05
7.8732089e-05
8.9605489e-05
0.00010265699
0.00011836431
0.00013730786
0.00016019834
0.00018790034
0.00022146249
0.00026215757
0.00031152307
0.0003714145
0.00044406542
0.00053215791
0.00063890791
0.00076817531
0.00092460265
0.0010356747
0.0010349921
0.0010340093
0.0010329328
0.0010317562
0.001030462
0.0010290255
0.0010274087
0.0010255428
0.0010232737
0.0010204155
0.0010173417
0.0010145472
0.0010121073
0.0010099918
0.0010081873
0.0010066865
0.0010054942
0.0010045425
0.0010040646
0.0010033769
0.0010048118
0.0010028833
0.0010049392
2.0804156e-06
1.5822953e-05
1.4392957e-05
1.7702752e-05
1.7432454e-05
1.7783165e-05
2.1135045e-05
1.8086341e-05
2.0752085e-05
1.7821554e-05
1.8811995e-05
1.7287207e-05
1.7542039e-05
1.6898984e-05
1.697508e-05
1.6797877e-05
1.6917803e-05
1.7012113e-05
1.7254196e-05
1.7543011e-05
1.7932866e-05
1.8397616e-05
1.8956607e-05
1.9608047e-05
2.0364446e-05
2.123505e-05
2.2234774e-05
2.3380413e-05
2.4693478e-05
2.6199695e-05
2.7930587e-05
2.9924789e-05
3.2230242e-05
3.4905196e-05
3.8021194e-05
4.1666304e-05
4.5948648e-05
5.1000703e-05
5.6985069e-05
6.4103537e-05
7.2598149e-05
8.2767976e-05
9.4979728e-05
0.00010968192
0.00012741859
0.00014885626
0.00017480638
0.00020625246
0.00024438959
0.00029066195
0.00034681461
0.00041495185
0.00049760603
0.00059782123
0.00071925631
0.00086632165
0.0010347763
0.001034132
0.0010331317
0.0010320384
0.0010308484
0.0010295453
0.001028107
0.0010265018
0.0010246782
0.0010225389
0.0010198661
0.0010168578
0.0010141036
0.001011702
0.0010096221
0.0010078484
0.0010063762
0.001005196
0.0010042979
0.0010037469
0.0010031961
0.001004286
0.0010027017
0.0010044843
1.8881139e-06
1.5295503e-05
1.3408706e-05
1.6028757e-05
1.6365833e-05
1.5889052e-05
1.9402643e-05
1.6053283e-05
1.835605e-05
1.5728759e-05
1.6502736e-05
1.5223149e-05
1.5395601e-05
1.4880998e-05
1.4933863e-05
1.481323e-05
1.4926514e-05
1.5038476e-05
1.5272042e-05
1.5556007e-05
1.5928118e-05
1.6371758e-05
1.6901083e-05
1.7516967e-05
1.8229999e-05
1.9049708e-05
1.9989927e-05
2.1066728e-05
2.2300413e-05
2.3715392e-05
2.5341409e-05
2.7214863e-05
2.9381108e-05
3.1895186e-05
3.4824708e-05
3.8252946e-05
4.228229e-05
4.7038224e-05
5.2674115e-05
5.9382327e-05
6.7391602e-05
7.6985115e-05
8.8509994e-05
0.00010239176
0.00011914479
0.00013940013
0.0001639266
0.00019365505
0.00022971812
0.00027348462
0.00032661005
0.00039109324
0.00046934386
0.00056426415
0.00067934894
0.00081881639
0.00098774957
0.0010332734
0.0010322553
0.0010311441
0.0010299394
0.0010286259
0.0010271835
0.0010255845
0.0010237871
0.0010217196
0.0010192336
0.0010163127
0.001013611
0.0010112585
0.0010092232
0.0010074886
0.0010060483
0.0010048916
0.0010040348
0.0010034442
0.0010030075
0.0010037861
0.0010025169
0.0010040265
1.7208653e-06
1.4706119e-05
1.2483482e-05
1.4425943e-05
1.5360376e-05
1.4175635e-05
1.7642535e-05
1.4223125e-05
1.6125508e-05
1.3850385e-05
1.4418228e-05
1.3372894e-05
1.3474746e-05
1.3074862e-05
1.3111883e-05
1.304079e-05
1.3151988e-05
1.3279978e-05
1.3508854e-05
1.3789925e-05
1.4148882e-05
1.4575951e-05
1.5081723e-05
1.5668888e-05
1.6346747e-05
1.7124911e-05
1.8016416e-05
1.9036709e-05
2.0205133e-05
2.1545047e-05
2.3084768e-05
2.4858842e-05
2.6910553e-05
2.9292369e-05
3.2068727e-05
3.5319e-05
3.9141052e-05
4.3654871e-05
4.9005849e-05
5.5379666e-05
6.2994089e-05
7.2119442e-05
8.3086959e-05
9.630458e-05
0.00011226232
0.00013156264
0.00015494052
0.00018328421
0.00021767638
0.000259425
0.0003101131
0.00037165392
0.0004463569
0.00053700783
0.00064696701
0.00078029424
0.00094189212
0.0010324141
0.0010313785
0.0010302489
0.0010290289
0.0010277043
0.0010262565
0.001024661
0.0010228827
0.0010208677
0.0010185211
0.0010157119
0.0010130747
0.0010107814
0.0010087996
0.0010071117
0.0010057081
0.0010045834
0.0010037588
0.0010031555
0.0010028117
0.0010033216
0.0010023294
0.0010035773
1.5754542e-06
1.4026436e-05
1.1622593e-05
1.2884969e-05
1.4393493e-05
1.2623214e-05
1.584658e-05
1.257159e-05
1.4071431e-05
1.2162139e-05
1.2547736e-05
1.1714138e-05
1.1761001e-05
1.1459885e-05
1.1488916e-05
1.1460311e-05
1.1573587e-05
1.1716095e-05
1.1893671e-05
1.2165603e-05
1.250935e-05
1.291899e-05
1.3402152e-05
1.3962288e-05
1.4607496e-05
1.5347148e-05
1.6193467e-05
1.7161178e-05
1.8268651e-05
1.9538243e-05
2.0996981e-05
2.2677605e-05
2.4621556e-05
2.6878958e-05
2.951141e-05
3.2594808e-05
3.6222975e-05
4.0511495e-05
4.5902193e-05
5.2006562e-05
5.9303505e-05
6.8053201e-05
7.8573812e-05
9.1260306e-05
0.00010658282
0.00012512076
0.0001475829
0.00017482286
0.00020788396
0.0002480255
0.00029677238
0.00035596909
0.00042784418
0.00051508927
0.00062095543
0.00074937384
0.00090509927
0.0010315521
0.0010305002
0.0010293522
0.0010281169
0.001026781
0.0010253274
0.001023734
0.0010219705
0.001019993
0.0010177314
0.0010150624
0.0010125006
0.0010102762
0.0010083564
0.001006722
0.001005361
0.0010042742
0.0010034761
0.0010028811
0.0010026108
0.0010029055
0.0010021515
0.0010031575
1.448784e-06
1.3243041e-05
1.0816342e-05
1.1397358e-05
1.342906e-05
1.1212976e-05
1.4035182e-05
1.1075879e-05
1.2198505e-05
1.0642025e-05
1.0877297e-05
1.0227326e-05
1.0236149e-05
1.0018096e-05
9.9990635e-06
9.9890488e-06
1.0097933e-05
1.0248348e-05
1.0472801e-05
1.0751373e-05
1.1093879e-05
1.1497926e-05
1.196997e-05
1.2514461e-05
1.3139037e-05
1.385313e-05
1.4668568e-05
1.5599689e-05
1.6664254e-05
1.7883989e-05
1.9285156e-05
2.0899106e-05
2.2766061e-05
2.4934543e-05
2.7464149e-05
3.0428247e-05
3.3917694e-05
3.8045862e-05
4.2948445e-05
4.8793641e-05
5.578732e-05
6.4181081e-05
7.4858541e-05
8.7128495e-05
0.00010195351
0.00011989428
0.00014164023
0.00016801667
0.00020003675
0.0002389214
0.00028614962
0.00034351147
0.00041317148
0.00049774649
0.00060040093
0.00072496394
0.00087607282
0.0010306857
0.00102962
0.0010284539
0.0010272037
0.0010258569
0.0010243978
0.0010228063
0.001021056
0.00101911
0.0010169129
0.001014373
0.0010118964
0.0010097495
0.0010078992
0.0010063247
0.0010050123
0.0010039674
0.0010031931
0.0010026202
0.0010024056
0.001002544
0.0010019839
0.0010027997
1.3389582e-06
1.2351439e-05
1.0065285e-05
1.0049804e-05
1.2435902e-05
9.9273415e-06
1.2283644e-05
9.7177032e-06
1.0508907e-05
9.2727772e-06
9.3927814e-06
8.8968754e-06
8.8143812e-06
8.6431613e-06
8.6655629e-06
8.7009542e-06
8.8286288e-06
8.9992836e-06
9.2328169e-06
9.5175001e-06
9.8601055e-06
1.0260523e-05
1.0724587e-05
1.1257424e-05
1.1866332e-05
1.2560774e-05
1.3352293e-05
1.4254884e-05
1.5285814e-05
1.6466322e-05
1.7822229e-05
1.9383621e-05
2.1189875e-05
2.3288321e-05
2.5737089e-05
2.8607594e-05
3.1987987e-05
3.5990134e-05
4.0746135e-05
4.6420421e-05
5.321423e-05
6.1373935e-05
7.1202932e-05
8.3065843e-05
9.7410233e-05
0.00011573242
0.00013693481
0.00016265483
0.00019388368
0.00023181285
0.00027788597
0.00033385119
0.00040182363
0.00048436254
0.00058456579
0.00070618482
0.00085376829
0.0010298132
0.0010287378
0.0010275546
0.0010262904
0.0010249336
0.0010234698
0.0010218808
0.0010201433
0.0010182262
0.0010160855
0.0010136533
0.0010112703
0.0010092084
0.0010074344
0.0010059252
0.0010046671
0.0010036668
0.0010029157
0.0010023722
0.0010021941
0.0010022286
0.0010018267
0.0010024881
1.2439172e-06
1.1353571e-05
9.3627018e-06
8.8287104e-06
1.1381116e-05
8.7547474e-06
1.0622611e-05
8.485079e-06
9.0019355e-06
8.0419145e-06
8.002724e-06
7.5956001e-06
7.5556349e-06
7.461455e-06
7.5082738e-06
7.5800773e-06
7.7250772e-06
7.9127953e-06
8.1552256e-06
8.4459504e-06
8.7900482e-06
9.1888239e-06
9.6478236e-06
1.0172689e-05
1.0770423e-05
1.1450518e-05
1.2224315e-05
1.3105528e-05
1.4111e-05
1.5261569e-05
1.6519416e-05
1.8028355e-05
1.9773974e-05
2.1802428e-05
2.4170495e-05
2.6947865e-05
3.039314e-05
3.4300202e-05
3.8946114e-05
4.4492705e-05
5.113782e-05
5.9122778e-05
6.8747918e-05
8.0370239e-05
9.4430089e-05
0.00011146589
0.00013212609
0.00015856047
0.00018921464
0.00022644957
0.00027168263
0.00032663108
0.00039337358
0.00047442693
0.00057284013
0.00069230936
0.00083732064
0.001013312
0.0010278546
0.0010266555
0.0010253785
0.001024013
0.0010225458
0.0010209605
0.0010192363
0.0010173467
0.0010152562
0.0010129142
0.0010106318
0.0010086611
0.0010069684
0.0010055293
0.0010043305
0.0010033761
0.0010026491
0.0010021384
0.0010019765
0.0010019182
0.0010016774
0.0010022256
1.1624616e-06
1.0261328e-05
8.7010446e-06
7.7211864e-06
1.0233511e-05
7.6830074e-06
9.0779237e-06
7.3657317e-06
7.6705759e-06
6.8181646e-06
6.7626027e-06
6.4888094e-06
6.4714439e-06
6.4375425e-06
6.5075493e-06
6.6089829e-06
6.7701223e-06
6.9726978e-06
7.2240297e-06
7.5210605e-06
7.8680538e-06
8.2671477e-06
8.7237721e-06
9.2220445e-06
9.8070132e-06
1.0471539e-05
1.1226565e-05
1.2085344e-05
1.3064115e-05
1.418296e-05
1.5466367e-05
1.6944421e-05
1.8654133e-05
2.064111e-05
2.2961566e-05
2.5684827e-05
2.8896354e-05
3.2701482e-05
3.7229887e-05
4.2641134e-05
4.9130286e-05
5.7365492e-05
6.6850756e-05
7.8308642e-05
9.2172952e-05
0.00010897801
0.00012936351
0.00015411296
0.00018584781
0.00022261534
0.00026728204
0.00032154397
0.00038745485
0.00046750243
0.00056470251
0.00068271526
0.00082598644
0.00099991106
0.0010269719
0.0010257585
0.0010244705
0.0010230979
0.001021629
0.0010200489
0.0010183393
0.0010164769
0.0010144325
0.0010121675
0.0010099905
0.0010081154
0.0010065081
0.0010051428
0.0010040071
0.0010030997
0.0010023989
0.00100192
0.0010017605
0.0010016402
0.001001527
0.0010019976
1.0941848e-06
9.0877767e-06
8.0733307e-06
6.7170381e-06
9.031503e-06
6.7023792e-06
7.6759652e-06
6.2999696e-06
6.3369052e-06
5.7582916e-06
5.7060111e-06
5.5342565e-06
5.5410721e-06
5.5546191e-06
5.6465071e-06
5.772579e-06
5.9488724e-06
6.1648428e-06
6.4252427e-06
6.7290595e-06
7.0639755e-06
7.460767e-06
7.9131576e-06
8.4267964e-06
9.0089189e-06
9.6683464e-06
1.0416e-05
1.1265031e-05
1.2231429e-05
1.3335114e-05
1.460034e-05
1.6056929e-05
1.7741617e-05
1.96997e-05
2.1987061e-05
2.4672632e-05
2.7841384e-05
3.1597971e-05
3.6071268e-05
4.1420229e-05
4.784025e-05
5.5567477e-05
6.4891417e-05
7.6163128e-05
9.0554172e-05
0.00010722339
0.00012744571
0.00015200274
0.00018183196
0.00022011741
0.00026445462
0.00031831613
0.00038374111
0.00046320021
0.00055968986
0.00067685089
0.00081910908
0.00099184032
0.0010260922
0.0010248666
0.0010235694
0.0010221918
0.0010207231
0.0010191502
0.0010174568
0.0010156225
0.0010136222
0.0010114251
0.0010093566
0.0010075797
0.00100606
0.0010047711
0.0010037008
0.0010028412
0.0010021702
0.0010017199
0.0010015487
0.001001388
0.0010013663
0.0010017903
1.0398619e-06
7.8452755e-06
7.4619302e-06
5.8058559e-06
7.7999165e-06
5.7932439e-06
6.6629257e-06
5.26808e-06
5.2384083e-06
4.847661e-06
4.809069e-06
4.7147782e-06
4.7463844e-06
4.7980048e-06
4.9104569e-06
5.057607e-06
5.2483021e-06
5.4767512e-06
5.731432e-06
6.0389728e-06
6.39214e-06
6.7942201e-06
7.2499763e-06
7.7652667e-06
8.3473892e-06
9.005145e-06
9.7494547e-06
1.059346e-05
1.1552879e-05
1.264759e-05
1.3901729e-05
1.534501e-05
1.7014087e-05
1.89542e-05
2.1221202e-05
2.3884025e-05
2.7027611e-05
3.0756436e-05
3.5199019e-05
4.0513787e-05
4.6897098e-05
5.458415e-05
6.3865246e-05
7.5091284e-05
8.8689101e-05
0.00010517788
0.00012626386
0.00015074304
0.00018048188
0.00021661241
0.00026298547
0.00031669128
0.0003819266
0.00046115599
0.00055736808
0.00067419945
0.00081607371
0.00098836949
0.001025219
0.0010239834
0.0010226793
0.0010212987
0.0010198323
0.0010182686
0.0010165935
0.0010147891
0.0010128332
0.001010699
0.00100874
0.0010070619
0.0010056303
0.0010044191
0.0010034146
0.0010026031
0.001001966
0.0010015418
0.0010013489
0.0010011583
0.0010012018
0.0010016005
1.003188e-06
6.5543613e-06
6.8381048e-06
4.9862866e-06
6.5943265e-06
5.2641662e-06
5.4377972e-06
4.3642702e-06
4.3259806e-06
4.0672912e-06
4.0504564e-06
4.0163028e-06
4.0723018e-06
4.155315e-06
4.2870664e-06
4.4527087e-06
4.644169e-06
4.881217e-06
5.1577523e-06
5.4749591e-06
5.8358752e-06
6.2442216e-06
6.7049127e-06
7.2239314e-06
7.8086447e-06
8.4677628e-06
9.2122259e-06
1.0033369e-05
1.0984131e-05
1.206753e-05
1.3307417e-05
1.4733232e-05
1.638138e-05
1.8296879e-05
2.0535411e-05
2.3165774e-05
2.6272791e-05
2.9960743e-05
3.4357655e-05
3.9881959e-05
4.625734e-05
5.3937719e-05
6.3216076e-05
7.4443238e-05
8.8046023e-05
0.00010454464
0.00012457054
0.00015020775
0.00017997105
0.00021613458
0.00026006686
0.00031641529
0.00038170755
0.00046100785
0.00055730565
0.00067424645
0.0008162675
0.00098876941
0.0010243569
0.0010231139
0.0010218052
0.0010204239
0.0010189619
0.0010174094
0.0010157545
0.0010139821
0.0010120724
0.0010100007
0.0010081502
0.0010065694
0.0010052248
0.0010040908
0.0010031511
0.0010023874
0.0010017872
0.0010013867
0.0010011695
0.0010009619
0.0010010499
0.0010014178
9.8674302e-07
5.8154047e-06
6.2006579e-06
4.900251e-06
6.222038e-06
4.1619381e-06
4.1522435e-06
3.603708e-06
3.5644083e-06
3.4084692e-06
3.4143462e-06
3.4279798e-06
3.5071157e-06
3.6163101e-06
3.7560992e-06
3.9343701e-06
4.149367e-06
4.399753e-06
4.6873009e-06
5.0140118e-06
5.3831704e-06
5.7987847e-06
6.2658768e-06
6.7904758e-06
7.3689622e-06
8.0284865e-06
8.7716655e-06
9.6113397e-06
1.056325e-05
1.1646764e-05
1.2885796e-05
1.430991e-05
1.5955725e-05
1.7868573e-05
2.0104587e-05
2.2733148e-05
2.5839811e-05
2.9529878e-05
3.3932885e-05
3.9207537e-05
4.5547181e-05
5.3576461e-05
6.2884609e-05
7.4152026e-05
8.7806122e-05
0.00010436906
0.00012447474
0.00014889259
0.0001801449
0.00021645309
0.00026055786
0.0003141351
0.00038276731
0.00046237802
0.00055905152
0.00067645316
0.0008190474
0.00099227256
0.0010235116
0.0010222639
0.0010209533
0.0010195738
0.0010181182
0.0010165784
0.0010149449
0.0010132058
0.0010113453
0.0010093409
0.0010075962
0.0010061093
0.0010048484
0.0010037888
0.0010029114
0.0010021951
0.0010016323
0.0010012513
0.0010010139
0.0010008039
0.0010009027
0.001001234
9.8869082e-07
5.9485454e-06
5.5220132e-06
5.3475276e-06
5.4099851e-06
3.2850975e-06
3.3489486e-06
2.9626579e-06
2.9353126e-06
2.8583593e-06
2.8880236e-06
2.9395151e-06
3.0402751e-06
3.1614022e-06
3.3241774e-06
3.5195656e-06
3.7483601e-06
4.0107476e-06
4.3088094e-06
4.6450793e-06
5.0230396e-06
5.4468763e-06
5.9151001e-06
6.4445406e-06
7.0378331e-06
7.7036056e-06
8.4523472e-06
9.2968808e-06
1.0252958e-05
1.1340011e-05
1.2582091e-05
1.4008993e-05
1.5657663e-05
1.7573896e-05
1.981443e-05
2.2449394e-05
2.5565221e-05
2.9268376e-05
3.3689802e-05
3.8989545e-05
4.5362753e-05
5.3048433e-05
6.2807975e-05
7.4144823e-05
8.7884753e-05
0.00010455275
0.00012478587
0.00014935721
0.00018083577
0.00021736971
0.00026174388
0.00031564297
0.00038476045
0.00046485341
0.00056211182
0.00068022881
0.00082370626
0.0009980325
0.0010226897
0.0010214403
0.0010201309
0.0010187557
0.0010173087
0.0010157829
0.0010141707
0.0010124636
0.0010106521
0.0010087287
0.0010070856
0.0010056879
0.0010045057
0.0010035154
0.0010026963
0.0010020257
0.0010014981
0.0010011319
0.0010008837
0.0010006811
0.0010007516
0.0010010394
8.3717739e-07
6.2480351e-06
4.7821089e-06
3.5799004e-06
3.4750137e-06
2.7097731e-06
2.6590016e-06
2.4453219e-06
2.4250419e-06
2.4068257e-06
2.4598078e-06
2.5408364e-06
2.6524788e-06
2.799287e-06
2.978863e-06
3.1886936e-06
3.4298201e-06
3.7033827e-06
4.0117438e-06
4.357768e-06
4.7450648e-06
5.1732774e-06
5.6550242e-06
6.1930752e-06
6.7945441e-06
7.468023e-06
8.2239684e-06
9.0752e-06
1.0037516e-05
1.1130463e-05
1.2378287e-05
1.3811091e-05
1.5466242e-05
1.7390104e-05
1.9640127e-05
2.2287263e-05
2.5418987e-05
2.9143178e-05
3.3592322e-05
3.8927428e-05
4.5345128e-05
5.3481122e-05
6.291766e-05
7.4341734e-05
8.8188407e-05
0.00010498619
0.00012537621
0.00015013634
0.00018185466
0.0002186603
0.00026335965
0.00031764865
0.00038729512
0.0004679653
0.00056592523
0.0006849009
0.00082943782
0.0010050818
0.0010218985
0.0010206508
0.0010193457
0.0010179781
0.0010165423
0.0010150323
0.0010134412
0.0010117614
0.0010099844
0.0010081714
0.0010066247
0.0010053107
0.0010042014
0.0010032739
0.001002507
0.0010018787
0.0010013841
0.0010010309
0.0010007702
0.0010005554
0.00100059
0.0010008134
6.4782422e-07
5.1169468e-06
3.7442791e-06
2.6159486e-06
2.6773314e-06
2.1805336e-06
2.1288235e-06
2.0097154e-06
2.0145956e-06
2.0383759e-06
2.1150096e-06
2.2141312e-06
2.3495093e-06
2.5141746e-06
2.7081157e-06
2.9306318e-06
3.183132e-06
3.4673628e-06
3.7858971e-06
4.1417904e-06
4.5360302e-06
4.9771444e-06
5.4683452e-06
6.0155489e-06
6.6258243e-06
7.3077223e-06
8.0716798e-06
8.9305306e-06
9.9001466e-06
1.1000227e-05
1.2255259e-05
1.3695695e-05
1.5359382e-05
1.7293309e-05
1.9555644e-05
2.2218165e-05
2.5369457e-05
2.9118917e-05
3.3600843e-05
3.8976857e-05
4.5759305e-05
5.3627405e-05
6.3139361e-05
7.4655562e-05
8.8614335e-05
0.00010554781
0.00012610161
0.00015105844
0.00018299004
0.00022007254
0.0002651038
0.00031979172
0.00038992843
0.00047118307
0.00056985527
0.00068970513
0.00083532327
0.0010123144
0.0010211463
0.0010199036
0.0010186063
0.0010172498
0.001015829
0.0010143385
0.0010127721
0.0010111234
0.0010093849
0.0010076747
0.0010062179
0.001004982
0.0010039399
0.0010030693
0.0010023483
0.0010017572
0.0010012917
0.0010009495
0.0010006792
0.0010004554
0.0010004482
0.0010005755
5.0142629e-07
2.7811269e-06
2.9494862e-06
2.1122014e-06
2.0507376e-06
1.7509705e-06
1.7133674e-06
1.661323e-06
1.6910732e-06
1.7477237e-06
1.8451915e-06
1.9647962e-06
2.1172241e-06
2.2964388e-06
2.5027329e-06
2.736557e-06
2.9996227e-06
3.2940299e-06
3.6224634e-06
3.9880516e-06
4.3944651e-06
4.8435252e-06
5.3441015e-06
5.9004008e-06
6.5194465e-06
7.2097563e-06
7.9817604e-06
8.8483269e-06
9.8254203e-06
1.0932905e-05
1.2195525e-05
1.3644097e-05
1.5316962e-05
1.7261723e-05
1.9537218e-05
2.2216004e-05
2.5387609e-05
2.9321698e-05
3.3869755e-05
3.932593e-05
4.5892419e-05
5.3816414e-05
6.3396896e-05
7.4996214e-05
8.9055312e-05
0.0001061094
0.00012680871
0.00015327362
0.00018401047
0.00022132847
0.00026664213
0.00032167025
0.00039216214
0.00047390728
0.0005731802
0.00069377161
0.00084031279
0.0010184617
0.001020442
0.0010192078
0.0010179217
0.0010165797
0.0010151772
0.0010137095
0.0010121713
0.0010105568
0.0010088598
0.0010072428
0.0010058675
0.0010047026
0.0010037219
0.0010029028
0.0010022235
0.0010016661
0.0010012259
0.0010008929
0.0010006209
0.0010004031
0.0010003648
0.0010004266
4.0217565e-07
2.0737384e-06
2.2404405e-06
1.6547791e-06
1.585148e-06
1.4124974e-06
1.3935921e-06
1.3891958e-06
1.4423319e-06
1.5248863e-06
1.6405805e-06
1.7787806e-06
1.9452434e-06
2.136745e-06
2.3539822e-06
2.5980767e-06
2.870934e-06
3.1748304e-06
3.5124932e-06
3.8870651e-06
4.3021852e-06
4.7620751e-06
5.2716867e-06
5.8369015e-06
6.4647913e-06
7.163956e-06
7.9449529e-06
8.8208372e-06
9.8078303e-06
1.0926136e-05
1.2200932e-05
1.3663586e-05
1.5353129e-05
1.7317947e-05
1.9617799e-05
2.2326499e-05
2.5535156e-05
2.9355394e-05
3.3922753e-05
3.9402972e-05
4.5999997e-05
5.3962053e-05
6.3589544e-05
7.5245388e-05
8.9371428e-05
0.00010740316
0.00012834758
0.00015376429
0.00018461572
0.00022206981
0.00026754589
0.0003258176
0.00039336424
0.00047538262
0.00057499681
0.00069601909
0.00084311031
0.0010209721
0.0010197954
0.0010185728
0.0010173011
0.0010159767
0.0010145956
0.0010131536
0.0010116461
0.0010100684
0.0010084149
0.0010068791
0.001005575
0.0010044722
0.0010035451
0.0010027711
0.0010021287
0.0010016017
0.0010011835
0.0010008587
0.0010005892
0.0010003803
0.0010003172
0.0010003229
3.0772632e-07
1.6020309e-06
1.6669455e-06
1.303307e-06
1.233548e-06
1.1451198e-06
1.1467045e-06
1.1774607e-06
1.2515489e-06
1.3545213e-06
1.4852751e-06
1.6387095e-06
1.816207e-06
2.0175255e-06
2.2436848e-06
2.4961795e-06
2.777018e-06
3.0885576e-06
3.433534e-06
3.8150856e-06
4.2368312e-06
4.702962e-06
5.2183804e-06
5.78891e-06
6.4215662e-06
7.1248967e-06
7.9094204e-06
8.7881737e-06
9.7773868e-06
1.0897301e-05
1.2173176e-05
1.3636513e-05
1.5326495e-05
1.7291652e-05
1.959201e-05
2.2301961e-05
2.5512833e-05
2.9335977e-05
3.3906791e-05
3.9391858e-05
4.5995344e-05
5.4362193e-05
6.4071166e-05
7.582158e-05
9.0057069e-05
0.00010731607
0.00012825186
0.00015365729
0.00018449508
0.00022193117
0.00026982215
0.00032540463
0.00039288846
0.00047483976
0.00057438685
0.0006953492
0.00084239846
0.0010203803
0.0010192171
0.001018009
0.0010167546
0.0010154505
0.0010140932
0.0010126792
0.0010112044
0.0010096647
0.0010080558
0.0010065875
0.0010053425
0.0010042914
0.0010034087
0.001002672
0.0010020606
0.0010015593
0.0010011592
0.0010008422
0.0010005785
0.0010003786
0.0010002953
0.0010002566
1.9603317e-07
1.2520395e-06
1.2086735e-06
1.0374473e-06
9.7541411e-07
9.4335946e-07
9.6725957e-07
1.0261736e-06
1.1198677e-06
1.240214e-06
1.3844391e-06
1.5505252e-06
1.7385963e-06
1.9493694e-06
2.1842429e-06
2.444485e-06
2.7330147e-06
3.0518674e-06
3.403787e-06
3.7919264e-06
4.2199242e-06
4.6919597e-06
5.2128695e-06
5.7884181e-06
6.4255631e-06
7.1327866e-06
7.9205518e-06
8.801842e-06
9.7928415e-06
1.0913758e-05
1.2189836e-05
1.3652561e-05
1.5341034e-05
1.7303625e-05
1.9674278e-05
2.2397654e-05
2.5623982e-05
2.9464267e-05
3.4054434e-05
3.9562152e-05
4.6191419e-05
5.4188519e-05
6.3852796e-05
7.554831e-05
8.9715196e-05
0.00010688834
0.00012771653
0.00015435296
0.00018524726
0.00022273708
0.00026823951
0.00032347777
0.00039054919
0.00047200895
0.00057097343
0.00069124899
0.0008374933
0.0010154042
0.0010187184
0.0010175276
0.0010162928
0.0010150112
0.0010136797
0.001012295
0.0010108539
0.0010093526
0.0010077875
0.0010063714
0.001005172
0.0010041605
0.0010033119
0.0010026036
0.001002016
0.0010015345
0.0010011478
0.0010008372
0.0010005801
0.0010003869
0.0010002864
0.0010002132
2.5435575e-07
1.0012924e-06
8.8265463e-07
8.3013682e-07
7.9683052e-07
7.9816736e-07
8.4050447e-07
9.1767188e-07
1.0236645e-06
1.1533014e-06
1.3039546e-06
1.4749148e-06
1.6666133e-06
1.8801085e-06
2.1169006e-06
2.3788024e-06
2.6679497e-06
2.9867862e-06
3.3381069e-06
3.7250904e-06
4.1513222e-06
4.6207708e-06
5.1378797e-06
5.7085283e-06
6.339639e-06
7.039659e-06
7.8189803e-06
8.6904935e-06
9.6702569e-06
1.0778329e-05
1.203977e-05
1.3485812e-05
1.51552e-05
1.7095933e-05
1.9367502e-05
2.2043106e-05
2.5212095e-05
2.8983409e-05
3.3491492e-05
3.8901394e-05
4.5412575e-05
5.3266678e-05
6.324483e-05
7.4819398e-05
8.8836995e-05
0.0001058265
0.00012642977
0.00015142607
0.00018176181
0.00021858707
0.00026330021
0.00031760299
0.00038356788
0.00046372135
0.00056114655
0.00067961141
0.00082372829
0.00099914182
0.0010183146
0.0010171434
0.0010159305
0.0010146731
0.0010133687
0.0010120145
0.0010106076
0.001009145
0.0010076235
0.001006241
0.0010050712
0.0010040852
0.0010032582
0.0010025679
0.0010019953
0.0010015257
0.0010011461