/*--------------------------------*- C++ -*----------------------------------*\
  =========                 |
  \\      /  F ield         | OpenFOAM: The Open Source CFD Toolbox
   \\    /   O peration     | Website:  https://openfoam.org
    \\  /    A nd           | Version:  6
     \\/     M anipulation  |
\*---------------------------------------------------------------------------*/
FoamFile
{
    version     2.0;
    format      ascii;
    class       volScalarField;
    location    "550";
    object      omega;
}
// * * * * * * * * * * * * * * * * * * * * * * * * * * * * * * * * * * * * * //

dimensions      [0 0 -1 0 0 0 0];

internalField   nonuniform List<scalar> 
16000
(
1416.4111
1501.6923
773.41389
496.98722
334.68502
257.42991
192.72576
159.70061
129.14471
110.43988
93.544845
81.451051
70.905717
62.600144
55.476461
49.617298
44.626636
40.408414
36.778897
33.653726
30.936898
28.567201
26.487342
24.65508
23.034003
21.595231
20.314298
19.17108
18.148603
17.232663
16.41128
15.674333
15.013146
14.420213
13.889009
13.413798
12.989482
12.611477
12.275621
11.978082
11.71532
11.484112
11.281441
11.104473
10.950566
10.81727
10.702299
10.603551
10.519124
10.447333
10.386748
10.336269
10.295336
10.264562
10.243597
10.230296
10.221967
10.21561
10.209117
10.20141
10.191799
10.180131
10.166181
10.149415
10.129587
10.107225
10.083844
10.061785
10.042116
10.025626
10.010973
10.000417
9.9896152
9.9848697
9.9776206
9.9861216
9.9815388
10.020804
9.9912403
10.032382
1324.708
1542.7395
775.41439
504.37592
336.60455
261.22585
194.34901
161.79267
130.33634
111.58149
94.29289
82.036839
71.29826
62.85277
55.671067
49.775357
44.751434
40.50922
36.860058
33.71972
30.990932
28.611992
26.524983
24.687196
23.06188
21.619873
20.336498
19.191444
18.167582
17.250565
16.428305
15.690607
15.028748
14.435179
13.903346
13.427502
13.002539
12.623875
12.287355
11.98915
11.725705
11.493808
11.290451
11.112807
10.958235
10.824296
10.708705
10.609356
10.524339
10.451945
10.390701
10.339404
10.297215
10.263921
10.24064
10.2258
10.216755
10.210235
10.203844
10.196711
10.188479
10.178033
10.165247
10.149534
10.130537
10.108581
10.0852
10.062826
10.043004
10.026167
10.011612
10.000491
9.9904801
9.9856797
9.9784809
9.9841467
9.9807536
10.016675
9.9916016
10.033109
1088.9857
1582.6943
775.2385
510.94409
337.8275
264.52218
195.62451
163.55132
131.30065
112.46435
94.846837
82.40093
71.505648
63.000292
55.773753
49.849427
44.801138
40.541656
36.879463
33.72947
30.993824
28.610115
26.52005
24.680411
23.054192
21.611988
20.328948
19.184604
18.161703
17.245781
16.42465
15.688058
15.027249
14.434641
13.903664
13.428563
13.00423
12.626085
12.289988
11.992124
11.728919
11.497175
11.2939
11.116275
10.961664
10.827641
10.711932
10.612431
10.527227
10.4546
10.393054
10.341335
10.298486
10.26399
10.238204
10.221615
10.211704
10.204936
10.198509
10.191417
10.183466
10.174313
10.162932
10.148508
10.130577
10.109257
10.08602
10.063464
10.043509
10.026493
10.011994
10.000603
9.9909935
9.9862281
9.9794062
9.9832747
9.9807692
10.013179
9.9918331
10.03027
1115.2278
1617.4098
773.39858
516.63474
338.46535
267.2435
196.61087
164.90752
132.04409
113.03096
95.186967
82.530311
71.573845
63.036361
55.779984
49.835128
44.772232
40.502611
36.834514
33.680767
30.943717
28.560035
26.471261
24.63368
23.010106
21.570916
20.291139
19.15018
18.1307
17.218137
16.400221
15.666656
15.008671
14.418663
13.890054
13.417092
12.994676
12.618233
12.283645
11.987124
11.725075
11.494315
11.291875
11.114952
10.960913
10.827352
10.712011
10.612792
10.527788
10.455278
10.393753
10.341934
10.298796
10.263645
10.236321
10.217756
10.206814
10.199732
10.193234
10.186111
10.178197
10.169289
10.158978
10.146117
10.129529
10.10911
10.08621
10.0636
10.043591
10.026511
10.012077
10.000555
9.9912641
9.9859677
9.9803024
9.9832756
9.9810463
10.009187
9.9921965
10.028688
1139.2296
1644.2368
770.26811
521.33797
338.54152
269.30819
197.31308
165.80017
132.55373
113.23248
95.283696
82.514352
71.522305
62.960282
55.68874
49.73178
44.663924
40.391502
36.724644
33.573174
30.840226
28.461431
26.378364
24.546813
22.929473
21.496559
20.223011
19.088149
18.074577
17.167666
16.355076
15.626479
14.973111
14.387355
13.862637
13.393218
12.974012
12.600458
12.268463
11.974286
11.714305
11.485357
11.2845
11.108954
10.956088
10.823526
10.70903
10.610514
10.526088
10.454029
10.392829
10.341197
10.298075
10.262679
10.234622
10.214245
10.202078
10.194606
10.188014
10.180829
10.172891
10.16404
10.154008
10.142256
10.127318
10.108096
10.085753
10.063224
10.043249
10.026209
10.011886
10.000359
9.9913306
9.9857265
9.9810035
9.9831926
9.9815418
10.005599
9.9927231
10.025498
1160.9582
1659.4386
766.34207
524.92262
338.09711
270.6126
197.74416
166.14848
132.81144
113.12018
95.144414
82.350301
71.348183
62.769777
55.497751
49.537622
44.474569
40.206997
36.548678
33.405717
30.682521
28.313632
26.240801
24.419358
22.811939
21.388644
20.124366
18.998372
17.993249
17.094324
16.28921
15.567554
14.920619
14.340791
13.821503
13.357041
12.942346
12.572871
12.244551
11.95372
11.696718
11.470404
11.27187
11.09837
10.947274
10.816239
10.703057
10.605659
10.522175
10.450893
10.390309
10.339131
10.296283
10.260933
10.23256
10.211122
10.197493
10.189543
10.182838
10.175572
10.167584
10.15873
10.1488
10.137432
10.123871
10.10618
10.084648
10.062338
10.042493
10.025588
10.011428
9.9999983
9.9912072
9.9854496
9.9814836
9.9830005
9.9821369
10.002861
9.9932546
10.023401
1180.434
1660.3047
761.92212
527.20702
337.18744
271.03282
197.91919
165.85981
132.78093
112.80964
94.856576
82.038628
71.050739
62.464926
55.206601
49.252633
44.20399
39.949074
36.306607
33.178504
30.470743
28.11684
26.058814
24.251614
22.657842
21.247543
19.995602
18.88127
17.887151
16.998565
16.203087
15.490346
14.85166
14.279425
13.767095
13.30899
12.900089
12.535866
12.212273
11.925763
11.672625
11.44974
11.254243
11.083432
10.934676
10.805671
10.694249
10.598358
10.516162
10.445962
10.386265
10.335784
10.29344
10.258376
10.229996
10.208076
10.193063
10.184526
10.177692
10.170331
10.162274
10.153392
10.143501
10.132316
10.119315
10.103313
10.082887
10.060944
10.041329
10.024652
10.010718
9.9994703
9.9909086
9.9851438
9.9817419
9.9826552
9.9827421
10.000538
9.9937591
10.021019
1197.744
1655.0663
756.61274
527.99772
335.89037
270.44006
197.85623
165.20539
132.39687
112.30618
94.421242
81.58184
70.630315
62.046781
54.815479
48.877314
43.852399
39.618044
35.998694
32.891843
30.205227
27.871423
25.832815
24.044028
22.467658
21.073766
19.837258
18.737401
17.756853
16.880962
16.097285
15.395431
14.766801
14.203814
13.699953
13.24958
12.847731
12.489906
12.172055
11.890811
11.64239
11.423697
11.231913
11.064405
10.918529
10.792027
10.682783
10.588765
10.508178
10.439343
10.380784
10.331224
10.289589
10.255009
10.226847
10.204753
10.188808
10.17954
10.172563
10.165097
10.15696
10.148033
10.138152
10.12708
10.114428
10.099454
10.080482
10.059064
10.039778
10.023416
10.009777
9.9987848
9.9904601
9.9848003
9.9818216
9.9821603
9.9832953
9.9983442
9.9941079
10.018859
1213.0293
1651.0635
750.21301
527.13088
334.29385
268.70587
197.53372
164.28955
131.74103
111.61852
93.840304
80.983962
70.08816
61.517414
54.325396
48.412884
43.420696
39.214788
35.625775
32.54658
29.886814
27.578238
25.563664
23.797487
22.242295
20.868232
19.650257
18.567688
17.603272
16.742425
15.972704
15.283686
14.666891
14.114775
13.620856
13.179549
12.785962
12.435645
12.124489
11.849403
11.606504
11.39272
11.205274
11.041639
10.899142
10.775575
10.66889
10.577075
10.498388
10.431174
10.373977
10.325539
10.284793
10.250872
10.223113
10.201101
10.184765
10.174571
10.167438
10.15986
10.151637
10.142655
10.132768
10.12177
10.109345
10.09495
10.077447
10.056724
10.037866
10.021904
10.008629
9.9979583
9.9898951
9.9844264
9.9817698
9.981787
9.9837777
9.9963181
9.9943661
10.016567
1226.458
1647.9277
742.93071
524.37743
332.47618
266.5813
196.88563
163.13998
130.93021
110.75462
93.11459
80.248731
69.425301
60.878675
53.737345
47.860574
42.909879
38.740316
35.188857
32.143767
29.516582
27.238393
25.252496
23.513152
21.98293
20.632131
19.435799
18.373327
17.427583
16.584106
15.830475
15.156206
14.552984
14.013315
13.530762
13.099792
12.715614
12.373867
12.070278
11.80218
11.565546
11.357331
11.174783
11.015539
10.87687
10.756621
10.652836
10.563513
10.48698
10.42161
10.365973
10.318832
10.279134
10.246016
10.218807
10.197047
10.180559
10.169606
10.162308
10.154616
10.146302
10.137263
10.127361
10.116417
10.104167
10.090203
10.073804
10.053968
10.035629
10.020148
10.007307
9.9970145
9.9892487
9.9840337
9.9816226
9.9815183
9.9841847
9.9945256
9.9945316
10.014238
1238.2326
1645.2025
734.86965
519.40157
330.45823
264.11391
195.79731
161.77468
129.96503
109.72283
92.245144
79.38
68.643053
60.132576
53.052622
47.221839
42.321274
38.195905
34.689298
31.684806
29.095979
26.85336
24.90081
23.192567
21.69112
20.367026
19.195443
18.15586
17.231294
16.407465
15.672026
15.014362
14.426385
13.900673
13.430838
13.011399
12.63768
12.305521
12.010256
11.749894
11.520194
11.318142
11.140969
10.98657
10.852122
10.735514
10.634922
10.548332
10.474166
10.410829
10.356918
10.31122
10.272703
10.240513
10.213975
10.192601
10.176128
10.16464
10.157163
10.149359
10.140956
10.131858
10.121941
10.111041
10.098933
10.085287
10.069572
10.050845
10.033112
10.018185
10.005844
9.9959822
9.9885562
9.9836368
9.9814202
9.9813477
9.984524
9.9930612
9.9946964
10.012044
1248.6045
1642.2727
726.21247
511.77125
328.23692
261.36685
194.26087
160.21377
128.84593
108.53206
91.233503
78.381655
67.743026
59.28113
52.27266
46.498252
41.656464
37.583044
34.122118
31.16452
28.620052
26.418564
24.504489
22.832114
21.363725
20.070215
18.926886
17.913332
17.012739
16.211078
15.496178
14.857164
14.286267
13.776159
13.32052
12.913911
12.551753
12.230343
11.945375
11.693395
11.471205
11.275842
11.104418
10.955247
10.825353
10.712638
10.615479
10.53181
10.460179
10.399021
10.346968
10.302832
10.265603
10.23444
10.208672
10.187796
10.171486
10.159671
10.152
10.144087
10.1356
10.126449
10.116519
10.105664
10.093686
10.080311
10.065122
10.047419
10.030368
10.016063
10.004279
9.9948947
9.9878525
9.9832553
9.981204
9.98126
9.9847925
9.9919673
9.9948648
10.010248
1257.8575
1638.2638
717.13916
503.63538
325.74289
258.40205
192.62817
158.47337
127.57017
107.18849
90.079731
77.25579
66.725916
58.325379
51.386576
45.676099
40.901378
36.889825
33.488358
30.585768
28.092787
25.938602
24.068423
22.436841
21.005778
19.746629
18.634902
17.650324
16.776258
15.999001
15.30677
14.688186
14.135937
13.642819
13.20261
12.809896
12.46006
12.149951
11.875138
11.632269
11.418232
11.230199
11.065764
10.922124
10.797058
10.688405
10.594867
10.514248
10.445264
10.386392
10.33629
10.293805
10.257944
10.227884
10.202963
10.182673
10.166651
10.154709
10.146818
10.138805
10.130241
10.121044
10.111109
10.100303
10.088455
10.075331
10.060605
10.04376
10.027458
10.013831
10.002654
9.9937875
9.9871698
9.9829086
9.9810097
9.981242
9.9849662
9.9911694
9.9950342
10.008731
1266.2898
1632.0405
707.79131
495.04858
322.8201
255.25879
190.89133
156.57116
126.13641
105.69845
88.784947
76.004524
65.566625
57.236916
50.387515
44.756328
40.061177
36.122682
32.790279
29.95104
27.516939
25.416343
23.595493
22.009716
20.620234
19.399173
18.322335
17.369602
16.524487
15.773639
15.106135
14.509605
13.977406
13.502498
13.078809
12.70099
12.364095
12.065925
11.801799
11.56849
11.362955
11.182352
11.024642
10.886902
10.767041
10.663244
10.573472
10.495962
10.429686
10.373156
10.325061
10.28428
10.249841
10.220937
10.196915
10.177275
10.161639
10.149776
10.141622
10.133518
10.124888
10.115656
10.105727
10.09498
10.083264
10.070382
10.05607
10.039948
10.024445
10.011544
10.001013
9.9926976
9.9865382
9.982618
9.9808699
9.981293
9.9850371
9.9903407
9.995184
10.007522
1274.2043
1621.906
698.30485
486.05448
319.15077
251.97271
189.03412
154.52192
124.54246
104.0655
87.304864
74.570508
64.253907
56.018261
49.275502
43.739888
39.137684
35.283964
32.030764
29.263456
26.895982
24.855406
23.089236
21.554384
20.210688
19.031335
17.992548
17.074414
16.260532
15.537692
14.894555
14.321589
13.810744
13.355174
12.949018
12.587215
12.265364
11.97961
11.726549
11.503118
11.3064
11.13332
10.982521
10.850801
10.736094
10.636874
10.551109
10.477293
10.41372
10.359537
10.313462
10.274404
10.241415
10.213696
10.190605
10.17165
10.156452
10.14475
10.136421
10.12824
10.119557
10.110303
10.100392
10.089717
10.078142
10.065499
10.051569
10.036066
10.021401
10.009257
9.9993995
9.9916609
9.985984
9.9824064
9.9808179
9.9814144
9.9850587
9.9896915
9.9952446
10.006513
1281.8796
1605.3205
688.7895
476.69765
315.39584
248.57469
187.02976
152.33553
122.78557
102.19385
85.607679
72.955912
62.784
54.667807
48.050757
42.628203
38.133486
34.376863
31.213736
28.527088
26.234445
24.260489
22.554013
21.071412
19.777385
18.643127
17.64541
16.764607
15.984359
15.291955
14.676324
14.128188
13.639728
13.204312
12.81627
12.470712
12.163382
11.890551
11.64895
11.435718
11.248296
11.083895
10.940104
10.814511
10.7049
10.610247
10.528366
10.458035
10.397655
10.34577
10.301679
10.264327
10.232784
10.20626
10.184113
10.165864
10.151134
10.139644
10.131231
10.122988
10.114267
10.105006
10.095128
10.084539
10.073119
10.06072
10.047156
10.0322
10.018394
10.007026
9.9978556
9.9907099
9.9855275
9.9822922
9.9808836
9.9816192
9.9850429
9.9891652
9.9951428
10.005599
1289.5466
1578.3869
679.31787
466.95145
311.78938
245.09369
184.84627
149.94414
120.69385
100.06439
83.681023
71.153123
61.152915
53.18428
46.714487
41.42389
37.052718
33.406
30.344803
27.747289
25.532017
23.631089
21.990634
20.567656
19.327512
18.241691
17.287829
16.44681
15.702056
15.04158
14.454649
13.932286
13.46695
13.052261
12.682776
12.353808
12.061266
11.801551
11.57148
11.368308
11.189922
11.033512
10.896893
10.777725
10.673988
10.583879
10.505707
10.438686
10.381284
10.332105
10.289908
10.2542
10.22407
10.198731
10.177524
10.159986
10.14574
10.134501
10.126074
10.117786
10.109045
10.099792
10.089963
10.079474
10.068223
10.056081
10.042883
10.028434
10.015492
10.004902
9.9964199
9.9898718
9.9851826
9.9822851
9.9810805
9.9819276
9.9850447
9.9887334
9.9949307
10.004761
1297.3553
1534.885
669.78289
456.7213
308.22503
241.53759
182.82313
147.196
118.24999
97.6555
81.510147
69.152678
59.356609
51.567332
45.269693
40.13142
35.901971
32.377823
29.42181
26.923814
24.798002
22.977267
21.408589
20.049809
18.867376
17.832757
16.924861
16.125762
15.417884
14.790386
14.232931
13.7369
13.295073
12.901361
12.550585
12.238291
11.960593
11.714045
11.495524
11.302117
11.132605
10.983919
10.854256
10.741241
10.642892
10.557522
10.483579
10.419632
10.365009
10.318348
10.278366
10.244183
10.215392
10.191209
10.170924
10.154087
10.140331
10.129366
10.120979
10.112666
10.103921
10.094694
10.084928
10.074553
10.063485
10.051614
10.038796
10.024847
10.01276
10.002932
9.9951253
9.9891662
9.9849571
9.9823898
9.9814062
9.9823395
9.9851242
9.9884775
9.9947381
10.00392
1305.151
1478.6866
659.57422
445.82134
304.53477
238.8139
180.52037
143.99436
115.41823
94.931528
79.074975
66.943455
57.391495
49.818469
43.722622
38.757726
34.675766
31.290112
28.457871
26.07
24.042023
22.308082
20.816326
19.525442
18.404166
17.422794
16.561747
15.803382
15.133205
14.539269
14.011682
13.542228
13.124042
12.751356
12.419278
12.123618
11.860734
11.627411
11.420773
11.238214
11.077345
10.935904
10.812899
10.70582
10.612638
10.531761
10.461737
10.401251
10.349124
10.304834
10.266882
10.23446
10.206868
10.183797
10.164398
10.148242
10.13497
10.124292
10.115984
10.107666
10.098936
10.089752
10.080063
10.069814
10.058935
10.047343
10.034924
10.021511
10.010254
10.001159
9.9939985
9.9886026
9.9848493
9.9826022
9.9818377
9.98282
9.9853017
9.9884345
9.9945031
10.003016
1312.7553
1428.4721
648.90974
439.14798
302.7115
234.8864
177.05854
140.28065
112.14591
91.862965
76.358128
64.52045
55.260646
47.945179
42.065887
37.298987
33.393162
30.162622
27.466736
25.198588
23.275754
21.634174
20.223757
19.00263
17.941582
17.015134
16.202602
15.48712
14.854869
14.294491
13.796607
13.353449
12.958546
12.606473
12.292645
12.013142
11.764563
11.543904
11.348469
11.175808
11.023732
10.890225
10.773379
10.671956
10.583681
10.507048
10.44068
10.383328
10.333875
10.291809
10.255738
10.224894
10.198611
10.176591
10.158034
10.142527
10.129722
10.119332
10.11113
10.102828
10.094136
10.085013
10.075417
10.0653
10.054608
10.043283
10.031258
10.018484
10.008023
9.9996201
9.9930623
9.9881858
9.9848514
9.9829081
9.9823418
9.9833329
9.9855839
9.9885772
9.9941595
10.001975
1319.7206
1402.7253
640.44889
440.53561
302.52182
229.447
172.96269
135.95168
108.37607
88.42507
73.352019
61.889621
52.97861
45.944168
40.324353
35.783931
32.074731
29.014176
26.465361
24.324666
22.512506
20.966956
19.63709
18.488299
17.490454
16.61931
15.855247
15.182304
14.587439
14.059955
13.591044
13.173422
12.801036
12.468823
12.172511
11.908456
11.673507
11.464886
11.280079
11.116713
10.972731
10.84629
10.736197
10.640083
10.556408
10.483753
10.420815
10.366408
10.319473
10.279481
10.245163
10.215792
10.190732
10.169689
10.151916
10.137016
10.124653
10.114546
10.106465
10.098203
10.089571
10.080531
10.071046
10.061073
10.050563
10.039465
10.02772
10.01581
10.0061
9.9983452
9.992341
9.9879294
9.9849629
9.9832925
9.9829051
9.9838897
9.9858986
9.9886059
9.9936566
10.000637
1324.6282
1405.5231
632.90585
435.54306
297.93187
223.44481
167.9211
131.05654
104.09118
84.622574
70.071708
59.074705
50.545693
43.854007
38.530221
34.241759
30.746587
27.867768
25.473699
23.465354
21.767216
20.316699
19.070692
17.994328
17.059183
16.24245
15.525717
14.894038
14.335225
13.839304
13.398071
13.004757
12.653739
12.340316
12.06052
11.810971
11.588758
11.391354
11.216562
11.061945
10.92548
10.806239
10.701796
10.610575
10.531132
10.462136
10.40236
10.350667
10.306098
10.268002
10.23529
10.207272
10.183339
10.163187
10.146131
10.131787
10.119833
10.109993
10.102039
10.093842
10.085294
10.076364
10.067015
10.057211
10.04691
10.036065
10.024627
10.01352
10.004508
9.9973518
9.9918547
9.9878577
9.9852077
9.9837682
9.9835277
9.9844923
9.9862866
9.9887425
9.9932312
9.9991575
1325.2196
1419.9531
623.54755
425.06419
291.84691
216.27084
161.87641
125.4558
99.270801
80.453449
66.535695
56.082441
48.018668
41.719205
36.723352
32.707496
29.439229
26.749656
24.513857
22.63822
21.051644
19.699487
18.536041
17.530315
16.655799
15.891272
15.219634
14.627027
14.102169
13.635835
13.220456
12.849782
12.518629
12.222653
11.958176
11.722034
11.511464
11.324014
11.158535
11.012221
10.883245
10.7699
10.67059
10.583794
10.508155
10.442433
10.385513
10.336197
10.293927
10.257521
10.226243
10.199441
10.176543
10.157185
10.140766
10.126921
10.115335
10.10574
10.097911
10.089801
10.081361
10.072563
10.063374
10.053763
10.043692
10.033123
10.022011
10.011629
10.003247
9.9966325
9.9915933
9.9879673
9.9855983
9.9843627
9.9842404
9.985174
9.9868214
9.9891556
9.9931875
9.9983296
1318.6689
1378.0164
614.32129
413.51297
283.77551
207.80312
154.81242
119.18808
93.991618
76.011355
62.842892
53.011072
45.472509
39.601924
34.955508
31.224475
28.189285
25.691337
23.613721
21.869116
20.391388
19.129802
18.044969
17.105975
16.288323
15.572433
14.942547
14.385912
13.892152
13.452795
13.060895
12.710727
12.397544
12.117374
11.866854
11.643085
11.44352
11.265936
11.10833
10.968863
10.845838
10.737688
10.642969
10.560113
10.487812
10.424854
10.370619
10.323681
10.283143
10.248194
10.218134
10.192352
10.170458
10.151782
10.135913
10.122498
10.111233
10.101857
10.094138
10.086138
10.077827
10.069181
10.060172
10.050772
10.04095
10.030671
10.0199
10.010148
10.002312
9.9961663
9.9915229
9.9882162
9.9860911
9.9850344
9.9850075
9.9859078
9.9874518
9.9897014
9.9933473
9.9978111
1301.9475
1323.6198
605.05975
399.51091
273.91409
198.20984
146.89006
112.42735
88.441812
71.471757
59.148397
49.990045
43.009032
37.582815
33.291361
29.844822
27.038482
24.726297
22.800369
21.180356
19.805567
18.629531
17.616214
16.737347
15.97052
15.297815
14.704796
14.179766
13.713206
13.297334
12.925768
12.593251
12.295426
12.028657
11.789876
11.576463
11.385934
11.216218
11.065432
10.931836
10.813807
10.709828
10.619175
10.539879
10.470694
10.410492
10.358241
10.313006
10.273949
10.240234
10.211179
10.186417
10.165204
10.147086
10.131667
10.118603
10.1076
10.098403
10.090786
10.082914
10.074751
10.066275
10.057462
10.048287
10.038724
10.028745
10.018318
10.009086
10.0017
9.9959404
9.9916199
9.988572
9.9866456
9.985734
9.9857778
9.9866494
9.9881283
9.9903112
9.9936307
9.9975407
1269.7465
1269.0785
596.92567
382.91532
261.83104
187.26574
138.01835
105.18019
82.686542
66.910143
55.52226
47.078089
40.662224
35.682583
31.745355
28.581576
25.995684
23.860019
22.076437
20.572016
19.291748
18.193543
17.244748
16.419714
15.698079
15.06353
14.502897
14.005489
13.56258
13.167027
12.812956
12.495515
12.210668
11.95503
11.725719
11.521144
11.338337
11.175373
11.030496
10.902083
10.788628
10.688721
10.601036
10.524332
10.457341
10.398979
10.348246
10.304232
10.266455
10.233847
10.205759
10.181618
10.160919
10.14322
10.128137
10.115336
10.104527
10.095461
10.087924
10.080197
10.072197
10.063904
10.055298
10.046357
10.037058
10.027376
10.017286
10.008451
10.001408
9.9959396
9.9918601
9.9890028
9.9872221
9.9864133
9.9864982
9.9873406
9.9887747
9.9908938
9.9939368
9.9974058
1219.5721
1202.2281
585.99195
363.57807
246.85327
175.31684
129.02343
98.413898
77.64272
63.106353
52.601657
44.785415
38.839452
34.217347
30.555299
27.605318
25.194018
23.19754
21.525685
20.111608
18.904947
17.86715
16.968255
16.184666
15.497656
14.892199
14.356147
13.879621
13.454545
13.074301
12.733439
12.427457
12.152611
11.905759
11.684233
11.485645
11.307969
11.149384
11.008221
10.882938
10.772096
10.674335
10.58837
10.513575
10.44823
10.39129
10.341797
10.298873
10.261728
10.22965
10.202004
10.178231
10.157834
10.140381
10.125492
10.112839
10.102134
10.093132
10.085617
10.07805
10.070226
10.062126
10.053735
10.045032
10.035999
10.026615
10.016861
10.00828
10.001456
9.9961718
9.99224
9.9894953
9.9877965
9.9870379
9.9871254
9.9879254
9.9893221
9.9913969
9.9942412
9.9974064
1161.466
1123.5155
559.51527
339.05432
225.48163
158.45893
116.63307
89.350378
71.006926
58.204577
48.949771
42.05323
36.763868
32.617438
29.30634
26.619332
24.407843
22.565106
21.012907
19.692911
18.560898
17.582786
16.731809
15.98713
15.331968
14.752776
14.238532
13.780213
13.370408
13.00301
12.672972
12.376106
12.108915
11.868453
11.653011
11.459605
11.286331
11.131484
10.993499
10.870924
10.762396
10.666619
10.582364
10.508473
10.443859
10.387511
10.338495
10.295957
10.259122
10.227294
10.19985
10.176237
10.155968
10.138614
10.123801
10.111201
10.100533
10.091548
10.084036
10.076633
10.068984
10.061072
10.052882
10.044397
10.035601
10.026474
10.017
10.00854
10.001817
9.9966112
9.992735
9.9900228
9.9883354
9.9875608
9.987594
9.9883172
9.9896516
9.9916218
9.9941968
9.9970676
1123.0759
1165.2498
570.89123
342.62279
225.98399
157.7598
115.68639
88.640278
70.569473
57.972748
48.852709
42.033792
36.797394
32.686035
29.396339
26.720754
24.513597
22.670296
21.114275
19.788409
18.649339
17.663678
16.805514
16.054063
15.392668
14.807801
14.288427
13.825493
13.411549
13.040451
12.707112
12.407311
12.137523
11.89478
11.676562
11.480688
11.30515
11.14818
11.00821
10.883789
10.773554
10.676208
10.590527
10.51535
10.449586
10.392218
10.342306
10.298986
10.261473
10.229061
10.201117
10.177077
10.156445
10.138783
10.123708
10.110887
10.100028
10.090879
10.083222
10.076011
10.06856
10.060854
10.052879
10.044618
10.036056
10.027175
10.017958
10.009371
10.00255
9.9972696
9.9933318
9.9905666
9.9888301
9.988001
9.9879677
9.9886259
9.9899062
9.9917816
9.9941797
9.9969327
1157.3922
1232.0649
592.21919
358.02089
235.52498
164.4353
120.31789
91.98608
73.045612
59.857785
50.316639
43.188858
37.720063
33.430295
30.00155
27.216522
24.922588
23.010112
21.398707
20.028357
18.853492
17.838955
16.957195
16.186302
15.50873
14.910292
14.379433
13.906688
13.484277
13.105788
12.765916
12.460263
12.185158
11.937527
11.714762
11.514619
11.335193
11.174734
11.031623
10.904368
10.791573
10.691921
10.604168
10.527139
10.459729
10.400906
10.349712
10.305271
10.266782
10.233525
10.204853
10.180189
10.159024
10.140911
10.125455
10.112315
10.101191
10.091824
10.08399
10.077001
10.069778
10.062306
10.05457
10.046556
10.038247
10.029627
10.02068
10.011687
10.004518
9.9989389
9.9947435
9.9917557
9.9898245
9.9888198
9.9886267
9.9891464
9.9903032
9.9920359
9.9942707
9.9969301
30536.81
33395.355
19100.137
13151.991
9483.3345
6880.1956
5006.2831
3664.9458
2702.7493
2009.9582
1503.5765
1132.3412
855.26052
652.61848
495.28485
378.24494
286.41849
217.60601
166.63265
129.16999
101.34761
80.892971
65.763383
54.554131
46.198427
39.870351
35.024647
31.24022
28.230328
25.772277
23.716151
21.968266
20.461905
19.149961
17.998505
16.982686
16.08376
15.287132
14.581114
13.956165
13.404104
12.91771
12.490645
12.117229
11.792224
11.510788
11.268444
11.061161
10.885182
10.737486
10.61592
10.517404
10.437521
10.373901
10.324931
10.288605
10.26328
10.245578
10.231976
10.220613
10.208865
10.197411
10.182549
10.168126
10.146272
10.128069
10.097353
10.078138
10.04058
10.025724
9.9978589
9.9922191
9.966612
9.9739334
9.9463971
9.975356
9.9474804
9.9965256
9.9596401
9.9968956
33618.782
28610.712
21738.726
16369.664
12055.683
8733.6465
6306.8248
4563.0659
3320.6739
2433.2336
1794.2962
1329.6119
989.562
738.86454
553.49273
416.04466
314.00386
238.39971
182.36789
140.88169
110.05123
87.288365
70.4444
58.00323
48.762305
41.788685
36.472325
32.34592
29.092494
26.462952
24.275761
22.425418
20.838333
19.461642
18.257478
17.1982
16.263111
15.436188
14.704689
14.058276
13.488118
12.986486
12.546625
12.162495
11.828562
11.539732
11.291275
11.078979
10.898855
10.747661
10.623303
10.521943
10.439608
10.373985
10.323459
10.286812
10.261453
10.243949
10.230647
10.219652
10.20822
10.197123
10.182506
10.168415
10.146688
10.128734
10.098014
10.078856
10.041685
10.02705
9.9988038
9.9934499
9.9675615
9.9750682
9.9475231
9.9762223
9.9487839
9.9975748
9.9608549
9.998339
37026.964
20318.671
12991.721
8162.7229
4426.1614
2106.3547
957.48794
464.99105
268.40071
184.7877
145.03974
120.48048
104.10032
90.868894
80.530301
72.076491
64.636556
58.72232
53.178952
48.728735
44.474401
40.978811
37.687813
34.922793
32.392692
30.044968
27.957884
26.062935
24.350637
22.78638
21.360047
20.073787
18.915867
17.873203
16.934878
16.091301
15.334016
14.65537
14.048643
13.507912
13.027467
12.602088
12.227092
11.898075
11.610867
11.361506
11.146248
10.961825
10.80495
10.673243
10.565332
10.476422
10.403781
10.346034
10.302583
10.272121
10.251396
10.237062
10.225538
10.215699
10.204602
10.194016
10.179073
10.165453
10.142862
10.125803
10.093829
10.076481
10.038298
10.026471
9.9969307
9.9939083
9.9665831
9.9762733
9.9470972
9.9780021
9.9488953
9.9994447
9.9612924
9.9998707
34275.255
23740.459
13734.776
7441.4447
3314.925
1271.541
508.30175
266.88628
189.47471
151.71435
129.73522
111.33129
98.280807
86.391143
77.207457
69.48316
62.457721
57.056516
51.67122
47.536104
43.349994
40.090371
36.804074
34.236711
31.669388
29.474917
27.388673
25.573484
23.879678
22.355134
20.981208
19.742868
18.627465
17.622641
16.717769
15.903666
15.172296
14.516403
13.929649
13.406355
12.941088
12.528932
12.165428
11.846368
11.567744
11.325757
11.116799
10.937753
10.785438
10.657622
10.552497
10.465305
10.394058
10.337779
10.296249
10.26737
10.247837
10.234359
10.223413
10.213981
10.203159
10.192774
10.177973
10.16444
10.141935
10.124898
10.093054
10.076006
10.038374
10.027249
9.9973091
9.9950835
9.9672182
9.977676
9.9480449
9.9795175
9.9499304
10.001201
9.9623076
10.001476
36304.459
23264.79
13221.668
6933.6528
2990.0696
1107.7711
449.58465
248.64547
182.31336
146.78001
125.70809
107.7385
95.221283
83.751498
75.285045
67.492911
61.135335
55.414629
50.580539
46.249
42.488365
39.089179
36.113857
33.403831
30.993544
28.804699
26.83196
25.032932
23.409512
21.944474
20.623608
19.432495
18.358151
17.389137
16.515523
15.728755
15.021326
14.386428
13.818101
13.310935
12.859761
12.459932
12.107178
11.797452
11.526904
11.291869
11.088865
10.914915
10.766926
10.64281
10.540106
10.454478
10.384541
10.330144
10.29048
10.263074
10.244664
10.231949
10.221554
10.212448
10.201914
10.191637
10.177036
10.163463
10.141163
10.123966
10.092452
10.075339
10.038396
10.027173
9.9976609
9.9951888
9.9679441
9.978093
9.9489658
9.980373
9.9509405
10.002618
9.9633041
10.002919
36890.711
22865.271
12764.082
6334.1556
2476.7517
848.51553
362.46181
221.9518
173.27093
140.99444
121.89497
104.20568
92.365389
81.111892
73.097832
65.490972
59.407216
53.852073
49.21642
45.030529
41.399746
38.145897
35.259583
32.664203
30.332282
28.223522
26.310723
24.575302
23.005675
21.588877
20.311249
19.158369
18.117939
17.17902
16.332134
15.569117
14.882782
14.266611
13.714884
13.22235
12.784058
12.395562
12.05274
11.751678
11.488651
11.260111
11.062682
10.893513
10.749592
10.628961
10.528217
10.444014
10.375646
10.323331
10.285406
10.259352
10.241956
10.229924
10.220005
10.211176
10.200877
10.190679
10.176235
10.162612
10.140476
10.123123
10.091962
10.074848
10.038578
10.027604
9.9982143
9.9959832
9.9687101
9.9790251
9.9499238
9.9814214
9.9519774
10.004111
9.9643125
10.004377
37858.081
22525.556
12257.974
5765.9459
2132.5814
711.11729
323.41167
211.0248
168.42341
137.88307
119.21802
101.83954
90.273939
79.136731
71.393255
63.895368
58.0284
52.604674
48.12112
44.043012
40.524279
37.353373
34.553803
32.026816
29.763188
27.713756
25.856656
24.169815
22.645598
21.270121
20.029664
18.91012
17.899532
16.987299
16.164249
15.42252
14.75518
14.155952
13.619302
13.140111
12.713628
12.335569
12.001927
11.708901
11.452872
11.230392
11.038178
10.873492
10.73339
10.615848
10.51674
10.433856
10.367695
10.317341
10.281008
10.25618
10.23969
10.228254
10.218744
10.210135
10.200027
10.189869
10.175556
10.16185
10.139873
10.122332
10.091567
10.074416
10.038721
10.027637
9.9986259
9.9959571
9.9695
9.9797115
9.9508844
9.9823626
9.9530169
10.00556
9.9653209
10.005809
38649.412
22082.235
11690.779
5191.1861
1790.9392