/*--------------------------------*- C++ -*----------------------------------*\
  =========                 |
  \\      /  F ield         | OpenFOAM: The Open Source CFD Toolbox
   \\    /   O peration     | Website:  https://openfoam.org
    \\  /    A nd           | Version:  6
     \\/     M anipulation  |
\*---------------------------------------------------------------------------*/
FoamFile
{
    version     2.0;
    format      ascii;
    class       volScalarField;
    location    "550";
    object      p;
}
// * * * * * * * * * * * * * * * * * * * * * * * * * * * * * * * * * * * * * //

dimensions      [1 -1 -2 0 0 0 0];

internalField   nonuniform List<scalar> 
16000
(
99017.178
99075.81
99079.851
99136.384
99148.636
99200.283
99221.769
99269.027
99298.407
99343.066
99378.412
99422.236
99461.892
99506.115
99548.903
99594.195
99639.33
99685.926
99732.852
99780.692
99828.952
99877.781
99926.927
99976.361
100025.91
100075.47
100124.89
100174.02
100222.72
100270.83
100318.18
100364.62
100409.99
100454.12
100496.87
100538.08
100577.6
100615.32
100651.09
100684.81
100716.38
100745.72
100772.75
100797.41
100819.68
100839.51
100856.9
100871.84
100884.36
100894.47
100902.22
100907.64
100910.79
100911.74
100910.54
100907.28
100902.02
100894.85
100885.84
100875.08
100862.63
100848.6
100833
100816.06
100797.51
100778.07
100756.53
100735.32
100710.03
100688.84
100656.76
100640.85
100593.8
100599.06
100509.11
100575.59
100377.63
100602.04
100184.09
100656.08
99065.838
99128.67
99132.678
99193.748
99206.317
99262.163
99284.691
99335.622
99366.749
99414.641
99452.236
99499.014
99541.195
99588.215
99633.629
99681.61
99729.348
99778.512
99827.925
99878.16
99928.709
99979.694
100030.85
100082.12
100133.32
100184.31
100234.93
100285.02
100334.41
100382.92
100430.38
100476.62
100521.47
100564.77
100606.36
100646.1
100683.84
100719.46
100752.86
100783.93
100812.61
100838.83
100862.55
100883.74
100902.39
100918.5
100932.1
100943.22
100951.89
100958.18
100962.16
100963.88
100963.43
100960.9
100956.36
100949.89
100941.6
100931.56
100919.85
100906.57
100891.78
100875.58
100858.01
100839.18
100819.06
100797.91
100775.33
100752.23
100726.92
100702.76
100673.22
100650.82
100611.35
100601.8
100532.72
100568.41
100410.19
100584.07
100215.21
100642.93
99135.618
99203.579
99207.603
99273.585
99286.895
99347.018
99371.119
99425.711
99459.074
99510.2
99550.426
99600.199
99645.175
99695.054
99743.267
99793.988
99844.416
99896.161
99948.067
100000.65
100053.41
100106.43
100159.42
100212.31
100264.89
100317
100368.45
100419.07
100468.66
100517.04
100564.03
100609.43
100653.09
100694.84
100734.51
100771.98
100807.12
100839.82
100870
100897.58
100922.52
100944.78
100964.36
100981.25
100995.5
101007.13
101016.2
101022.79
101026.96
101028.8
101028.41
101025.88
101021.31
101014.8
101006.46
100996.38
100984.66
100971.39
100956.66
100940.55
100923.14
100904.51
100884.72
100863.83
100841.87
100818.95
100794.94
100770.2
100744.06
100717.89
100688.84
100662.69
100627.31
100608.06
100552.07
100566.93
100436.97
100570.63
100242.43
100632.28
99228.175
99301.671
99305.724
99377.152
99391.294
99456.16
99482.042
99540.673
99576.562
99631.239
99674.411
99727.459
99775.524
99828.509
99879.762
99933.422
99986.714
100041.17
100095.66
100150.63
100205.59
100260.56
100315.26
100369.57
100423.27
100476.16
100528.04
100578.71
100627.96
100675.59
100721.42
100765.25
100806.91
100846.24
100883.1
100917.37
100948.94
100977.73
101003.67
101026.75
101046.93
101064.23
101078.68
101090.32
101099.23
101105.48
101109.16
101110.39
101109.28
101105.93
101100.48
101093.05
101083.76
101072.73
101060.07
101045.9
101030.32
101013.43
100995.32
100976.07
100955.76
100934.46
100912.22
100889.1
100865.13
100840.36
100814.76
100788.46
100761.21
100733.52
100704.21
100675.73
100642.34
100617.25
100569.25
100569.09
100461.14
100563.13
100269.76
100632.84
99342.877
99422.635
99426.897
99504.5
99519.787
99589.948
99618.045
99681.118
99720.003
99778.558
99825.102
99881.709
99933.206
99989.533
100044.07
100100.84
100157.14
100214.38
100271.47
100328.79
100385.84
100442.59
100498.76
100554.17
100608.57
100661.76
100713.51
100763.59
100811.79
100857.9
100901.72
100943.06
100981.76
101017.68
101050.68
101080.68
101107.59
101131.38
101152.01
101169.51
101183.89
101195.21
101203.55
101209
101211.69
101211.72
101209.23
101204.38
101197.3
101188.15
101177.08
101164.22
101149.74
101133.75
101116.39
101097.78
101078.03
101057.23
101035.49
101012.88
100989.47
100965.32
100940.48
100915
100888.89
100862.2
100834.91
100807.05
100778.53
100749.5
100719.49
100689.43
100656.77
100627.83
100585.35
100573.51
100483.26
100559.93
100295.62
100636.29
99482.189
99569.186
99573.76
99658.218
99674.854
99750.784
99781.465
99849.31
99891.608
99954.311
100004.61
100065.02
100120.24
100180.11
100238.14
100298.14
100357.54
100417.58
100477.24
100536.79
100595.74
100654.01
100711.27
100767.33
100821.91
100874.77
100925.67
100974.36
101020.62
101064.23
101105.01
101142.77
101177.37
101208.69
101236.63
101261.14
101282.17
101299.75
101313.88
101324.63
101332.09
101336.37
101337.59
101335.9
101331.46
101324.44
101315.03
101303.39
101289.72
101274.19
101256.97
101238.23
101218.14
101196.83
101174.44
101151.1
101126.93
101102.01
101076.45
101050.3
101023.65
100996.54
100969
100941.08
100912.78
100884.13
100855.1
100825.7
100795.87
100765.64
100734.79
100703.58
100671.04
100639.64
100600.84
100580.07
100504.5
100559.94
100321.74
100643.3
99647.757
99743.124
99747.892
99839.906
99858.081
99940.217
99973.883
100046.8
100092.97
100160.08
100214.53
100278.98
100338.24
100401.85
100463.55
100526.88
100589.41
100652.22
100714.32
100775.88
100836.42
100895.78
100953.62
101009.7
101063.72
101115.41
101164.52
101210.78
101253.98
101293.91
101330.39
101363.26
101392.41
101417.76
101439.26
101456.91
101470.73
101480.77
101487.14
101489.95
101489.35
101485.5
101478.61
101468.86
101456.46
101441.64
101424.62
101405.6
101384.8
101362.42
101338.65
101313.68
101287.68
101260.79
101233.17
101204.92
101176.18
101147.02
101117.53
101087.78
101057.81
101027.69
100997.42
100967.03
100936.53
100905.91
100875.16
100844.24
100813.12
100781.76
100750.04
100717.96
100685.22
100652.32
100616.07
100588.79
100525.39
100561.94
100347.98
100653.57
99839.807
99944.624
99949.589
100050.06
100070.18
100159.12
100196.37
100274.8
100325.44
100397.35
100456.45
100525.27
100588.92
100656.49
100722.04
100788.78
100854.43
100919.88
100984.19
101047.43
101109.07
101168.93
101226.62
101281.86
101334.34
101383.76
101429.87
101472.41
101511.15
101545.93
101576.59
101603.02
101625.16
101642.98
101656.5
101665.78
101670.92
101672.05
101669.33
101662.96
101653.16
101640.15
101624.19
101605.53
101584.43
101561.15
101535.94
101509.05
101480.7
101451.13
101420.53
101389.1
101357
101324.4
101291.42
101258.2
101224.82
101191.39
101157.96
101124.6
101091.34
101058.21
101025.24
100992.43
100959.76
100927.23
100894.8
100862.44
100830.09
100797.69
100765.15
100732.41
100699.35
100665.66
100631.11
100599.37
100546.23
100565.96
100375.78
100666.34
100058.78
100174.46
100179.87
100289.91
100312.56
100409.03
100450.63
100535.11
100590.95
100668.09
100732.4
100805.95
100874.33
100946.07
101015.6
101085.74
101154.39
101222.21
101288.32
101352.66
101414.7
101474.18
101530.69
101583.93
101633.56
101679.28
101720.85
101758.01
101790.6
101818.47
101841.52
101859.71
101873.05
101881.59
101885.43
101884.73
101879.65
101870.43
101857.32
101840.57
101820.48
101797.35
101771.49
101743.2
101712.77
101680.51
101646.69
101611.58
101575.43
101538.46
101500.88
101462.89
101424.66
101386.32
101348.01
101309.84
101271.89
101234.25
101196.96
101160.07
101123.6
101087.57
101051.99
101016.84
100982.1
100947.75
100913.75
100880.03
100846.56
100813.25
100780
100746.75
100713.38
100679.43
100645.91
100611.31
100566.94
100571.78
100405.25
100680.38
100306.62
100434.86
100440.93
100561.75
100587.59
100692.34
100739.16
100830.22
100892.03
100974.84
101044.92
101123.52
101196.93
101272.96
101346.46
101419.84
101491.15
101560.85
101628.07
101692.63
101754.02
101811.88
101865.81
101915.47
101960.53
102000.72
102035.79
102065.57
102089.93
102108.79
102122.15
102130.06
102132.61
102129.97
102122.35
102109.98
102093.16
102072.2
102047.43
102019.2
101987.88
101953.81
101917.36
101878.87
101838.68
101797.1
101754.42
101710.93
101666.88
101622.48
101577.95
101533.46
101489.18
101445.22
101401.72
101358.75
101316.39
101274.7
101233.71
101193.46
101153.95
101115.18
101077.14
101039.8
101003.15
100967.12
100931.68
100896.75
100862.29
100828.2
100794.38
100760.79
100727.21
100693.39
100660.49
100624.47
100587.38
100579.41
100436.34
100694.59
100585.53
100728.16
100735.11
100867.98
100897.82
101011.62
101064.65
101162.86
101231.48
101320.44
101396.81
101480.74
101559.36
101639.66
101716.94
101793.16
101866.51
101937.24
102004.49
102068
102127.2
102181.73
102231.16
102275.17
102313.44
102345.76
102371.95
102391.9
102405.58
102413.03
102414.36
102409.73
102399.38
102383.59
102362.68
102337.01
102306.98
102273
102235.48
102194.84
102151.52
102105.91
102058.41
102009.4
101959.22
101908.2
101856.64
101804.81
101752.95
101701.28
101649.98
101599.21
101549.11
101499.79
101451.34
101403.84
101357.33
101311.85
101267.42
101224.05
101181.73
101140.45
101100.16
101060.85
101022.47
100984.95
100948.25
100912.29
100877.01
100842.3
100808.09
100774.31
100740.69
100707.28
100674.74
100638.5
100607.22
100588.46
100467.79
100707.83
100896.8
101056.27
101064.59
101211.08
101246.04
101369.82
101430.27
101536.29
101612.62
101708.2
101791.34
101880.77
101964.6
102048.91
102129.44
102207.71
102282.03
102352.45
102418.11
102478.67
102533.56
102582.4
102624.8
102660.46
102689.15
102710.73
102725.14
102732.41
102732.63
102726
102712.76
102693.25
102667.83
102636.93
102601.02
102560.55
102516.04
102467.98
102416.87
102363.18
102307.38
102249.91
102191.18
102131.59
102071.47
102011.14
101950.9
101890.99
101831.63
101773.01
101715.29
101658.61
101603.07
101548.77
101495.76
101444.09
101393.78
101344.86
101297.32
101251.15
101206.32
101162.79
101120.54
101079.5
101039.63
101000.85
100963.11
100926.32
100890.41
100855.29
100820.87
100787.07
100753.61
100720.83
100688.56
100653.07
100626.19
100598.48
100499.06
100720.44
101244.03
101422.99
101433.26
101594.99
101636.34
101771.01
101840.17
101954.62
102039.5
102142.05
102232.21
102327.06
102415.74
102503.37
102586.14
102665.09
102738.67
102806.72
102868.43
102923.38
102971.05
103011.07
103043.14
103067.07
103082.75
103090.19
103089.5
103080.87
103064.59
103041.04
103010.66
102973.94
102931.42
102883.67
102831.27
102774.81
102714.87
102652.03
102586.83
102519.79
102451.39
102382.08
102312.28
102242.35
102172.62
102103.38
102034.9
101967.38
101901.02
101835.98
101772.36
101710.29
101649.82
101591.02
101533.93
101478.55
101424.89
101372.94
101322.69
101274.09
101227.1
101181.68
101137.76
101095.29
101054.21
101014.43
100975.89
100938.5
100902.18
100866.85
100832.43
100798.79
100765.74
100733.73
100701.79
100667.85
100644.29
100609.45
100529.67
100732.42
101630.65
101832.21
101845.2
102023.95
102073.29
102219.72
102299.02
102422.45
102516.57
102626.28
102723.39
102823.15
102915.76
103005.4
103088.62
103166.05
103236.27
103298.96
103353.36
103399.06
103435.63
103462.83
103480.48
103488.59
103487.23
103476.65
103457.18
103429.24
103393.36
103350.12
103300.17
103244.17
103182.84
103116.85
103046.92
102973.71
102897.87
102820
102740.68
102660.42
102579.71
102498.97
102418.59
102338.89
102260.17
102182.68
102106.64
102032.21
101959.53
101888.73
101819.88
101753.05
101688.28
101625.58
101564.96
101506.41
101449.9
101395.41
101342.88
101292.28
101243.53
101196.57
101151.34
101107.77
101065.77
101025.28
100986.2
100948.47
100911.99
100876.67
100842.46
100809.18
100776.78
100745.64
100714.24
100682.5
100661.21
100621.14
100559.39
100743.31
102060.71
102288.58
102305.38
102503.01
102562.23
102721.26
102812.28
102945.2
103048.92
103165.51
103268.91
103372.36
103467.13
103556.44
103637.23
103709.78
103772.77
103825.86
103868.38
103900.05
103920.61
103930.02
103928.39
103915.95
103893.1
103860.36
103818.35
103767.76
103709.38
103644.02
103572.5
103495.68
103414.37
103329.37
103241.46
103151.34
103059.68
102967.09
102874.12
102781.27
102688.96
102597.58
102507.46
102418.88
102332.06
102247.22
102164.49
102084.01
102005.86
101930.12
101856.81
101785.96
101717.57
101651.64
101588.12
101526.99
101468.19
101411.66
101357.36
101305.2
101255.11
101207.02
101160.85
101116.51
101073.93
101033.02
100993.69
100955.87
100919.47
100884.41
100850.61
100817.91
100786.4
100756.2
100725.61
100696.48
100676.45
100633.26
100588.17
100752.19
102539.41
102797.9
102819.92
103038.12
103109.43
103281.73
103385.95
103528.72
103641.88
103764.25
103872.27
103977.03
104070.86
104156.12
104230.08
104292.81
104343.19
104380.94
104405.65
104417.26
104415.85
104401.72
104375.33
104337.3
104288.39
104229.45
104161.44
104085.33
104002.14
103912.89
103818.57
103720.13
103618.48
103514.46
103408.85
103302.36
103195.63
103089.2
102983.59
102879.21
102776.44
102675.58
102576.88
102480.55
102386.77
102295.65
102207.3
102121.76
102039.1
101959.31
101882.39
101808.33
101737.09
101668.63
101602.88
101539.78
101479.26
101421.25
101365.67
101312.42
101261.44
101212.62
101165.88
101121.13
101078.29
101037.27
100997.99
100960.35
100924.28
100889.71
100856.53
100824.64
100794.19
100765.02
100735.6
100709.31
100689.8
100645.66
100615.63
100758.58
103072.27
103366.45
103396.06
103636.83
103723.72
103910.17
104027.48
104178.25
104299.94
104425.98
104535.48
104637.56
104725.52
104801.02
104861.78
104907.81
104938.36
104953.4
104952.96
104937.4
104907.29
104863.39
104806.65
104738.13
104659
104570.47
104473.8
104370.21
104260.91
104147.05
104029.7
103909.87
103788.46
103666.29
103544.08
103422.49
103302.05
103183.25
103066.48
102952.08
102840.32
102731.42
102625.55
102522.84
102423.37
102327.2
102234.37
102144.88
102058.71
101975.84
101896.21
101819.77
101746.46
101676.19
101608.88
101544.45
101482.8
101423.84
101367.48
101313.62
101262.17
101213.03
101166.1
101121.3
101078.52
101037.7
100998.73
100961.54
100926.04
100892.18
100859.84
100828.96
100799.73
100771.67
100743.81
100720.35
100700.62
100657.5
100641
100762.5
103666.96
104003.3
104044.68
104308.97
104413.78
104612.64
104742.89
104900.92
105027.54
105153
105258.43
105351.2
105425.67
105483.06
105521.73
105541.92
105543.48
105526.93
105492.94
105442.49
105376.77
105297.14
105205.05
105102.04
104989.66
104869.41
104742.78
104611.14
104475.79
104337.91
104198.56
104058.67
103919.09
103780.53
103643.6
103508.82
103376.63
103247.37
103121.33
102998.72
102879.72
102764.44
102652.96
102545.32
102441.55
102341.63
102245.52
102153.19
102064.56
101979.57
101898.13
101820.15
101745.53
101674.16
101605.96
101540.8
101478.59
101419.22
101362.57
101308.56
101257.06
101207.99
101161.23
101116.71
101074.32
101033.97
100995.59
100959.09
100924.4
100891.45
100860.14
100830.46
100802.55
100775.71
100749.76
100728.84
100708.35
100668.13
100663.13
100763.57
104347.03
104729.38
104785.26
105069.81
105188.53
105396.37
105538.66
105700.06
105826.24
105943.46
106035.78
106108.99
106158.89
106186.7
106191.75
106174.9
106136.9
106079.1
106002.99
105910.34
105803.02
105682.96
105552.11
105412.38
105265.56
105113.33
104957.25
104798.71
104638.95
104479.05
104319.94
104162.44
104007.2
103854.78
103705.63
103560.12
103418.53
103281.06
103147.87
103019.06
102894.69
102774.78
102659.32
102548.27
102441.59
102339.2
102241.01
102146.93
102056.87
101970.69
101888.3
101809.57
101734.37
101662.6
101594.13
101528.83
101466.59
101407.3
101350.83
101297.08
101245.93
101197.29
101151.05
101107.12
101065.4
101025.81
100988.26
100952.68
100919
100887.15
100857.03
100828.71
100802.18
100776.71
100752.83
100733.93
100712.81
100677.28
100681.07
100761.47
105116.27
105542.71
105609.22
105908.89
106055.13
106282.58
106424.84
106578.27
106692.07
106787.68
106852.75
106891.82
106902.48
106886.48
106844.5
106778.43
106690.2
106582.15
106456.72
106316.41
106163.71
106001
105830.53
105654.35
105474.31
105292.08
105109.08
104926.54
104745.53
104566.9
104391.38
104219.54
104051.84
103888.65
103730.21
103576.72
103428.3
103285.02
103146.9
103013.95
102886.1
102763.3
102645.45
102532.46
102424.21
102320.58
102221.45
102126.67
102036.1
101949.62
101867.08
101788.33
101713.25
101641.69
101573.52
101508.62
101446.84
101388.08
101332.21
101279.11
101228.67
101180.8
101135.38
101092.32
101051.53
101012.93
100976.44
100941.98
100909.49
100878.89
100850.13
100823.28
100798.21
100774.27
100752.46
100735.34
100714.84
100684
100693.46
100755.65
105975.97
106447.25
106541.61
106878.92
107032
107245.79
107385.72
107516.64
107602.95
107659.95
107679.8
107666.97
107621.43
107546.22
107443.79
107317.39
107170.24
107005.66
106826.87
106636.91
106438.58
106234.41
106026.63
105817.18
105607.72
105399.64
105194.08
104991.99
104794.09
104600.98
104413.1
104230.77
104054.21
103883.57
103718.92
103560.29
103407.65
103260.94
103120.08
102984.95
102855.43
102731.38
102612.64
102499.06
102390.49
102286.75
102187.69
102093.15
102002.95
101916.95
101834.97
101756.88
101682.51
101611.72
101544.38
101480.34
101419.46
101361.63
101306.73
101254.63
101205.22
101158.4
101114.07
101072.13
101032.5
100995.09
100959.83
100926.66
100895.51
100866.3
100839
100813.7
100790.16
100767.87
100748.21
100732.9
100713.29
100685.86
100700.11
100747.31
106966.43
107494.91
107615.8
107946.71
108105.47
108297.52
108409.66
108495.8
108528.99
108523.07
108474.49
108389.17
108269.8
108121.24
107947.71
107753.76
107543.56
107321.06
107089.77
106852.81
106612.86
106372.18
106132.66
105895.83
105662.92
105434.89
105212.48
104996.24
104786.56
104583.71
104387.82
104199
104017.22
103842.45
103674.6
103513.55
103359.14
103211.22
103069.61
102934.13
102804.57
102680.73
102562.44
102449.49
102341.68
102238.84
102140.76
102047.28
101958.2
101873.36
101792.58
101715.71
101642.59
101573.06
101506.98
101444.21
101384.61
101328.07
101274.45
101223.64
101175.52
101130.01
101086.99
101046.38
101008.09
100972.04
100938.17
100906.41
100876.69
100848.96
100823.21
100799.48
100777.47
100756.91
100739.32
100725.39
100706.76
100683.77
100700.17
100734.67
108125.8
108684.54
108819.46
109128.99
109262.11
109400.24
109451.09
109459.87
109409.48
109313.81
109174.31
108998.94
108793.15
108563.38
108315.12
108053.55
107783.13
107507.7
107230.45
106953.99
106680.44
106411.42
106148.21
105891.75
105642.71
105401.55
105168.57
104943.93
104727.67
104519.76
104320.12
104128.59
103945
103769.15
103600.82
103439.78
103285.79
103138.61
102998.01
102863.73
102735.53
102613.2
102496.49
102385.2
102279.1
102177.99
102081.67
101989.94
101902.62
101819.52
101740.48
101665.32
101593.88
101526.02
101461.58
101400.43
101342.43
101287.46
101235.39
101186.12
101139.53
101095.52
101054
101014.88
100978.08
100943.52
100911.14
100880.88
100852.68
100826.48
100802.31
100780.14
100759.68
100740.87
100725.18
100712.31
100695.12
100677.01
100693.09
100716.08
109448.65
109993.77
110110.8
110360.44
110430.77
110475.01
110426.01
110323.1
110160.19
109952.86
109707.44
109433.78
109139.14
108830.53
108513.6
108193.09
107872.78
107555.62
107243.87
106939.22
106642.87
106355.66
106078.12
105810.55
105553.09
105305.72
105068.35
104840.8
104622.85
104414.23
104214.66
104023.83
103841.45
103667.2
103500.77
103341.85
103190.16
103045.4
102907.31
102775.58
102649.95
102530.19
102416.05
102307.29
102203.7
102105.05
102011.13
101921.76
101836.74
101755.89
101679.03
101606
101536.64
101470.79
101408.32
101349.08
101292.95
101239.8
101189.51
101141.98
101097.09
101054.76
101014.89
100977.39
100942.19
100909.22
100878.41
100849.71
100823.06
100798.43
100775.82
100755.18
100736.24
100719.17
100705.13
100693.17
100677.79
100664.21
100678.4
100692.04
110818.53
111350.11
111423.63
111560.23
111516.21
111416.23
111225.13
110979.47
110684.14
110356.03
110004.41
109639.16
109267.27
108894.59
108525.4
108162.9
107809.37
107466.35
107134.85
106815.44
106508.41
106213.79
105931.46
105661.21
105402.71
105155.61
104919.52
104694.03
104478.72
104273.18
104077.02
103889.82
103711.2
103540.8
103378.26
103223.23
103075.39
102934.44
102800.07
102671.98
102549.9
102433.59
102322.8
102217.28
102116.83
102021.21
101930.23
101843.69
101761.4
101683.18
101608.86
101538.29
101471.3
101407.74
101347.48
101290.39
101236.33
101185.19
101136.85
101091.21
101048.17
101007.63
100969.51
100933.72
100900.19
100868.86
100839.66
100812.54
100787.44
100764.35
100743.26
100724.07
100706.61
100691.16
100678.52
100667.38
100653.99
100644.2
100655.58
100662.09
112340.12
112715.63
112674.16
112601.33
112375.19
112084.56
111726.03
111330.74
110909.52
110476.79
110040.83
109608.7
109184.93
108772.78
108374.25
107990.54
107622.24
107269.51
106932.24
106610.1
106302.67
106009.44
105729.84
105463.3
105209.24
104967.07
104736.23
104516.21
104306.46
104106.52
103915.92
103734.21
103560.98
103395.85
103238.42
103088.35
102945.32
102809.01
102679.11
102555.32
102437.4
102325.08
102218.13
102116.31
102019.39
101927.18
101839.48
101756.08
101676.81
101601.5
101529.97
101462.09
101397.68
101336.62
101278.76
101223.98
101172.15
101123.17
101076.91
101033.29
100992.2
100953.55
100917.26
100883.25
100851.45
100821.79
100794.23
100768.69
100745.15
100723.56
100703.94
100686.15
100670.11
100656.14
100644.68
100634.35
100622.96
100616.13
100624.54
100626.09
113735.61
113722.6
113479.26
113143.04
112714.3
112242.74
111743.17
111236.2
110731.47
110237.43
109758.5
109297.5
108855.76
108433.9
108031.85
107649.21
107285.32
106939.39
106610.6
106298.08
106001
105718.51
105449.8
105194.09
104950.7
104718.95
104498.24
104287.99
104087.67
103896.78
103714.85
103541.46
103376.18
103218.63
103068.44
102925.29
102788.85
102658.8
102534.85
102416.74
102304.22
102197.04
102094.99
101997.83
101905.37
101817.4
101733.73
101654.19
101578.61
101506.81
101438.65
101373.98
101312.65
101254.54
101199.5
101147.42
101098.19
101051.69
101007.82
100966.49
100927.59
100891.05
100856.79
100824.72
100794.79
100766.93
100741.09
100717.21
100695.24
100675.18
100656.98
100640.55
100625.86
100613.2
100602.72
100593.13
100583.49
100579
100585.28
100582.45
114238.1
113920.23
113476.9
112956.15
112402.46
111841.55
111287.39
110749.54
110232.27
109738.08
109267.58
108820.79
108396.97
107995.04
107613.79
107252.05
106908.64
106582.46
106272.45
105977.62
105697.08
105430.06
105175.84
104933.72
104703.03
104483.16
104273.57
104073.71
103883.11
103701.31
103527.89
103362.45
103204.61
103054.02
102910.35
102773.29
102642.56
102517.9
102399.03
102285.74
102177.78
102074.94
101977
101883.76
101795.02
101710.59
101630.31
101554
101481.49
101412.65
101347.31
101285.33
101226.59
101170.96
101118.3
101068.51
101021.47
100977.08
100935.23
100895.85
100858.83
100824.09
100791.55
100761.14
100732.8
100706.47
100682.08
100659.58
100638.95
100620.14
100603.12
100587.81
100574.23
100562.53
100552.71
100544
100536.13
100532.1
100534.27
100531.95
112952.9
112683.5
112284.89
111803.37
111302.89
110798.28
110304.18
109825.95
109366.59
108927.25
108507.97
108108.32
107727.66
107365.21
107020.11
106691.51
106378.54
106080.39
105796.26
105525.41
105267.1
105020.66
104785.55
104561.23
104347.2
104142.96
103948.05
103762.04
103584.5
103415.06
103253.34
103099.01
102951.73
102811.21
102677.17
102549.34
102427.43
102311.19
102200.37
102094.74
101994.09
101898.21
101806.91
101720.01
101637.32
101558.68
101483.93
101412.91
101345.47
101281.46
101220.76
101163.23
101108.74
101057.18
101008.43
100962.38
100918.92
100877.96
100839.4
100803.16
100769.14
100737.26
100707.46
100679.65
100653.78
100629.78
100607.61
100587.2
100568.52
100551.53
100536.19
100522.46
100510.34
100499.88
100491.04
100483.51
100477.29
100473.57
100473.05
100471.83
108464.32
109421.18
109549.51
109570.37
109406.64
109176.19
108892.47
108585.51
108265.35
107942
107620.26
107303.89
106994.93
106694.8
106404.26
106123.77
105853.48
105593.41
105343.46
105103.43
104873.12
104652.22
104440.38
104237.29
104042.62
103856.08
103677.35
103506.16
103342.23
103185.29
103035.09
102891.36
102753.87
102622.41
102496.76
102376.7
102261.97
102152.37
102047.72
101947.83
101852.53
101761.64
101675.01
101592.48
101513.89
101439.09
101367.95
101300.33
101236.1
101175.13
101117.29
101062.47
101010.55
100961.42
100914.98
100871.12
100829.75
100790.76
100754.08
100719.62
100687.29
100657.02
100628.73
100602.35
100577.83
100555.09
100534.08
100514.76
100497.06
100480.97
100466.43
100453.4
100441.89
100431.87
100423.3
100416.13
100410.38
100406.25
100403.85
100402.78
110479.92
110523.94
110400.8
110147.56
109777.95
109340.75
108863.02
108364.3
107856.68
107346.44
106847.3
106358.48
105890.65
105439.11
105008.19
104609.53
104238.62
103906.92
103608.26
103341.25
103104.73
102894.72
102709.48
102545.74
102401.22
102272.22
102155.34
102048.55
101951.7
101868.32
101793.66
101724.57
101660.36
101600.08
101543.08
101488.88
101437.16
101387.69
101340.33
101294.94
101251.46
101209.83
101169.98
101131.89
101095.52
101060.8
101027.68
100996.11
100966.02
100937.36
100910.04
100884.03
100859.19
100835.54
100812.83
100791.24
100770.24
100750.44
100730.59
100712.42
100692.93
100676.5
100656.14
100642.19
100618.85
100609.33
100579.39
100578.14
100535.36
100550.16
100482.95
100527.72
100419.32
100514.28
100338.28
100515.52
100235.15
100536.69
100103.64
100588.57
97057.392
97259.56
97653.425
98078.656
98534.691
99019.847
99432.696
99787.341
100120.07
100417.97
100674.73
100898.9
101091.95
101256.41
101395.74
101511.26
101607.04
101682.63
101740.49
101781.55
101809.13
101823.6
101827.75
101820.82
101805.01
101781.76
101753.17
101721.05
101684.74
101646.58
101606.66
101565.26
101522.2
101478.5
101434.85
101391.65
101349.24
101307.86
101267.68
101228.8
101191.26
101155.09
101120.3
101086.88
101054.83
101024.11
100994.69
100966.55
100939.64
100913.92
100889.31
100865.81
100843.28
100821.76
100801
100781.2
100761.83
100743.5
100725.02
100708.02
100689.71
100674.12
100654.87
100641.33
100619.24
100609.51
100581.11
100579.04
100538.62
100551.38
100488.42
100528.87
100425.28
100515.93
100344.66
100517.92
100239.17
100542.37
100104.23
100596.76
104100
104134.36
104133.01
104104.33
104046.73
103967.32
103871.95
103764.54
103648.7
103528.87
103405.77
103282.29
103158.63
103036.77
102916.5
102801.02
102687.46
102582.43
102479.89
102386.89
102292.32
102208.89
102122.26
102048.38
101976.42
101911.83
101853.84
101798.47
101747.83
101686.7
101629.28
101575.2
101523.52
101474.28
101427.23
101382.17
101338.93
101297.4
101257.46
101219.07
101182.17
101146.74
101112.74
101080.13
101048.89
101018.97
100990.35
100963
100936.86
100911.89
100888.03
100865.25
100843.4
100822.54
100802.4
100783.19
100764.35
100746.54
100728.48
100711.89
100693.9
100678.61
100659.58
100646.19
100624.26
100614.47
100586.22
100583.91
100543.23
100555.63
100493.21
100532.17
100430.76
100518.15
100350.08
100519.37
100244.37
100543.96
100107.94
100599.57
101610.78
101613.04
101620.93
101635.95
101655.06
101674.93
101695.76
101718.13
101740.13
101762.42
101783.16
101803.01
101820.18
101834.85
101845.65
101853.07
101855.72
101854.57
101848.52
101838.68
101824.92
101807.86
101787.6
101762.7
101733.38
101700.06
101664.6
101626.69
101588.61
101550.64
101511.94
101473.27
101434.67
101396.3
101358.33
101320.93
101284.23
101248.35
101213.38
101179.4
101146.47
101114.63
101083.91
101054.32
101025.86
100998.53
100972.3
100947.18
100923.11
100900.07
100878
100856.88
100836.58
100817.14
100798.31
100780.31
100762.56
100745.76
100728.58
100712.82
100695.5
100680.89
100662.31
100649.49
100627.78
100618.5
100590.31
100588.4
100547.7
100560.41
100497.52
100537.06
100434.6
100522.91
100353.27
100524.13
100247.29
100548.3
100110.07
100603.48
102000.57
102008.29
102009.35
102007.9
102004.62
101999.21
101992.26
101984.9
101976.1
101966.56
101955.02
101943.45
101929.38
101915.05
101898.51
101879.98
101860.75
101837.68
101814.96
101787.8
101761.69
101730.83
101701.52
101667.89
101635.74
101601.35
101568.07
101533.37
101499.05
101464.55
101430.17
101395.97
101362.08
101328.56
101295.5
101262.96
101231
101199.69
101169.07
101139.2
101110.13
101081.89
101054.53
101028.07
101002.52
100977.9
100954.2
100931.42
100909.53
100888.52
100868.32
100848.94
100830.24
100812.29
100794.81
100778.04
100761.41
100745.61
100729.33
100714.36
100697.73
100683.7
100665.64
100653.21
100631.87
100622.78
100594.89
100592.97
100552.33
100564.9
100502.26
100541.33
100439.39
100526.87
100357.82
100527.58
100251.16
100551.69
100112.76
100606.66
101477.21
101482.53
101487.59
101494.81
101501.68
101508.73
101513.77
101520.15
101523.91
101528.75
101530.6
101532.58
101532
101531.55
101528.64
101525.27
101519.98
101514.06
101506.28
101497.74
101487.34
101476.33
101463.26
101449.24
101433.24
101416.05
101397.18
101377.17
101355.9
101333.72
101310.66
101286.91
101262.6
101237.86
101212.85
101187.7
101162.52
101137.46
101112.6
101088.06
101063.92
101040.25
101017.13
100994.6
100972.7
100951.47
100930.91
100911.05
100891.86
100873.35
100855.47
100838.21
100821.46
100805.29
100789.45
100774.16
100758.88
100744.26
100729.06
100715.01
100699.23
100685.87
100668.44
100656.46
100635.59
100626.74
100599.2
100597.28
100557.02
100569.31
100506.78
100545.61
100443.64
100530.89
100361.86
100531.34
100254.67
100555.11
100115.28
100609.69
101291.01
101297.93
101303.09
101308.96
101315.11
101321.03
101325.72
101330.83
101333.44
101337.71
101338.83
101342.3
101342.43
101344.39
101343.92
101343.22
101340.36
101337.58
101333.09
101328.05
101321.61
101314.27
101305.71
101296.09
101285.36
101273.59
101260.8
101247.04
101232.37
101216.85
101200.54
101183.55
101165.94
101147.82
101129.27
101110.39
101091.27
101072.02
101052.7
101033.42
101014.27
100995.31
100976.62
100958.25
100940.25
100922.66
100905.5
100888.8
100872.54
100856.75
100841.37
100826.43
100811.81
100797.58
100783.51
100769.81
100755.97
100742.63
100728.59
100715.52
100700.64
100687.98
100671.24
100659.69
100639.35
100630.67
100603.58
100601.55
100561.65
100573.59
100511.51
100549.73
100448.25
100534.73
100366.26
100534.78
100258.39
100558.3
100117.87
100612.47
101029.48
101036.47
101042.09
101048.79
101055.68
101062.77
101068.96
101076.8
101082.05