/*--------------------------------*- C++ -*----------------------------------*\
  =========                 |
  \\      /  F ield         | OpenFOAM: The Open Source CFD Toolbox
   \\    /   O peration     | Website:  https://openfoam.org
    \\  /    A nd           | Version:  6
     \\/     M anipulation  |
\*---------------------------------------------------------------------------*/
FoamFile
{
    version     2.0;
    format      ascii;
    class       surfaceScalarField;
    location    "550";
    object      phi;
}
// * * * * * * * * * * * * * * * * * * * * * * * * * * * * * * * * * * * * * //

dimensions      [1 0 -1 0 0 0 0];

internalField   nonuniform List<scalar> 
31760
(
-0.00058279766
-0.038478999
0.039061794
-0.0012960674
-0.042700835
0.043414101
-0.0020264816
-0.043800476
0.044530888
-0.0028118382
-0.046365909
0.047151262
-0.0036168384
-0.048198509
0.049003508
-0.0044767929
-0.05065848
0.051518431
-0.0053654479
-0.052882604
0.053771258
-0.0063066825
-0.055442266
0.056383497
-0.0072852749
-0.057966268
0.058944859
-0.0083162796
-0.060709574
0.061740576
-0.0093923964
-0.063511799
0.064587916
-0.0105228
-0.066487651
0.067618051
-0.011704514
-0.069572047
0.070753761
-0.01294361
-0.072817232
0.074056326
-0.014240004
-0.07620006
0.077496454
-0.015597995
-0.079746216
0.081104204
-0.017018788
-0.083451474
0.084872267
-0.018505695
-0.087330222
0.088817127
-0.020060725
-0.091386669
0.092941699
-0.021686956
-0.095631305
0.097257534
-0.023386643
-0.10007191
0.1017716
-0.025162875
-0.10471845
0.10649468
-0.027017644
-0.10958059
0.11143536
-0.028953849
-0.11466887
0.11660507
-0.030973824
-0.11999406
0.12201404
-0.033079655
-0.12556835
0.12767418
-0.035273678
-0.13140336
0.13359739
-0.037558194
-0.13751254
0.13979705
-0.039934828
-0.14390945
0.14628608
-0.042404963
-0.15060884
0.15307898
-0.044970315
-0.15762573
0.16019109
-0.047631674
-0.16497683
0.16763819
-0.050390133
-0.17267868
0.17543714
-0.053245598
-0.18074987
0.18360533
-0.056198029
-0.18920964
0.19216208
-0.059247045
-0.19807798
0.20112699
-0.062391764
-0.20737604
0.21052076
-0.065630074
-0.21712695
0.22036526
-0.068960115
-0.2273541
0.23068414
-0.072378833
-0.23808253
0.24150124
-0.07588289
-0.24933859
0.25284265
-0.079467657
-0.26115025
0.26473501
-0.083128238
-0.27354631
0.27720689
-0.086858142
-0.28655819
0.2902881
-0.090650525
-0.30021745
0.30400984
-0.094497342
-0.31455861
0.31840543
-0.098388828
-0.32961703
0.33350852
-0.10231461
-0.34543048
0.34935626
-0.10626266
-0.36203809
0.36598614
-0.1102188
-0.37948173
0.38343787
-0.11416795
-0.39780431
0.40175346
-0.11809221
-0.41705178
0.42097604
-0.12197184
-0.43727195
0.44115159
-0.12578422
-0.45851522
0.46232761
-0.12950465
-0.48083401
0.48455443
-0.13310456
-0.50428409
0.507884
-0.13655234
-0.52892374
0.53237153
-0.13981173
-0.55481434
0.55807373
-0.14284281
-0.58201894
0.58505002
-0.14560015
-0.61060498
0.61336232
-0.14803285
-0.64064343
0.64307613
-0.15008367
-0.67220703
0.67425785
-0.15168968
-0.70537467
0.70698068
-0.15277698
-0.74022488
0.74131218
-0.1532695
-0.77684484
0.77733736
-0.15306914
-0.81531634
0.81511597
-0.15208983
-0.85574057
0.85476126
-0.15019006
-0.89818116
0.89628139
-0.14729991
-0.94278717
0.93989702
-0.14318097
-0.98954407
0.98542513
-0.13785389
-1.0387608
1.0334337
-0.13086357
-1.0901391
1.0831488
-0.12248752
-1.1445429
1.1361669
-0.1117335
-1.2006627
1.1899087
-0.099561765
-1.2611878
1.2490161
-0.083962876
-1.3213337
1.3057348
-0.067094308
-1.3894319
1.3725633
-0.045580935
-1.451794
1.4302807
-0.022480936
-1.529037
1.505937
-1.5944986
1.5658859
-0.00056277975
-0.037916221
-0.0012354514
-0.042028166
-0.0019271107
-0.043108818
-0.0026692559
-0.045623767
-0.0034339915
-0.047433774
-0.0042474973
-0.049844977
-0.0050915047
-0.052038597
-0.0059843008
-0.054549473
-0.0069151426
-0.057035426
-0.0078956463
-0.059729074
-0.0089208049
-0.062486641
-0.0099982705
-0.065410188
-0.011126254
-0.068444063
-0.012310397
-0.071633092
-0.013550375
-0.074960082
-0.014850689
-0.078445905
-0.016212542
-0.08208962
-0.017639457
-0.085903309
-0.019133415
-0.08989271
-0.020697396
-0.094067326
-0.022333764
-0.098435544
-0.024045136
-0.10300708
-0.025834442
-0.10779128
-0.027703822
-0.11279949
-0.029655593
-0.11804229
-0.031692403
-0.12353155
-0.033816301
-0.12927946
-0.036029349
-0.13529949
-0.038332994
-0.14160581
-0.040729244
-0.14821259
-0.043219234
-0.15513574
-0.045803973
-0.1623921
-0.048484104
-0.16999855
-0.051259571
-0.1779744
-0.054130832
-0.18633838
-0.057096961
-0.19511185
-0.060156667
-0.20431634
-0.06330873
-0.21397489
-0.066550827
-0.224112
-0.069880021
-0.23475333
-0.073293052
-0.24592556
-0.07678573
-0.25765757
-0.080352894
-0.26997914
-0.08398902
-0.28292207
-0.087687343
-0.29651913
-0.091440417
-0.31080554
-0.095239273
-0.32581818
-0.099074168
-0.34159558
-0.1029337
-0.35817856
-0.10680553
-0.37560989
-0.11067507
-0.39393477
-0.11452646
-0.41320039
-0.11834156
-0.43345685
-0.1220999
-0.45475688
-0.12577853
-0.47715538
-0.1293517
-0.50071092
-0.13279029
-0.52548515
-0.1360623
-0.55154234
-0.13913043
-0.57895082
-0.14195349
-0.60778192
-0.14448608
-0.63811084
-0.14667547
-0.67001763
-0.14846468
-0.70358546
-0.14978717
-0.7389024
-0.15057115
-0.77606086
-0.15073396
-0.81515353
-0.15018664
-0.85628789
-0.14881824
-0.89954956
-0.14653532
-0.94507009
-0.14316745
-0.99291194
-0.13865375
-1.0432744
-0.13270011
-1.0960927
-0.12538393
-1.1518591
-0.11608639
-1.2099602
-0.10526749
-1.2720067
-0.091595814
-1.3350054
-0.076434964
-1.4045928
-0.057347143
-1.4708819
-0.03669174
-1.5496924
-1.6199993
-0.00053038557
-0.037385837
-0.0011789649
-0.041379589
-0.0018310682
-0.042456715
-0.002537444
-0.044917394
-0.0032614175
-0.046709801
-0.0040368891
-0.049069508
-0.004839447
-0.051236039
-0.0056918794
-0.053697043
-0.0065800626
-0.056147243
-0.007518456
-0.058790683
-0.0084998709
-0.061505225
-0.0095332337
-0.064376828
-0.010616407
-0.06736089
-0.011754727
-0.070494774
-0.012949015
-0.073765793
-0.014202598
-0.077192324
-0.015517734
-0.080774484
-0.016896945
-0.0845241
-0.018343218
-0.088446436
-0.0198589
-0.092551647
-0.021446824
-0.096847619
-0.023109808
-0.1013441
-0.024849635
-0.10605146
-0.026669691
-0.11097944
-0.028572148
-0.11613983
-0.030559127
-0.12154457
-0.032632765
-0.12720582
-0.034794954
-0.1331373
-0.037047706
-0.13935305
-0.039392412
-0.14586789
-0.041829905
-0.15269825
-0.044361711
-0.15986029
-0.046987749
-0.16737251
-0.049708817
-0.17525333
-0.052524276
-0.18352293
-0.055433613
-0.19220251
-0.058435655
-0.20131429
-0.061528665
-0.21088188
-0.064710617
-0.22093005
-0.067979188
-0.23148476
-0.071330316
-0.24257443
-0.074760582
-0.25422731
-0.078265278
-0.26647445
-0.081839184
-0.27934816
-0.085475973
-0.29288234
-0.089168542
-0.30711297
-0.092909132
-0.32207759
-0.096688674
-0.33781604
-0.10049718
-0.35437006
-0.10432307
-0.37178401
-0.10815351
-0.39010433
-0.11197409
-0.40937981
-0.11576832
-0.42966262
-0.1195181
-0.4510071
-0.12320291
-0.47347057
-0.12679938
-0.49711444
-0.13028167
-0.52200286
-0.1336205
-0.54820351
-0.13678291
-0.57578841
-0.13973203
-0.6048328
-0.1424261
-0.63541676
-0.14481899
-0.66762474
-0.14685809
-0.70154636
-0.14848516
-0.73727533
-0.1496344
-0.77491161
-0.15022969
-0.81455825
-0.15019519
-0.85632238
-0.14942949
-0.90031527
-0.14783858
-0.94666099
-0.14529165
-0.99545887
-0.14169649
-1.0468696
-0.13684178
-1.1009474
-0.13070268
-1.1579982
-0.12287776
-1.2177852
-0.11357148
-1.281313
-0.10184558
-1.3467312
-0.088584148
-1.4178542
-0.071969048
-1.487497
-0.053666181
-1.5679953
-1.6423137
-0.00050050517
-0.036885334
-0.0011301465
-0.04074995
-0.0017490177
-0.041837846
-0.0024252849
-0.044241129
-0.0031154445
-0.046019642
-0.0038588117
-0.048326143
-0.0046271354
-0.050467716
-0.0054458737
-0.052878307
-0.0062993334
-0.055293783
-0.0072029851
-0.057887033
-0.0081493968
-0.060558814
-0.0091475592
-0.063378667
-0.010195289
-0.066313159
-0.011298423
-0.069391641
-0.012457146
-0.072607068
-0.01367563
-0.075973842
-0.014955487
-0.079494625
-0.01630017
-0.083179419
-0.0177119
-0.087034704
-0.019193822
-0.091069727
-0.020748262
-0.095293177
-0.022377827
-0.099714532
-0.024085519
-0.10434376
-0.025873661
-0.1091913
-0.027744432
-0.11426906
-0.029700431
-0.11958857
-0.031743392
-0.12516286
-0.033875564
-0.13100513
-0.036098354
-0.13713026
-0.038413314
-0.14355293
-0.040821432
-0.15029013
-0.043323474
-0.15735825
-0.045920178
-0.16477581
-0.048611187
-0.17256233
-0.051396269
-0.18073784
-0.054275036
-0.18932375
-0.057246119
-0.19834321
-0.060307881
-0.20782012
-0.063458335
-0.2177796
-0.06669485
-0.22824825
-0.070014537
-0.23925474
-0.073413568
-0.25082828
-0.07688771
-0.2630003
-0.080432208
-0.27580366
-0.084041491
-0.28927306
-0.087709331
-0.30344513
-0.091428709
-0.31835821
-0.095191682
-0.33405307
-0.098989244
-0.35057249
-0.10281129
-0.36796196
-0.10664686
-0.38626876
-0.11048258
-0.4055441
-0.11430468
-0.42584052
-0.11809701
-0.44721478
-0.12184091
-0.46972666
-0.12551646
-0.49343889
-0.12910097
-0.51841835
-0.13256797
-0.54473651
-0.13588868
-0.5724677
-0.13903047
-0.60169101
-0.14195647
-0.63249076
-0.14462536
-0.66495585
-0.14699101
-0.69918071
-0.14900089
-0.73526545
-0.15059693
-0.77331557
-0.15171332
-0.81344186
-0.15227624
-0.85575946
-0.15220118
-0.90039033
-0.15140124
-0.94746093
-0.14976486
-0.99709525
-0.14719057
-1.0494439
-0.14352429
-1.1046137
-0.13868863
-1.1628338
-0.13240249
-1.2240713
-0.12474653
-1.2889689
-0.11502351
-1.3564543
-0.10381646
-1.4290613
-0.089737034
-1.5015764
-0.07406097
-1.5836713
-1.6614518
-0.00047324741
-0.03641209
-0.0010872176
-0.040135985
-0.0016777706
-0.041247296
-0.0023295633
-0.043589341
-0.0029918416
-0.045357367
-0.003709656
-0.047608333
-0.004450837
-0.049726537
-0.0052435783
-0.05208557
-0.0060706929
-0.05446667
-0.0069482064
-0.057009523
-0.0078690227
-0.059637998
-0.0088422012
-0.062405492
-0.0098656162
-0.065289745
-0.010944728
-0.068312532
-0.012080421
-0.071471375
-0.013276829
-0.074777436
-0.014535707
-0.078235747
-0.015860514
-0.081854614
-0.017253531
-0.085641686
-0.01871765
-0.089605611
-0.020255927
-0.0937549
-0.021870842
-0.098099619
-0.02356516
-0.10264945
-0.02534094
-0.10741552
-0.027201209
-0.11240879
-0.029147755
-0.11764203
-0.031182847
-0.12312777
-0.033307928
-0.12888005
-0.035525048
-0.13491314
-0.037834813
-0.14124317
-0.040238831
-0.14788611
-0.042737409
-0.15485968
-0.045330968
-0.16218225
-0.048019521
-0.16987377
-0.050802706
-0.17795466
-0.053679386
-0.18644707
-0.056648817
-0.19537378
-0.059709542
-0.20475939
-0.062859277
-0.21462986
-0.066095624
-0.2250119
-0.069416191
-0.23593418
-0.072817405
-0.24742706
-0.07629559
-0.25952212
-0.079846729
-0.27225253
-0.083465813
-0.28565397
-0.08714775
-0.2997632
-0.090886206
-0.31461975
-0.094674428
-0.33026485
-0.098504956
-0.34674197
-0.1023693
-0.36409762
-0.10625739
-0.38238066
-0.11015901
-0.40164249
-0.11406153
-0.42193799
-0.11795127
-0.44332504
-0.12181296
-0.46586497
-0.12562879
-0.48962307
-0.1293789
-0.51466824
-0.13304128
-0.54107413
-0.1365907
-0.56891828
-0.13999877
-0.59828295
-0.14323323
-0.6292563
-0.14625843
-0.66193065
-0.14903375
-0.69640539
-0.15151366
-0.73278554
-0.15364699
-0.77118225
-0.15537572
-0.81171312
-0.15663489
-0.8545003
-0.15735226
-0.89967296
-0.15744785
-0.94736534
-0.15682342
-0.99771968
-0.15539008
-1.0508773
-0.1530173
-1.1069865
-0.14961561
-1.1662355
-0.14497468
-1.2287122
-0.13910024
-1.2948434
-0.13148852
-1.364066
-0.12249511
-1.4380547
-0.11102949
-1.513042
-0.098089487
-1.5966113
-1.6773251
-0.0004519614
-0.03596013
-0.001045354
-0.039542594
-0.0016146736
-0.040677977
-0.0022494466
-0.04295457
-0.0028919759
-0.044714838
-0.0035924962
-0.046907815
-0.0043155938
-0.04900344
-0.0050915785
-0.051309587
-0.005902303
-0.053655945
-0.006764615
-0.056147213
-0.0076709358
-0.058731677
-0.0086307241
-0.061445705
-0.0096422991
-0.064278169
-0.010711093
-0.06724374
-0.011838196
-0.070344271
-0.013027261
-0.073588373
-0.014281015
-0.076981991
-0.01560228
-0.080533351
-0.016994124
-0.084249841
-0.018459479
-0.088140257
-0.020000709
-0.092213669
-0.021621238
-0.096479092
-0.023323022
-0.10094766
-0.025109129
-0.10562941
-0.026981545
-0.11053638
-0.028942439
-0.11568114
-0.030993918
-0.12107629
-0.033137485
-0.12673649
-0.035374576
-0.13267605
-0.037706348
-0.1389114
-0.040133707
-0.14545875
-0.042656799
-0.15233658
-0.045276168
-0.15956288
-0.047991493
-0.16715845
-0.050802327
-0.17514382
-0.053707912
-0.18354149
-0.056707147
-0.19237454
-0.05979859
-0.20166795
-0.062980385
-0.21144807
-0.066250599
-0.22174169
-0.069606735
-0.23257804
-0.073046016
-0.24398778
-0.076565654
-0.25600248
-0.080161718
-0.26865646
-0.083830587
-0.2819851
-0.087567876
-0.29602591
-0.091368809
-0.31081882
-0.095228116
-0.32640554
-0.099139122
-0.34283096
-0.10309534
-0.3601414
-0.10708909
-0.37838692
-0.11111133
-0.39762024
-0.11515232
-0.41789701
-0.11920062
-0.43927674
-0.12324336
-0.46182222
-0.12726629
-0.48560014
-0.13125297
-0.51068156
-0.1351845
-0.5371426
-0.1390401
-0.56506268
-0.14279516
-0.59452788
-0.14642345
-0.62562801
-0.14989364
-0.65846046
-0.15317168
-0.69312734
-0.15621851
-0.72973871
-0.1589901
-0.76841065
-0.16143663
-0.80926659
-0.16350318
-0.85243375
-0.16512621
-0.89804993
-0.1662322
-0.94625936
-0.16674593
-0.99720594
-0.16657649
-1.0510467
-0.16562476
-1.1079382
-0.16379316
-1.1680671
-0.16092758
-1.2315778
-0.15699147
-1.2987795
-0.15161175
-1.3694457
-0.14500304
-1.4446634
-0.13628643
-1.5217586
-0.12628
-1.6066178
-1.6898395
-0.00043730533
-0.035522827
-0.0010105243
-0.038969378
-0.0015656881
-0.040122815
-0.0021910722
-0.042329189
-0.0028220867
-0.044083824
-0.0035138685
-0.046216036
-0.0042283556
-0.048288953
-0.0049972813
-0.050540664
-0.0058024921
-0.052850735
-0.0066606655
-0.055289042
-0.0075650136
-0.057827329
-0.0085245313
-0.06048619
-0.0095379727
-0.063264727
-0.010610701
-0.066171014
-0.011744688
-0.069210284
-0.012943321
-0.072389743
-0.014209233
-0.075716078
-0.015546097
-0.079196489
-0.016956195
-0.082839744
-0.018443063
-0.086653391
-0.020009366
-0.090647366
-0.021657712
-0.094830749
-0.023391208
-0.099214164
-0.025211751
-0.10380887
-0.027121648
-0.10862648
-0.029123312
-0.11367947
-0.031218205
-0.1189814
-0.033407998
-0.1245467
-0.035693605
-0.13039044
-0.03807612
-0.13652888
-0.040556238
-0.14297863
-0.043134317
-0.14975851
-0.045810151
-0.15688705
-0.048583821
-0.16438478
-0.051454499
-0.17227315
-0.054421584
-0.1805744
-0.057484107
-0.18931202
-0.060640371
-0.19851169
-0.063889632
-0.20819881
-0.067229595
-0.21840173
-0.070658663
-0.22914897
-0.07417481
-0.24047164
-0.07777541
-0.25240188
-0.081458294
-0.26497358
-0.085220548
-0.27822285
-0.089058932
-0.29218752
-0.092969868
-0.30690788
-0.096949428
-0.32242598
-0.10099355
-0.33878684
-0.1050968
-0.35603815
-0.1092536
-0.37423012
-0.11345718
-0.39341666
-0.11770027
-0.41365391
-0.12197422
-0.4350028
-0.12626897
-0.45752748
-0.1305734
-0.48129571
-0.13487416
-0.5063808
-0.13915687
-0.53285989
-0.14340406
-0.56081549
-0.147597
-0.59033494
-0.15171292
-0.62151209
-0.15572725
-0.65444613
-0.15961115
-0.68924344
-0.16333273
-0.72601714
-0.16685549
-0.76488789
-0.17013827
-0.80598381
-0.17313233
-0.8494397
-0.17578484
-0.89539742
-0.17803835
-0.94400585
-0.17982386
-0.99542044
-0.18106649
-1.0498041
-0.18167992
-1.1073248
-0.18157923
-1.1681678
-0.18064024
-1.2325168
-0.17880794
-1.3006118
-0.17580885
-1.3724448
-0.17176763
-1.4487046
-0.16596542
-1.5275608
-0.15907202
-1.6135112
-1.6988674
-0.00042853814
-0.03509429
-0.00099534955
-0.038402569
-0.0015432535
-0.039574911
-0.0021666006
-0.041705844
-0.0027945478
-0.043455877
-0.0034862311
-0.045524355
-0.0042019755
-0.047573209
-0.0049743485
-0.049768293
-0.0057854491
-0.052039634
-0.0066516701
-0.054422822
-0.0075672634
-0.056911735
-0.0085404818
-0.059512973
-0.0095713886
-0.06223382
-0.010664994
-0.06507741
-0.011823154
-0.068052123
-0.013050018
-0.071162879
-0.01434826
-0.074417836
-0.015721103
-0.077823648
-0.017171963
-0.081388883
-0.018703425
-0.085121931
-0.020318805
-0.089031985
-0.02202058
-0.093128974
-0.023811319
-0.097423424
-0.025693625
-0.10192657
-0.027669397
-0.10665071
-0.029740308
-0.11160856
-0.031908087
-0.11681362
-0.034173862
-0.12228092
-0.036538859
-0.12802545
-0.039003566
-0.13406418
-0.041568416
-0.14041378
-0.044233518
-0.14709341
-0.04699888
-0.15412168
-0.049863901
-0.16151976
-0.052828439
-0.16930861
-0.05589181
-0.17751103
-0.059052591
-0.18615124
-0.062310565
-0.19525371
-0.065664277
-0.2048451
-0.069112865
-0.21495314
-0.072654696
-0.22560714
-0.076288939
-0.23683739
-0.080014224
-0.24867659
-0.083829017
-0.26115879
-0.087731626
-0.27432024
-0.091720205
-0.28819895
-0.095793279
-0.30283481
-0.099948386
-0.31827087
-0.10418258
-0.33455264
-0.10849329
-0.35172744
-0.11287677
-0.36984664
-0.11732893
-0.3889645
-0.12184484
-0.40913801
-0.12641851
-0.43042913
-0.13104359
-0.45290239
-0.13571129
-0.47662801
-0.14041295
-0.50167914
-0.14513735
-0.52813549
-0.14987209
-0.55608075
-0.15460208
-0.58560495
-0.159311
-0.61680317
-0.16397897
-0.64977816
-0.16858395
-0.68463846
-0.1731005
-0.72150059
-0.17749954
-0.76048885
-0.18174819
-0.80173515
-0.18580796
-0.84537993
-0.18963685
-0.89156853
-0.19318389
-0.94045882
-0.19639627
-0.99220805
-0.19920915
-1.0469912
-0.20155204
-1.1049819
-0.20335478
-1.1663651
-0.20452104
-1.2313505
-0.20498588
-1.3001469
-0.20454998
-1.3728807
-0.20327758
-1.449977
-0.2005807
-1.5302577
-0.19700896
-1.6170829
-1.7042289
-0.00042537662
-0.034668915
-0.00099715187
-0.037830796
-0.0015458387
-0.039026226
-0.0021756252
-0.041076059
-0.0028102097
-0.042821293
-0.0035119323
-0.044822634
-0.0042404625
-0.046844679
-0.0050281337
-0.048980624
-0.0058585575
-0.05120921
-0.0067470505
-0.053534331
-0.0076892926
-0.055969493
-0.0086930259
-0.058509241
-0.0097590006
-0.061167845
-0.010892035
-0.063944377
-0.012094701
-0.066849457
-0.013371054
-0.069886528
-0.014723959
-0.07306493
-0.016156994
-0.076390614
-0.017673063
-0.079872814
-0.019275517
-0.083519478
-0.020967112
-0.08734039
-0.022750498
-0.09134559
-0.024627934
-0.095545987
-0.026601537
-0.099952966
-0.028673525
-0.10457872
-0.030845159
-0.10943693
-0.033117641
-0.11454114
-0.035492123
-0.11990644
-0.037969142
-0.12554843
-0.040549411
-0.13148391
-0.043232557
-0.13773064
-0.046019077
-0.14430689
-0.048908304
-0.15123246
-0.051900277
-0.15852779
-0.054994561
-0.16621432
-0.058190198
-0.1743154
-0.061487428
-0.18285401
-0.064885307
-0.19185583
-0.068383367
-0.20134704
-0.071981409
-0.2113551
-0.075679393
-0.22190916
-0.079476615
-0.23304017
-0.083372933
-0.24478028
-0.087368403
-0.25716332
-0.091463135
-0.27022551
-0.095656619
-0.28400546
-0.099948729
-0.2985427
-0.10433905
-0.31388055
-0.10882721
-0.33006448
-0.11341218
-0.34714248
-0.11809293
-0.36516589
-0.12286795
-0.38418948
-0.12773485
-0.40427111
-0.13269104
-0.42547293
-0.13773255
-0.44786089
-0.14285549
-0.47150507
-0.14805371
-0.49648091
-0.15332087
-0.52286833
-0.15864863
-0.55075299
-0.16402731
-0.58022626
-0.16944513
-0.61138535
-0.17488882
-0.64433447
-0.18034263
-0.67918465
-0.18578777
-0.71605544
-0.19120343
-0.75507319
-0.19656454
-0.79637405
-0.20184353
-0.84010093
-0.2070047
-0.88640736
-0.21201408
-0.93544944
-0.21682439
-0.98739774
-0.22138824
-1.0424273
-0.22565142
-1.1007187
-0.22955027
-1.1624662
-0.23301762
-1.2278832
-0.23599376
-1.2971708
-0.23833182
-1.3705426
-0.24005321
-1.4482556
-0.24068373
-1.5296272
-0.2406613
-1.6171053
-1.7056937
-0.00042909735
-0.034239817
-0.0010140424
-0.037245851
-0.001573088
-0.038467179
-0.0022195483
-0.040429599
-0.0028723144
-0.042168526
-0.0035959966
-0.044098952
-0.0043507101
-0.046089965
-0.0051678805
-0.048163454
-0.0060330483
-0.050344041
-0.0069604019
-0.052606978
-0.0079470989
-0.054982795
-0.0090003194
-0.057456021
-0.01012178
-0.060046383
-0.011316074
-0.062750084
-0.012586517
-0.065579013
-0.013936614
-0.068536432
-0.015370014
-0.071631529
-0.016889968
-0.07487066
-0.018499892
-0.078262889
-0.02020252
-0.08181685
-0.022000431
-0.085542479
-0.02389635
-0.089449672
-0.025892377
-0.09354996
-0.027990424
-0.09785492
-0.030191595
-0.10237755
-0.032497507
-0.10713102
-0.03490902
-0.11212962
-0.037426665
-0.1173888
-0.040050449
-0.12292464
-0.042780941
-0.12875342
-0.045617957
-0.13489362
-0.048561336
-0.14136351
-0.051610754
-0.14818304
-0.054766357
-0.15537219
-0.058027427
-0.16295325
-0.06139447
-0.17094835
-0.064867079
-0.1793814
-0.068445499
-0.18827741
-0.072130641
-0.19766189
-0.075922628
-0.20756311
-0.079822143
-0.21800964
-0.083830766
-0.22903155
-0.087949356
-0.24066169
-0.092179508
-0.25293317
-0.096522396
-0.26588262
-0.10098028
-0.27954758
-0.1055543
-0.29396868
-0.11024666
-0.30918819
-0.11505876
-0.32525239
-0.11999217
-0.34220906
-0.12504849
-0.36010957
-0.13022861
-0.37900936
-0.13553357
-0.39896615
-0.14096336
-0.42004314
-0.14651841
-0.44230583
-0.1521974
-0.46582607
-0.15799892
-0.49067939
-0.16392067
-0.51694659
-0.16995905
-0.54471461
-0.1761093
-0.57407601
-0.18236589
-0.60512876
-0.18872099
-0.63797937
-0.19516514
-0.6727405
-0.20168776
-0.70953281
-0.20827509
-0.74848586
-0.21491142
-0.78973772
-0.22157651
-0.83343584
-0.22825068
-0.8797332
-0.23490371
-0.9287964
-0.24150777
-0.98079369
-0.24802599
-1.0359091
-0.25441631
-1.0943284
-0.26063153
-1.156251
-0.2666264
-1.2218883
-0.2723453
-1.2914519
-0.27769878
-1.3651891
-0.28266918
-1.4432852
-0.2868829
-1.5254135
-0.29067633
-1.6133119
-1.7029838
-0.0004407664
-0.033799053
-0.0010492985
-0.036637321
-0.0016298327
-0.037886646
-0.0023043229
-0.039755112
-0.0029882584
-0.041484592
-0.0037474051
-0.043339808
-0.0045434706
-0.0452939
-0.0054062603
-0.047300666
-0.0063238513
-0.049426451
-0.0073089585
-0.051621873
-0.008360627
-0.053931127
-0.0094852526
-0.056331397
-0.010685591
-0.058846045
-0.011966157
-0.06146952
-0.013330361
-0.064214808
-0.014782199
-0.067084596
-0.016325255
-0.070088473
-0.017962673
-0.073233244
-0.01969759
-0.076527972
-0.021532737
-0.079981704
-0.023470838
-0.083604378
-0.025513619
-0.087406891
-0.027663006
-0.091400572
-0.029920177
-0.09559775
-0.032286513
-0.10001121
-0.034762629
-0.1046549
-0.037348778
-0.10954348
-0.040045192
-0.11469238
-0.042852152
-0.12011768
-0.045769066
-0.12583651
-0.04879633
-0.13186636
-0.05193328
-0.13822656
-0.055180378
-0.14493594
-0.058537314
-0.15201525
-0.062004709
-0.15948586
-0.065582683
-0.16737038
-0.069272547
-0.17569153
-0.073075191
-0.18447477
-0.076992095
-0.19374499
-0.081025196
-0.20353001
-0.085176876
-0.21385796
-0.089449139
-0.22475929
-0.093845629
-0.2362652
-0.098368755
-0.24841004
-0.10302253
-0.26122885
-0.10781019
-0.27475991
-0.11273608
-0.2890428
-0.11780369
-0.30412057
-0.12301743
-0.32003865
-0.12838152
-0.33684498
-0.13389998
-0.35459111
-0.13957683
-0.37333251
-0.14541605
-0.39312694
-0.15142154
-0.41403765
-0.1575963
-0.43613107
-0.16394377
-0.45947861
-0.17046678
-0.48415639
-0.17716689
-0.51024647
-0.18404613
-0.53783538
-0.19110514
-0.56701699
-0.19834315
-0.59789075
-0.20575961
-0.63056291
-0.21335206
-0.66514806
-0.22111659
-0.70176828
-0.22904803
-0.74055442
-0.2371397
-0.78164605
-0.24538286
-0.82519268
-0.25376443
-0.87135162
-0.26227069
-0.92029014
-0.27088024
-0.97218414
-0.27957373
-1.0272156
-0.28832442
-1.0855777
-0.29710202
-1.1474734
-0.30587521
-1.2131151
-0.31460351
-1.2827236
-0.32323329
-1.3565594
-0.3317393
-1.4347792
-0.33982642
-1.5173263
-0.34774412
-1.6053942
-1.6957758
-0.00046021613
-0.033338835
-0.0011026349
-0.035994902
-0.0017161302
-0.03727315
-0.0024310933
-0.039040148
-0.00316066
-0.040755024
-0.0039704822
-0.042529985
-0.0048251907
-0.04443919
-0.0057520877
-0.046373769
-0.0067424196
-0.048436118
-0.0078072071
-0.050557085
-0.0089473904
-0.052790942
-0.010168826
-0.055109962
-0.011475045
-0.057539825
-0.01287046
-0.060074105
-0.014358986
-0.062726281
-0.015944253
-0.065499329
-0.017629895
-0.06840283
-0.019418888
-0.071444252
-0.021314057
-0.074632802
-0.023317818
-0.077977944
-0.025432115
-0.081490081
-0.027658517
-0.08518049
-0.029998398
-0.089060691
-0.032452331
-0.093143817
-0.03502075
-0.097442792
-0.037703847
-0.10197181
-0.040501631
-0.10674569
-0.04341386
-0.11178015
-0.04644041
-0.11709113
-0.04958106
-0.12269586
-0.052835394
-0.12861202
-0.056203862
-0.13485809
-0.059686704
-0.1414531
-0.063284352
-0.1484176
-0.066998119
-0.15577209
-0.070829437
-0.16353906
-0.07478021
-0.17174076
-0.078853002
-0.18040198
-0.083050219
-0.18954777
-0.08737576
-0.19920447
-0.091833202
-0.20940052
-0.096427268
-0.22016522
-0.10116199
-0.23153048
-0.10604317
-0.24352886
-0.11107606
-0.25619596
-0.11626663
-0.26956934
-0.12162106
-0.28368837
-0.12714573
-0.2985959
-0.13284752
-0.31433686
-0.13873329
-0.3309592
-0.14480988
-0.34851452
-0.15108492
-0.36705748
-0.15756527
-0.38664658
-0.16425846
-0.40734447
-0.17117172
-0.4292178
-0.17831222
-0.45233811
-0.18568702
-0.47678159
-0.19330328
-0.50263021
-0.20116706
-0.52997161
-0.20928529
-0.55889876
-0.21766365
-0.5895124
-0.22630736
-0.6219192
-0.23522145
-0.65623397
-0.24441004
-0.69257969
-0.25387658
-0.73108787
-0.26362302
-0.77189961
-0.27365071
-0.81516498
-0.28395914
-0.86104319
-0.29454426
-0.90970502
-0.30540103
-0.96132736
-0.31652054
-1.0160961
-0.32789302
-1.0742052
-0.33950167
-1.1358648
-0.35133092
-1.2012859
-0.36336131
-1.2706932
-0.37556972
-1.3443509
-0.38792867
-1.4224202
-0.40021927
-1.5050357
-0.41261294
-1.5930005
-1.6837135
-0.00049001929
-0.032848816
-0.001179002
-0.03530592
-0.0018397564
-0.036612395
-0.0026099603
-0.038269945
-0.003402341
-0.039962644
-0.0042809793
-0.041651348
-0.0052145996
-0.04350557
-0.0062275328
-0.045360837
-0.0073144156
-0.047349236
-0.0084846674
-0.049386834
-0.0097410409
-0.051534569
-0.011088727
-0.053762277
-0.012532152
-0.0560964
-0.014075382
-0.058530875
-0.015722507
-0.061079157
-0.017477024
-0.063744812
-0.019341922
-0.066537933
-0.021320323
-0.069465851
-0.023414257
-0.072538868
-0.025625541
-0.075766659
-0.027955247
-0.079160375
-0.030404337
-0.0827314
-0.032973237
-0.086491791
-0.035662045
-0.09045501
-0.038470446
-0.094634391
-0.041398115
-0.099044138
-0.044444506
-0.1036993
-0.047609403
-0.10861526
-0.05089208
-0.11380846
-0.054292661
-0.11929528
-0.057811574
-0.12509311
-0.061449144
-0.13122052
-0.065206459
-0.13769578
-0.069085095
-0.14453897
-0.073087318
-0.15176987
-0.077216115
-0.15941026
-0.081474217
-0.16748266
-0.085866223
-0.17600997
-0.090396471
-0.18501752
-0.095070001
-0.19453094
-0.099892858
-0.20457766
-0.10487108
-0.215187
-0.11001168
-0.22638989
-0.11532207
-0.23821846
-0.12080994
-0.25070809
-0.12648382
-0.26389546
-0.13235212
-0.27782007
-0.13842406
-0.29252397
-0.14470934
-0.30805158
-0.15121744
-0.3244511
-0.15795883
-0.34177313
-0.16494386
-0.36007244
-0.17218335
-0.37940709
-0.17968835
-0.39983947
-0.18747034
-0.42143581
-0.19554088
-0.44426757
-0.20391159
-0.46841088
-0.21259452
-0.49394728
-0.22160181
-0.52096432
-0.23094549
-0.54955508
-0.24063818
-0.57981971
-0.25069191
-0.61186547
-0.26111918
-0.6458067
-0.27193199
-0.68176688
-0.28314286
-0.71987701
-0.29476357
-0.7602789
-0.30680592
-0.80312264
-0.31927998
-0.84856913
-0.33219438
-0.89679062
-0.34556129
-0.94796045
-0.35938215
-1.0022753
-0.37365896
-1.0599284
-0.38839698
-1.1211268
-0.40359905
-1.1860838
-0.41925786
-1.2550344
-0.43537789
-1.3282309
-0.45193783
-1.4058603
-0.46880048
-1.4881731
-0.48607388
-1.5757271
-1.6664048
-0.00053060975
-0.032318205
-0.0012802165
-0.034556312
-0.0020042419
-0.035888369
-0.0028465693
-0.037427617
-0.0037214744
-0.039087738
-0.0046898927
-0.040682929
-0.0057260728
-0.042469389
-0.0068506789
-0.04423623
-0.0080619736
-0.04613794
-0.0093677433
-0.048081064
-0.010772366
-0.050129946
-0.012280516
-0.052254126
-0.013897051
-0.054479865
-0.015625725
-0.0568022
-0.017470446
-0.059234435
-0.019434122
-0.061781136
-0.021519538
-0.064452516
-0.023728376
-0.067257013
-0.026062131
-0.070205114
-0.028521695
-0.073307095
-0.03110729
-0.076574779
-0.033819002
-0.080019688
-0.03665595
-0.083654843
-0.039617792
-0.087493167
-0.042703437
-0.091548745
-0.045912241
-0.095835334
-0.049243198
-0.10036834
-0.052695996
-0.10516246
-0.056270808
-0.11023364
-0.059967755
-0.11559833
-0.063787763
-0.1212731
-0.067732326
-0.12727596
-0.071803842
-0.13362427
-0.076005349
-0.14033746
-0.080340194
-0.14743502
-0.084812682
-0.15493778
-0.089428542
-0.1628668
-0.094192978
-0.17124554
-0.099113056
-0.18009745
-0.10419573
-0.18944826
-0.10944896
-0.19932444
-0.1148813
-0.20975466
-0.1205021
-0.22076909
-0.12632076
-0.2323998
-0.13234771
-0.24468114
-0.13859372
-0.25764944
-0.14507021
-0.27134358
-0.15178939
-0.28580479
-0.15876324
-0.30107773
-0.1660052
-0.31720914
-0.17352826
-0.33425006
-0.18134689
-0.35225382
-0.18947559
-0.37127839
-0.19792929
-0.39138576
-0.2067235
-0.4126416
-0.21587467
-0.4351164
-0.22539946
-0.45888609
-0.23531515
-0.48403159
-0.24563978
-0.51063969
-0.25639148
-0.53880338
-0.26758965
-0.56862154
-0.27925361
-0.6002015
-0.29140372
-0.63365659
-0.30406082
-0.66910978
-0.31724597
-0.70669187
-0.33098196
-0.7465429
-0.34529061
-0.78881399
-0.36019453
-0.83366521
-0.37571725
-0.8812679
-0.39187843
-0.93179926
-0.40869885
-0.98545483
-0.42620109
-1.0424262
-0.44440003
-1.1029278
-0.46331468
-1.1671692
-0.48296084
-1.2353882
-0.5033651
-1.3078267
-0.52452114
-1.3847043
-0.54635511
-1.4663391
-0.56894248
-1.5531397
-1.6433935
-0.00058289904
-0.031735307
-0.0014086225
-0.03373059
-0.002214592
-0.0350824
-0.0031486297
-0.03649358
-0.0041294043
-0.038106964
-0.005212796
-0.039599538
-0.0063795973
-0.041302588
-0.0076462275
-0.042969601
-0.0090147658
-0.044769402
-0.010491402
-0.046604428
-0.012081853
-0.048539495
-0.013790109
-0.050545871
-0.015621043
-0.05264893
-0.017577779
-0.054845465
-0.019663557
-0.057148657
-0.021880424
-0.05956427
-0.024229969
-0.062102972
-0.026712917
-0.064774065
-0.029329525
-0.067588506
-0.03207921
-0.07055741
-0.034961335
-0.073692654
-0.037974311
-0.077006713
-0.041117129
-0.080512025
-0.044388098
-0.084222198
-0.047786239
-0.088150605
-0.051310188
-0.092311384
-0.054959723
-0.096718809
-0.058734779
-0.1013874
-0.062635559
-0.10633286
-0.066663992
-0.1115699
-0.070821609
-0.11711549
-0.075112073
-0.1229855
-0.079538677
-0.12919766
-0.084106383
-0.13576975
-0.088820542
-0.14272086
-0.093687973