/*--------------------------------*- C++ -*----------------------------------*\
  =========                 |
  \\      /  F ield         | OpenFOAM: The Open Source CFD Toolbox
   \\    /   O peration     | Website:  https://openfoam.org
    \\  /    A nd           | Version:  6
     \\/     M anipulation  |
\*---------------------------------------------------------------------------*/
FoamFile
{
    version     2.0;
    format      ascii;
    class       volScalarField;
    location    "550";
    object      rho;
}
// * * * * * * * * * * * * * * * * * * * * * * * * * * * * * * * * * * * * * //

dimensions      [1 -3 0 0 0 0 0];

internalField   nonuniform List<scalar> 
16000
(
1.1559799
1.1614279
1.1597746
1.1611127
1.1606647
1.1613933
1.1613552
1.1618637
1.1620125
1.162428
1.162677
1.1630556
1.1633631
1.1637332
1.1640771
1.164452
1.1648205
1.1652054
1.1655917
1.1659876
1.166387
1.1667922
1.1672006
1.1676123
1.1680256
1.1684397
1.1688534
1.1692655
1.1696747
1.1700797
1.1704792
1.1708719
1.1712564
1.1716314
1.1719954
1.1723473
1.1726861
1.1730105
1.1733195
1.1736122
1.1738877
1.1741454
1.1743845
1.1746047
1.1748055
1.1749867
1.1751482
1.17529
1.1754122
1.1755149
1.1755984
1.175663
1.1757091
1.1757372
1.1757476
1.175741
1.1757179
1.1756788
1.1756242
1.1755548
1.175471
1.1753736
1.1752626
1.1751398
1.1750025
1.1748566
1.1746905
1.1745251
1.1743197
1.1741473
1.1738713
1.1737368
1.1733147
1.1733589
1.1725196
1.1730948
1.1711912
1.1732237
1.1690923
1.1736218
1.1564252
1.1618871
1.1601609
1.161566
1.1610993
1.1618786
1.1618401
1.1623858
1.1625459
1.1629909
1.1632583
1.1636627
1.1639918
1.1643858
1.1647524
1.1651503
1.1655414
1.1659484
1.1663562
1.1667728
1.167192
1.1676159
1.1680418
1.1684695
1.1688973
1.1693242
1.1697486
1.1701694
1.170585
1.1709942
1.1713953
1.171787
1.1721679
1.1725365
1.1728918
1.1732321
1.1735565
1.173864
1.1741537
1.1744248
1.1746766
1.1749086
1.1751205
1.1753119
1.1754828
1.1756332
1.1757633
1.1758733
1.1759636
1.1760345
1.1760867
1.1761205
1.1761367
1.1761358
1.1761185
1.1760853
1.176037
1.1759742
1.1758975
1.1758073
1.1757044
1.1755893
1.1754622
1.1753242
1.1751745
1.1750149
1.1748413
1.1746609
1.1744575
1.1742603
1.1740102
1.1738181
1.1734645
1.1733786
1.1727304
1.1730334
1.171492
1.1730696
1.1693673
1.1735525
1.1570345
1.162504
1.1607321
1.1622021
1.1617268
1.1625499
1.1625199
1.1630986
1.1632765
1.1637489
1.1640385
1.1644677
1.1648206
1.1652383
1.1656287
1.1660494
1.1664632
1.1668918
1.1673207
1.1677571
1.1681951
1.1686363
1.1690779
1.1695194
1.1699591
1.1703957
1.1708276
1.1712533
1.1716713
1.1720799
1.1724777
1.1728632
1.1732348
1.1735913
1.1739313
1.1742538
1.1745576
1.1748415
1.1751052
1.1753481
1.1755696
1.1757695
1.1759477
1.1761043
1.1762394
1.1763533
1.1764466
1.1765196
1.1765731
1.1766078
1.1766243
1.1766235
1.1766061
1.1765728
1.1765245
1.1764619
1.1763857
1.1762967
1.1761953
1.1760823
1.1759582
1.1758234
1.1756785
1.1755238
1.1753593
1.1751856
1.1750009
1.1748074
1.1745982
1.1743845
1.1741399
1.1739159
1.1736005
1.1734256
1.1729012
1.1730175
1.1717353
1.1729442
1.1696157
1.1734461
1.1578341
1.1632963
1.1614996
1.163036
1.1625541
1.1634242
1.1634049
1.1640194
1.1642178
1.16472
1.1650347
1.165491
1.1658704
1.166314
1.1667303
1.1671757
1.167614
1.1680655
1.1685165
1.1689732
1.16943
1.1698881
1.1703445
1.1707985
1.1712481
1.1716919
1.1721281
1.172555
1.1729709
1.1733741
1.173763
1.1741362
1.174492
1.1748293
1.1751467
1.1754433
1.1757181
1.1759705
1.1761998
1.1764058
1.1765885
1.1767478
1.176884
1.1769975
1.1770887
1.1771584
1.1772073
1.1772363
1.1772463
1.1772382
1.1772131
1.1771718
1.1771155
1.1770449
1.1769611
1.1768648
1.1767568
1.1766381
1.176509
1.1763702
1.1762223
1.1760658
1.1759009
1.1757282
1.1755475
1.175359
1.1751618
1.1749562
1.1747388
1.1745133
1.1742682
1.1740246
1.1737292
1.1735024
1.1730519
1.1730334
1.1719593
1.1728745
1.1698715
1.1734621
1.1588163
1.1642521
1.1624581
1.1640634
1.1635807
1.1644999
1.1644969
1.1651492
1.1653729
1.165907
1.1662509
1.1667364
1.1671453
1.1676166
1.168061
1.1685324
1.1689963
1.1694713
1.1699445
1.1704212
1.1708961
1.1713695
1.1718387
1.1723025
1.1727588
1.1732058
1.1736416
1.1740644
1.1744723
1.1748637
1.1752368
1.1755901
1.1759223
1.176232
1.1765183
1.1767802
1.1770173
1.177229
1.1774152
1.1775756
1.1777108
1.1778212
1.1779074
1.1779701
1.1780102
1.1780288
1.1780271
1.178006
1.177967
1.1779111
1.1778396
1.1777537
1.1776546
1.1775433
1.1774207
1.1772879
1.1771457
1.1769949
1.176836
1.1766697
1.1764964
1.1763166
1.1761306
1.1759386
1.1757407
1.1755367
1.1753261
1.1751082
1.1748811
1.1746454
1.1743956
1.1741392
1.1738522
1.173591
1.1731934
1.173068
1.1721639
1.1728437
1.1701156
1.1734941
1.1600005
1.1654016
1.1636294
1.1653058
1.1648272
1.1657975
1.1658156
1.1665075
1.1667611
1.1673289
1.1677056
1.1682222
1.1686633
1.169164
1.1696384
1.1701369
1.1706272
1.1711261
1.1716213
1.1721172
1.1726085
1.1730953
1.1735744
1.1740444
1.1745029
1.1749481
1.1753777
1.1757899
1.1761826
1.1765543
1.1769031
1.1772276
1.1775267
1.1777992
1.1780444
1.1782617
1.1784508
1.1786117
1.1787447
1.1788502
1.1789286
1.1789812
1.1790089
1.1790128
1.1789944
1.178955
1.1788961
1.1788191
1.1787257
1.1786171
1.1784949
1.1783605
1.178215
1.1780598
1.1778958
1.177724
1.1775453
1.1773605
1.1771702
1.1769749
1.176775
1.1765708
1.1763627
1.1761508
1.1759351
1.1757153
1.1754908
1.1752608
1.1750238
1.1747789
1.1745233
1.1742582
1.1739741
1.1736917
1.1733299
1.1731226
1.1723616
1.1728427
1.1703686
1.173559
1.1614006
1.1667937
1.1650299
1.1667789
1.1663088
1.1673314
1.1673756
1.1681082
1.168396
1.1689991
1.1694121
1.1699616
1.1704375
1.1709691
1.1714749
1.1720013
1.1725184
1.1730408
1.173557
1.1740703
1.1745756
1.1750722
1.175557
1.1760281
1.176483
1.1769194
1.1773352
1.1777283
1.1780967
1.1784388
1.178753
1.179038
1.1792929
1.1795169
1.1797097
1.179871
1.1800012
1.1801005
1.1801699
1.1802102
1.1802226
1.1802084
1.1801693
1.1801069
1.180023
1.1799193
1.1797976
1.1796597
1.1795074
1.1793423
1.1791661
1.1789801
1.1787859
1.1785845
1.1783772
1.1781649
1.1779485
1.1777287
1.177506
1.177281
1.1770539
1.176825
1.1765946
1.1763625
1.1761288
1.1758931
1.1756548
1.1754129
1.1751659
1.1749127
1.1746508
1.1743796
1.1740952
1.1738005
1.1734646
1.1731974
1.1725567
1.1728586
1.1706221
1.1736529
1.1630178
1.1684278
1.1666613
1.1684861
1.1680309
1.1691082
1.1691848
1.1699606
1.1702884
1.1709293
1.1713831
1.1719679
1.1724817
1.173046
1.1735848
1.1741399
1.1746838
1.1752287
1.1757641
1.1762921
1.1768076
1.1773092
1.1777938
1.178259
1.1787022
1.179121
1.1795131
1.1798764
1.1802092
1.1805098
1.1807769
1.1810097
1.1812076
1.1813702
1.1814978
1.1815907
1.1816498
1.1816761
1.1816709
1.1816358
1.1815727
1.181483
1.1813693
1.1812335
1.1810777
1.1809042
1.1807149
1.180512
1.1802973
1.1800727
1.1798399
1.1796005
1.1793558
1.1791071
1.1788556
1.1786021
1.1783474
1.1780922
1.1778371
1.1775823
1.177328
1.1770745
1.1768218
1.1765699
1.1763185
1.1760672
1.1758155
1.1755622
1.1753059
1.1750451
1.1747776
1.174502
1.1742163
1.1739158
1.1735976
1.1732896
1.1727519
1.1728942
1.1708951
1.1737781
1.1648502
1.1702983
1.1685293
1.1704352
1.170003
1.171139
1.1712561
1.1720786
1.172453
1.1731353
1.1736347
1.1742578
1.1748124
1.1754112
1.1759841
1.1765678
1.1771376
1.177703
1.1782543
1.1787924
1.1793123
1.179812
1.1802881
1.1807379
1.1811588
1.1815483
1.1819041
1.1822243
1.1825073
1.1827519
1.1829573
1.183123
1.1832491
1.183336
1.1833844
1.1833955
1.1833709
1.1833122
1.1832216
1.1831011
1.1829533
1.1827804
1.182585
1.1823697
1.1821369
1.1818891
1.1816287
1.1813578
1.1810785
1.1807927
1.1805021
1.1802084
1.1799128
1.1796166
1.1793208
1.1790263
1.1787338
1.1784438
1.1781567
1.1778728
1.1775921
1.1773147
1.1770405
1.1767694
1.1765011
1.1762351
1.1759707
1.1757068
1.175442
1.1751745
1.1749023
1.1746238
1.1743368
1.1740356
1.1737288
1.1733952
1.1729467
1.1729475
1.1711865
1.1739137
1.166918
1.1724169
1.1706533
1.1726461
1.1722454
1.1734441
1.1736103
1.1744828
1.1749109
1.1756377
1.1761875
1.1768515
1.1774494
1.1780838
1.1786908
1.1793021
1.1798951
1.180477
1.1810388
1.18158
1.1820958
1.1825835
1.1830397
1.1834614
1.183846
1.1841911
1.1844947
1.1847552
1.1849715
1.185143
1.1852695
1.1853513
1.1853893
1.1853847
1.1853391
1.1852546
1.1851335
1.1849783
1.1847918
1.1845768
1.1843363
1.1840732
1.1837904
1.1834908
1.1831773
1.1828525
1.1825188
1.1821785
1.1818337
1.1814863
1.181138
1.1807903
1.1804446
1.1801018
1.1797628
1.1794285
1.1790994
1.1787758
1.1784582
1.1781464
1.1778406
1.1775406
1.1772462
1.1769571
1.1766731
1.1763934
1.1761175
1.1758442
1.175572
1.1752991
1.1750234
1.1747435
1.1744562
1.1741579
1.1738586
1.1735133
1.1731399
1.173019
1.1715003
1.1740562
1.1692479
1.1748031
1.1730515
1.1751375
1.1747779
1.1760435
1.1762683
1.1771949
1.1776839
1.178459
1.1790638
1.1797711
1.180414
1.1810841
1.1817239
1.1823595
1.1829708
1.1835625
1.1841262
1.1846602
1.1851595
1.1856214
1.186042
1.1864187
1.186749
1.1870307
1.1872624
1.1874432
1.1875728
1.1876513
1.1876796
1.187659
1.1875913
1.1874789
1.1873243
1.1871305
1.1869007
1.1866382
1.1863466
1.1860294
1.1856898
1.1853315
1.1849574
1.1845708
1.1841746
1.1837716
1.1833642
1.1829547
1.1825452
1.1821374
1.1817329
1.181333
1.1809389
1.1805515
1.1801715
1.1797996
1.1794359
1.1790809
1.1787347
1.1783971
1.178068
1.1777472
1.1774343
1.177129
1.1768308
1.1765391
1.1762531
1.1759717
1.1756935
1.1754166
1.175139
1.1748591
1.174573
1.1742805
1.1739862
1.1736408
1.1733285
1.173106
1.1718207
1.1741905
1.1718675
1.17747
1.1757402
1.1779286
1.1776225
1.1789608
1.1792556
1.1802411
1.1807991
1.1816263
1.1822902
1.1830425
1.1837305
1.1844344
1.1851027
1.1857566
1.1863777
1.1869685
1.1875209
1.1880324
1.1884981
1.1889149
1.1892794
1.1895891
1.1898421
1.190037
1.1901732
1.1902508
1.1902706
1.1902341
1.1901433
1.1900008
1.1898096
1.1895731
1.1892951
1.1889796
1.1886305
1.1882521
1.1878483
1.1874232
1.1869805
1.1865242
1.1860571
1.1855828
1.1851043
1.1846241
1.1841446
1.1836681
1.1831962
1.1827307
1.1822728
1.1818237
1.1813844
1.1809554
1.1805374
1.1801307
1.1797355
1.1793518
1.1789797
1.1786188
1.1782689
1.1779297
1.1776005
1.1772811
1.1769707
1.1766687
1.1763744
1.1760867
1.175804
1.1755247
1.1752469
1.1749684
1.1746857
1.1744009
1.1741108
1.173775
1.1735098
1.1732046
1.1721418
1.1743193
1.1747863
1.1804499
1.1787524
1.181052
1.1808132
1.1822295
1.1826062
1.183655
1.1842893
1.1851716
1.1858969
1.1866936
1.187424
1.1881564
1.1888453
1.1895066
1.1901237
1.1906971
1.1912191
1.1916866
1.192095
1.1924413
1.1927228
1.1929379
1.1930855
1.1931655
1.1931787
1.1931267
1.1930118
1.1928369
1.1926055
1.1923218
1.1919901
1.191615
1.1912013
1.1907539
1.1902776
1.1897772
1.189257
1.1887215
1.1881746
1.1876202
1.1870614
1.1865014
1.185943
1.1853888
1.1848409
1.1843011
1.183771
1.1832519
1.1827449
1.1822508
1.1817703
1.1813038
1.1808517
1.180414
1.1799908
1.1795819
1.1791871
1.178806
1.1784382
1.1780832
1.1777404
1.1774091
1.1770889
1.1767788
1.1764782
1.1761859
1.1759007
1.1756208
1.1753445
1.1750692
1.174792
1.1745163
1.174231
1.1739128
1.1736837
1.1733139
1.1724593
1.1744456
1.1780332
1.1837727
1.18212
1.184541
1.184386
1.1858856
1.1863571
1.1874734
1.1881903
1.1891293
1.1899157
1.1907532
1.1915189
1.1922694
1.1929647
1.1936158
1.1942078
1.1947396
1.1952041
1.195598
1.1959176
1.1961606
1.1963257
1.1964124
1.1964216
1.1963548
1.1962148
1.196005
1.1957295
1.1953932
1.1950011
1.194559
1.1940724
1.1935471
1.1929889
1.1924033
1.1917956
1.1911709
1.1905339
1.189889
1.1892401
1.1885908
1.1879442
1.1873031
1.18667
1.1860471
1.1854362
1.1848387
1.1842559
1.1836888
1.183138
1.1826041
1.1820875
1.1815884
1.1811067
1.1806425
1.1801953
1.1797651
1.1793513
1.1789535
1.1785711
1.1782033
1.1778497
1.1775093
1.1771816
1.1768658
1.1765611
1.1762664
1.1759805
1.175702
1.1754289
1.1751586
1.1748894
1.1746238
1.1743452
1.1740511
1.173848
1.1734324
1.172769
1.1745644
1.1816418
1.1874754
1.1858837
1.1884367
1.1883848
1.1899726
1.1905527
1.1917401
1.1925432
1.1935372
1.1943798
1.1952487
1.1960356
1.1967859
1.1974644
1.1980782
1.198614
1.1990698
1.1994396
1.1997209
1.1999114
1.2000106
1.2000191
1.1999388
1.1997728
1.199525
1.1992006
1.1988052
1.1983451
1.1978269
1.1972576
1.1966439
1.1959926
1.1953105
1.1946038
1.1938784
1.1931399
1.1923933
1.1916432
1.1908937
1.1901486
1.1894109
1.1886833
1.1879682
1.1872677
1.1865835
1.1859168
1.1852688
1.1846402
1.1840316
1.1834434
1.1828758
1.1823288
1.1818024
1.1812964
1.1808103
1.1803438
1.1798965
1.1794677
1.1790568
1.1786632
1.178286
1.1779245
1.1775779
1.1772455
1.1769264
1.1766198
1.1763249
1.1760404
1.175765
1.1754971
1.1752337
1.1749746
1.1747199
1.174451
1.1741849
1.1739976
1.1735569
1.173071
1.174667
1.1856565
1.1916035
1.1900927
1.1927867
1.1928603
1.1945396
1.1952417
1.1965035
1.1973918
1.1984327
1.1993184
1.2002001
1.2009835
1.2017035
1.2023298
1.2028664
1.2033022
1.2036353
1.2038619
1.2039813
1.2039939
1.2039019
1.2037088
1.2034197
1.2030405
1.2025783
1.2020406
1.2014356
1.2007716
1.2000568
1.1992994
1.1985074
1.1976883
1.1968489
1.1959958
1.1951349
1.1942714
1.1934101
1.192555
1.1917098
1.1908776
1.190061
1.1892619
1.1884822
1.1877234
1.1869867
1.1862728
1.1855824
1.1849158
1.1842732
1.1836546
1.1830598
1.1824887
1.1819408
1.1814158
1.180913
1.1804319
1.1799719
1.1795322
1.1791121
1.1787108
1.1783275
1.1779613
1.1776114
1.177277
1.1769571
1.1766512
1.1763581
1.176077
1.1758067
1.1755455
1.1752911
1.1750438
1.1748009
1.1745454
1.1743097
1.1741306
1.1736854
1.1733608
1.1747497
1.1901252
1.1962031
1.1948015
1.197647
1.1978796
1.1996557
1.2004814
1.2018085
1.2027745
1.2038449
1.2047487
1.2056111
1.2063512
1.2069951
1.2075176
1.2079213
1.2081982
1.2083485
1.2083717
1.2082708
1.2080499
1.2077152
1.2072742
1.2067356
1.2061087
1.2054036
1.2046304
1.2037992
1.20292
1.2020023
1.2010549
1.2000861
1.1991035
1.1981138
1.1971232
1.1961369
1.1951597
1.1941954
1.1932476
1.1923188
1.1914117
1.1905281
1.1896689
1.1888356
1.1880291
1.1872499
1.1864983
1.1857745
1.1850782
1.1844094
1.1837677
1.1831527
1.1825638
1.1820004
1.1814619
1.1809475
1.1804566
1.1799882
1.1795418
1.1791163
1.1787109
1.1783248
1.177957
1.1776066
1.1772728
1.1769548
1.1766517
1.1763627
1.176087
1.1758235
1.1755707
1.175327
1.175093
1.1748625
1.1746243
1.1744193
1.1742411
1.1738101
1.1736317
1.1748123
1.1951261
1.2013432
1.2001003
1.2030981
1.2035174
1.2053799
1.2063273
1.2077053
1.208724
1.2097913
1.2106695
1.2114602
1.212096
1.2125964
1.2129428
1.2131389
1.213182
1.2130765
1.2128271
1.212442
1.2119305
1.2113035
1.2105729
1.2097513
1.2088512
1.2078851
1.2068651
1.2058027
1.2047085
1.2035922
1.2024628
1.201328
1.2001947
1.1990691
1.1979562
1.1968603
1.1957851
1.1947337
1.1937084
1.1927111
1.1917433
1.1908061
1.1898997
1.1890249
1.188182
1.1873709
1.1865915
1.1858433
1.185126
1.184439
1.1837815
1.183153
1.1825526
1.1819795
1.1814329
1.180912
1.1804158
1.1799435
1.1794942
1.1790671
1.178661
1.1782752
1.1779087
1.1775607
1.1772302
1.1769164
1.1766184
1.1763355
1.176067
1.1758119
1.1755689
1.1753373
1.1751172
1.1749005
1.1746831
1.1745061
1.1743238
1.1739248
1.1738718
1.1748491
1.2008485
1.2071915
1.2061662
1.2092738
1.2098461
1.2117595
1.2128265
1.2142313
1.215259
1.2162628
1.2170424
1.2176784
1.2181195
1.2183827
1.2184584
1.2183548
1.2180769
1.2176356
1.2170427
1.2163126
1.2154603
1.2145017
1.2134528
1.212329
1.2111453
1.2099156
1.2086525
1.2073678
1.2060716
1.2047731
1.2034799
1.2021988
1.2009354
1.1996945
1.1984797
1.1972943
1.1961406
1.1950204
1.193935
1.1928855
1.1918725
1.190896
1.1899557
1.1890519
1.188184
1.1873516
1.1865541
1.1857907
1.1850606
1.184363
1.1836969
1.1830614
1.1824555
1.1818783
1.1813288
1.180806
1.1803089
1.1798367
1.1793883
1.1789628
1.1785593
1.1781768
1.1778144
1.1774711
1.1771462
1.1768388
1.176548
1.1762731
1.1760135
1.1757682
1.1755362
1.1753177
1.1751119
1.17491
1.1747154
1.1745619
1.1743767
1.1740265
1.1740697
1.1748569
1.2073475
1.2137305
1.2129112
1.2160717
1.2169525
1.2189897
1.2200743
1.2214117
1.2223518
1.2231832
1.2237489
1.2241113
1.2242374
1.2241466
1.2238411
1.2233372
1.2226498
1.2217979
1.2208011
1.2196802
1.2184552
1.2171458
1.2157706
1.2143463
1.2128885
1.2114108
1.209925
1.2084415
1.2069691
1.205515
1.2040853
1.2026849
1.2013176
1.1999865
1.1986939
1.1974414
1.1962302
1.1950609
1.1939338
1.192849
1.1918063
1.1908047
1.1898437
1.1889227
1.1880409
1.1871974
1.186391
1.1856209
1.1848858
1.1841847
1.1835164
1.18288
1.1822742
1.1816979
1.1811501
1.1806298
1.1801359
1.1796673
1.1792232
1.1788025
1.1784044
1.1780278
1.1776718
1.1773357
1.1770184
1.1767193
1.1764374
1.1761722
1.1759229
1.1756887
1.1754688
1.175264
1.1750725
1.1748866
1.1747149
1.1745826
1.1744061
1.1741068
1.1742126
1.1748297
1.2145967
1.2209976
1.2205689
1.223969
1.2248845
1.2268351
1.2279367
1.2290899
1.2298221
1.2303444
1.2305496
1.2304931
1.2301645
1.2295924
1.2287943
1.2277976
1.2266278
1.2253123
1.2238774
1.2223481
1.2207474
1.2190962
1.217413
1.2157138
1.2140125
1.2123206
1.2106477
1.2090016
1.2073887
1.2058138
1.2042807
1.2027923
1.2013505
1.1999567
1.1986115
1.1973153
1.196068
1.194869
1.193718
1.1926142
1.1915565
1.1905433
1.1895738
1.1886468
1.1877612
1.1869157
1.186109
1.1853398
1.1846067
1.1839086
1.1832441
1.1826121
1.1820113
1.1814405
1.1808986
1.1803846
1.1798972
1.1794356
1.1789987
1.1785856
1.1781952
1.1778268
1.1774794
1.1771521
1.1768443
1.176555
1.1762835
1.1760292
1.1757914
1.1755693
1.1753625
1.1751717
1.1749944
1.1748248
1.174676
1.1745646
1.1744012
1.1741418
1.1742971
1.1747772
1.2229652
1.2294544
1.2293164
1.2326064
1.2336707
1.2354302
1.2363314
1.2371239
1.2374354
1.2374488
1.2371011
1.2364549
1.2355248
1.2343533
1.2329733
1.2314225
1.229735
1.2279432
1.226076
1.2241591
1.2222148
1.2202618
1.2183158
1.2163896
1.2144934
1.2126355
1.210822
1.2090577
1.2073458
1.2056889
1.2040882
1.2025446
1.2010582
1.1996287
1.1982556
1.196938
1.1956747
1.1944644
1.1933059
1.1921979
1.1911386
1.1901258
1.1891587
1.1882357
1.1873553
1.186516
1.1857163
1.1849547
1.1842298
1.1835402
1.1828846
1.1822617
1.1816701
1.1811087
1.1805763
1.1800718
1.179594
1.179142
1.1787148
1.1783115
1.177931
1.1775726
1.1772353
1.1769185
1.1766213
1.1763431
1.176083
1.1758406
1.175615
1.1754056
1.1752124
1.1750355
1.174872
1.1747186
1.1745904
1.1744944
1.1743444
1.1741366
1.1743163
1.1746796
1.2327917
1.2390025
1.2391964
1.2422514
1.2431607
1.2444688
1.2448958
1.2450576
1.2446965
1.2439788
1.2428908
1.2415085
1.2398711
1.2380335
1.2360397
1.2339328
1.2317493
1.2295209
1.227274
1.2250304
1.2228075
1.2206192
1.218476
1.2163859
1.2143547
1.2123864
1.2104837
1.2086479
1.2068798
1.2051792
1.2035456
1.2019778
1.2004747
1.1990346
1.1976558
1.1963367
1.1950752
1.1938695
1.192718
1.1916187
1.1905689
1.1895671
1.1886118
1.1877011
1.1868336
1.1860074
1.1852209
1.1844726
1.1837611
1.1830847
1.1824423
1.1818323
1.1812535
1.1807048
1.1801848
1.1796925
1.1792269
1.1787868
1.1783713
1.1779796
1.1776106
1.1772637
1.1769379
1.1766326
1.176347
1.1760805
1.1758324
1.1756023
1.1753893
1.175193
1.1750134
1.1748503
1.1747005
1.1745633
1.1744532
1.1743677
1.1742336
1.1740805
1.1742622
1.1745186
1.2440841
1.249557
1.2498013
1.252304
1.25277
1.2533006
1.2529356
1.2521849
1.2509109
1.24928
1.2473259
1.2451374
1.2427705
1.2402845
1.2377251
1.2351318
1.2325358
1.2299617
1.2274284
1.22495
1.2225368
1.2201958
1.2179318
1.2157474
1.2136441
1.2116221
1.2096806
1.2078185
1.2060341
1.2043254
1.2026902
1.2011263
1.1996311
1.1982023
1.1968375
1.1955342
1.1942899
1.1931027
1.1919705
1.1908906
1.1898604
1.1888784
1.1879428
1.1870517
1.1862035
1.1853962
1.1846284
1.1838983
1.1832044
1.1825453
1.1819196
1.181326
1.1807631
1.1802297
1.1797247
1.179247
1.1787954
1.1783691
1.1779671
1.1775885
1.1772324
1.176898
1.1765846
1.1762916
1.1760182
1.1757638
1.1755279
1.1753101
1.1751096
1.1749261
1.1747597
1.1746098
1.1744733
1.1743519
1.1742572
1.17418
1.174064
1.1739598
1.1741269
1.1742952
1.2557269
1.2605302
1.2606292
1.2621377
1.2617373
1.2610711
1.2595605
1.2576368
1.255281
1.2526582
1.2498325
1.2468904
1.2438873
1.2408723
1.2378806
1.2349391
1.2320666
1.2292765
1.2265771
1.2239739
1.2214692
1.2190638
1.2167572
1.2145476
1.2124328
1.2104101
1.2084765
1.2066287
1.2048637
1.2031781
1.2015688
1.2000326
1.1985665
1.1971676
1.1958331
1.1945599
1.1933458
1.1921885
1.1910855
1.1900337
1.189031
1.1880759
1.1871665
1.1863007
1.1854769
1.1846933
1.1839482
1.18324
1.1825673
1.1819285
1.1813224
1.1807475
1.1802027
1.1796868
1.1791986
1.1787371
1.1783011
1.1778899
1.1775025
1.1771379
1.1767955
1.1764744
1.1761739
1.1758934
1.1756323
1.17539
1.1751661
1.1749601
1.1747714
1.1745999
1.1744455
1.1743074
1.1741835
1.1740764
1.1739942
1.173924
1.173827
1.1737609
1.1739032
1.1740025
1.2679861
1.2716894
1.2710884
1.2707666
1.2689327
1.2666774
1.263806
1.2606489
1.2572609
1.2537754
1.2502536
1.246757
1.2433221
1.2399765
1.2367371
1.2336144
1.2306137
1.2277369
1.2249835
1.2223515
1.2198375
1.217438
1.2151484
1.2129644
1.2108813
1.2088947
1.2070002
1.2051936
1.2034708
1.2018279
1.2002612
1.1987672
1.1973426
1.1959844
1.1946894
1.1934546
1.1922779
1.1911569
1.1900885
1.1890698
1.1880993
1.1871752
1.1862956
1.1854584
1.184662
1.1839047
1.1831848
1.1825008
1.1818513
1.1812348
1.1806499
1.1800955
1.1795703
1.1790732
1.178603
1.1781588
1.1777395
1.1773442
1.1769721
1.1766224
1.1762941
1.1759867
1.1756994
1.1754317
1.1751829
1.1749526
1.1747402
1.1745454
1.1743677
1.1742071
1.1740634
1.1739356
1.1738225
1.1737275
1.1736551
1.1735914
1.1735134
1.1734763
1.1735899
1.1736336
1.2798781
1.2799852
1.2779664
1.2753303
1.271867
1.2680878
1.2640564
1.2599666
1.2558843
1.2518844
1.2480002
1.2442567
1.2406649
1.2372309
1.2339548
1.2308338
1.2278631
1.2250367
1.2223483
1.2197912
1.2173587
1.2150442
1.2128411
1.2107436
1.2087461
1.2068432
1.2050302
1.2033025
1.2016558
1.2000862
1.1985899
1.1971634
1.1958035
1.194507
1.1932708
1.1920923
1.1909693
1.1898992
1.1888787
1.1879057
1.186979
1.1860964
1.1852562
1.1844566
1.1836959
1.1829725
1.1822849
1.1816316
1.1810112
1.1804225
1.1798641
1.1793348
1.1788336
1.1783593
1.1779108
1.1774873
1.1770877
1.1767111
1.1763569
1.1760241
1.175712
1.17542
1.1751474
1.1748935
1.1746579
1.1744401
1.1742397
1.1740561
1.1738891
1.1737386
1.1736043
1.1734852
1.1733811
1.173295
1.1732284
1.1731686
1.1731052
1.17309
1.1731826
1.1731881
1.2848765
1.2820639
1.278506
1.2742784
1.2697851
1.2652339
1.2607297
1.2563553
1.252142
1.2481126
1.2442724
1.2406221
1.2371561
1.2338661
1.2307427
1.2277769
1.2249592
1.222281
1.219734
1.2173102
1.2150029
1.2128059
1.2107134
1.2087194
1.2068187
1.2050065
1.2032782
1.2016295
1.2000566
1.1985558
1.1971236
1.195757
1.1944527
1.193208
1.1920201
1.1908869
1.1898064
1.1887756
1.1877921
1.1868545
1.1859612
1.1851103
1.1843
1.1835288
1.182795
1.1820971
1.1814337
1.1808034
1.1802048
1.1796369
1.1790982
1.1785878
1.1781044
1.1776471
1.1772149
1.1768067
1.1764218
1.1760592
1.1757182
1.175398
1.1750978
1.1748171
1.1745552
1.1743114
1.1740853
1.1738765
1.1736843
1.1735085
1.1733488
1.1732048
1.1730764
1.1729629
1.1728642
1.1727822
1.172717
1.1726608
1.1726105
1.1725961
1.1726432
1.172647
1.2757307
1.2727129
1.2693643
1.2652489
1.2610816
1.2568879
1.2528015
1.2488532
1.2450661
1.2414474
1.2379961
1.2347084
1.2315783
1.2285989
1.2257627
1.2230622
1.2204903
1.2180399
1.2157044
1.2134775
1.211353
1.2093258
1.2073912
1.205545
1.2037828
1.2021008
1.200495
1.1989621
1.1974986
1.1961014
1.1947676
1.1934944
1.1922791
1.1911191
1.1900125
1.1889573
1.1879509
1.1869906
1.1860745
1.1852013
1.1843694
1.1835769
1.1828223
1.1821041
1.1814209
1.1807712
1.1801538
1.1795674
1.1790108
1.1784828
1.1779823
1.1775082
1.1770595
1.1766353
1.1762345
1.1758564
1.1754999
1.1751644
1.1748491
1.1745532
1.1742761
1.1740171
1.1737755
1.1735509
1.1733427
1.1731504
1.1729736
1.1728118
1.1726649
1.1725324
1.1724141
1.1723096
1.172219
1.1721429
1.1720809
1.1720299
1.1719898
1.1719725
1.1719857
1.1719915
1.2389256
1.2471367
1.2477719
1.2477261
1.2462074
1.2441934
1.2417686
1.2391798
1.2364978
1.2338035
1.2311307
1.2285086
1.2259516
1.2234699
1.2210688
1.2187512
1.2165179
1.2143686
1.2123023
1.2103174
1.2084117
1.2065827
1.2048278
1.2031442
1.2015296
1.1999816
1.1984977
1.1970756
1.1957132
1.1944084
1.193159
1.1919631
1.1908187
1.1897239
1.1886775
1.1876773
1.1867208
1.1858061
1.1849325
1.1840982
1.1833021
1.1825426
1.1818185
1.1811284
1.1804712
1.1798456
1.1792505
1.1786848
1.1781473
1.177637
1.177153
1.1766942
1.1762597
1.1758485
1.1754599
1.175093
1.1747469
1.1744209
1.1741143
1.1738263
1.1735564
1.1733037
1.1730678
1.1728481
1.172644
1.1724551
1.1722808
1.1721209
1.1719748
1.1718423
1.1717231
1.1716168
1.1715234
1.1714429
1.1713748
1.1713186
1.1712746
1.1712448
1.1712303
1.1712276
1.2477058
1.2479159
1.2482834
1.2483824
1.2477311
1.2461264
1.2435617
1.240281
1.2365242
1.232417
1.2283024
1.2240939
1.2199736
1.2159156
1.2120238
1.2084106
1.2050509
1.2020638
1.1993941
1.1970045
1.19492
1.1930611
1.191445
1.1900193
1.1887771
1.1876546
1.1866455
1.185721
1.1848855
1.1841723
1.1835327
1.182939
1.1823864
1.1818674
1.1813765
1.1809097
1.1804646
1.1800396
1.1796338
1.179245
1.1788731
1.1785182
1.1781787
1.1778553
1.1775479
1.1772558
1.1769783
1.1767149
1.1764649
1.176228
1.1760032
1.1757903
1.1755879
1.1753964
1.1752132
1.1750403
1.1748722
1.1747155
1.174557
1.1744149
1.1742583
1.1741323
1.1739656
1.1738632
1.1736658
1.1736053
1.1733414
1.1733585
1.1729652
1.1731323
1.1724858
1.1729377
1.1718819
1.1728058
1.1710669
1.1727813
1.1699305
1.1729128
1.1683124
1.1733315
1.1011411
1.105872
1.1128579
1.120836
1.1294005
1.1378515
1.1448409
1.1505701
1.1555978
1.1599597
1.1636783
1.1669158
1.1697238
1.1721585
1.1742827
1.1760884
1.1776617
1.1789489
1.1800371
1.1808778
1.1815668
1.1820504
1.1824191
1.1826089
1.1826996
1.1826624
1.1825562
1.1823953
1.182176
1.1819204
1.181633
1.1813194
1.1809809
1.1806299
1.1802744
1.1799195
1.1795692
1.1792263
1.1788937
1.1785712
1.1782596
1.1779601
1.1776725
1.1773962
1.1771324
1.1768804
1.17664
1.1764109
1.1761925
1.1759847
1.1757868
1.1755986
1.175419
1.1752484
1.1750843
1.1749289
1.1747767
1.1746343
1.1744893
1.1743586
1.1742138
1.1740958
1.1739404
1.1738417
1.1736573
1.1735942
1.1733471
1.1733557
1.1729881
1.1731319
1.1725311
1.1729369
1.1719332
1.1728102
1.1711229
1.1727942
1.169965
1.1729549
1.1683175
1.1733953
1.2051026
1.2058288
1.208064
1.2108314
1.2117485
1.2109914
1.2096323
1.2080076
1.2062351
1.2044249
1.202615
1.2008525
1.1991397
1.1975045
1.1959446
1.1944649
1.1930824
1.1917929
1.1906534
1.1896014
1.1886058
1.1877039
1.1868247
1.1860562
1.1853616
1.1847372
1.1842058
1.1836908
1.1832234
1.1826527
1.1821247
1.181634
1.181172
1.1807376
1.1803266
1.179936
1.1795637
1.1792082
1.1788684
1.178541
1.1782284
1.1779297
1.1776431
1.17737
1.1771095
1.1768609
1.1766241
1.1763987
1.1761844
1.1759807
1.175787
1.1756031
1.1754277
1.1752613
1.1751011
1.1749496
1.174801
1.1746619
1.1745199
1.1743917
1.1742494
1.1741328
1.1739797
1.1738806
1.1736991
1.1736326
1.1733904
1.173392
1.173026
1.1731596
1.172574
1.1729531
1.1719851
1.1728136
1.1711764
1.172786
1.1700192
1.1729495
1.1683567
1.1734051
1.1662882
1.1662726
1.1688397
1.174055
1.1774611
1.1784614
1.1789697
1.1794098
1.179817
1.180296
1.1807645
1.1812265
1.1816409
1.1820292
1.1822293
1.1826189
1.1826337
1.1829919
1.1828942
1.1831293
1.1829475
1.1830758
1.1828326
1.1828433
1.1825467
1.1824037
1.1821185
1.1818233
1.181529
1.1812324
1.180922
1.1806079
1.1802912
1.1799737
1.1796579
1.1793457
1.1790387
1.1787384
1.1784451
1.1781601
1.1778851
1.17762
1.177365
1.17712
1.1768851
1.1766603
1.1764456
1.1762408
1.1760455
1.1758595
1.1756822
1.1755136
1.1753523
1.1751989
1.1750508
1.1749103
1.1747718
1.1746421
1.1745083
1.1743878
1.1742519
1.1741417
1.1739931
1.1738995
1.1737205
1.173659
1.1734181
1.1734235
1.1730575
1.1731948
1.1726035
1.1729905
1.1720114
1.1728507
1.1712002
1.1728247
1.1700412
1.1729814
1.1683745
1.1734319
1.173995
1.1756986
1.1796343
1.1842995
1.1859856
1.1863199
1.186126
1.1860073
1.185869
1.1857589
1.1855962
1.1854482
1.1852671
1.1850966
1.1849017
1.1846947
1.1844826
1.1842387
1.1840027
1.1837097
1.1834659
1.1831134
1.1828458
1.1824853
1.182199
1.1818558
1.1815483
1.1812374
1.1809287
1.1806203
1.1803162
1.1800165
1.1797217
1.1794322
1.1791483
1.1788703
1.1785984
1.1783332
1.1780741
1.177822
1.1775781
1.1773423
1.1771146
1.1768952
1.1766843
1.1764819
1.1762879
1.1761025
1.1759252
1.1757561
1.1755944
1.1754403
1.1752924
1.1751514
1.1750147
1.1748846
1.1747556
1.1746343
1.1745083
1.1743944
1.1742646
1.1741593
1.1740156
1.1739249
1.1737499
1.1736892
1.1734527
1.1734563
1.1730936
1.1732262
1.1726432
1.1730196
1.1720524
1.1728762
1.1712413
1.1728436
1.170078
1.1730002
1.1684007
1.1734505
1.1675972
1.1692133
1.1733666
1.1782216
1.1804938
1.1808676
1.1807787
1.1808678
1.1809059
1.1809985
1.1810049
1.1810325
1.1810216
1.1810245
1.1809967
1.1809741
1.1809283
1.1808851
1.1808205
1.1807599
1.1806718
1.1805984
1.18049
1.1803887
1.1802556
1.1801212
1.179966
1.1797998
1.1796229
1.1794379
1.1792444
1.1790447
1.1788401
1.1786318
1.1784211
1.1782093
1.1779976
1.1777872
1.1775781
1.1773723
1.1771712
1.1769747
1.1767835
1.1765978
1.1764182
1.1762449
1.176078
1.1759176
1.1757636
1.1756159
1.1754741
1.1753383
1.1752073
1.1750818
1.1749592
1.1748419
1.1747246
1.1746137
1.1744972
1.1743914
1.1742692
1.1741698
1.1740321
1.1739452
1.173775
1.173716
1.1734838
1.1734865
1.1731284
1.1732575
1.1726766
1.1730497
1.1720864
1.1729036
1.1712736
1.1728688
1.1701087
1.1730208
1.1684242
1.1734684
1.1667635
1.168744
1.173359
1.1779532
1.179628
1.1799468
1.1798675
1.1798891
1.179846
1.1798682
1.179833
1.17985
1.1798169
1.1798178
1.1797872
1.1797631
1.1797148
1.1796726
1.1796136
1.1795517
1.1794795
1.1793974
1.179309
1.17921
1.1791057
1.1789922
1.1788725
1.1787464
1.178614
1.1784753
1.1783308
1.1781819
1.178029
1.1778726
1.1777136
1.1775527
1.1773906
1.1772281
1.1770648
1.176903
1.1767436
1.1765866
1.1764325
1.1762819
1.1761351
1.1759924
1.1758541
1.1757204
1.1755912
1.1754666
1.1753461
1.1752299
1.175117
1.1750079
1.1749005
1.1747968
1.174692
1.174592
1.1744855
1.1743881
1.174274
1.1741804
1.1740492
1.1739658
1.1738009
1.173743
1.1735158
1.1735166
1.1731638
1.1732876
1.1727158
1.1730783
1.1721258
1.1729292
1.1713126
1.1728899
1.1701425
1.1730391
1.1684488
1.1734841
1.1642904
1.1665501
1.1715312