/*--------------------------------*- C++ -*----------------------------------*\
  =========                 |
  \\      /  F ield         | OpenFOAM: The Open Source CFD Toolbox
   \\    /   O peration     | Website:  https://openfoam.org
    \\  /    A nd           | Version:  6
     \\/     M anipulation  |
\*---------------------------------------------------------------------------*/
FoamFile
{
    version     2.0;
    format      ascii;
    class       volScalarField;
    location    "550";
    object      T;
}
// * * * * * * * * * * * * * * * * * * * * * * * * * * * * * * * * * * * * * //

dimensions      [0 0 0 1 0 0 0];

internalField   nonuniform List<scalar> 
16000
(
297.61285
296.43779
296.85773
296.69386
296.83925
296.81043
296.88134
296.89356
296.9414
296.96873
297.00932
297.04315
297.08202
297.11908
297.15822
297.19722
297.23726
297.27762
297.3186
297.35996
297.40171
297.44373
297.48595
297.52826
297.57055
297.61272
297.65464
297.69619
297.73724
297.77765
297.81728
297.85601
297.89369
297.93018
297.96532
297.99903
298.03116
298.06162
298.09029
298.11707
298.14189
298.16466
298.18533
298.20385
298.22019
298.23432
298.24623
298.25593
298.26343
298.26874
298.27192
298.27301
298.27206
298.26914
298.26433
298.25768
298.24927
298.23921
298.22757
298.21446
298.19996
298.18419
298.1672
298.14922
298.13019
298.11069
298.09017
298.07026
298.04856
298.0301
298.00637
297.99333
297.96313
297.96588
297.91678
297.9638
297.87094
298.00662
297.84179
298.06087
297.63384
296.46894
296.90654
296.73951
296.89041
296.86154
296.9356
296.94954
296.9997
297.02931
297.072
297.10823
297.14922
297.18862
297.22993
297.27118
297.31336
297.35586
297.3989
297.44225
297.48589
297.52969
297.57356
297.61738
297.66102
297.70437
297.74727
297.7896
297.83121
297.87194
297.91166
297.95021
297.98746
298.02326
298.05749
298.09
298.12067
298.14942
298.17615
298.20079
298.22326
298.24351
298.2615
298.27721
298.29063
298.30176
298.31061
298.31722
298.32162
298.32385
298.32399
298.32208
298.31821
298.31247
298.30493
298.29567
298.28477
298.27233
298.25845
298.24323
298.22675
298.20911
298.1904
298.17075
298.15024
298.12918
298.10748
298.0859
298.06359
298.04284
298.01995
298.00263
297.97711
297.96956
297.93249
297.959
297.8896
297.99432
297.86199
298.04062
297.67592
296.52582
296.97393
296.80542
296.96054
296.93352
297.01003
297.02667
297.07897
297.11139
297.15629
297.19522
297.23854
297.28052
297.32418
297.36787
297.41234
297.45711
297.50229
297.54768
297.59323
297.63879
297.68425
297.72947
297.77431
297.81862
297.86224
297.90503
297.94681
297.98744
298.02676
298.0646
298.10084
298.13532
298.16791
298.1985
298.22699
298.25325
298.27724
298.2989
298.31819
298.33507
298.34954
298.3616
298.37127
298.37859
298.38359
298.38635
298.38691
298.38536
298.38177
298.37624
298.36885
298.3597
298.3489
298.33654
298.32269
298.30747
298.29096
298.27328
298.25451
298.23474
298.21407
298.19259
298.17042
298.14775
298.12468
298.1016
298.07832
298.05589
298.03289
298.01292
297.9895
297.97665
297.94594
297.95896
297.90598
297.98801
297.87916
298.03865
297.73774
296.60747
297.06063
296.8918
297.05084
297.02622
297.1052
297.12491
297.17951
297.21499
297.2623
297.30415
297.34997
297.39468
297.44084
297.48706
297.53391
297.58099
297.62832
297.67573
297.7231
297.7703
297.81718
297.86358
297.90933
297.95427
297.99823
298.04103
298.08251
298.12248
298.1608
298.19729
298.23182
298.26425
298.29446
298.32235
298.34782
298.37082
298.39126
298.40913
298.42444
298.43717
298.44735
298.45502
298.46023
298.46306
298.46357
298.46185
298.45801
298.45213
298.44432
298.4347
298.42336
298.41042
298.39599
298.38019
298.36309
298.3448
298.32542
298.30505
298.28378
298.26171
298.23889
298.21545
298.19147
298.16711
298.14251
298.11794
298.09345
298.06958
298.04587
298.02406
298.00118
297.98462
297.95841
297.96114
297.91973
297.98489
297.89383
298.03647
297.81891
296.7155
297.16704
296.99933
297.16173
297.14052
297.22183
297.24526
297.30226
297.34125
297.39118
297.43624
297.4848
297.53247
297.58132
297.63024
297.67958
297.72903
297.77854
297.82793
297.87706
297.92575
297.97384
298.02114
298.06747
298.11264
298.15646
298.19874
298.2393
298.27795
298.31454
298.34891
298.38093
298.41046
298.4374
298.46168
298.48322
298.50199
298.51798
298.53116
298.54158
298.54929
298.55434
298.55681
298.5568
298.5544
298.54973
298.54291
298.53406
298.5233
298.51077
298.49658
298.48087
298.46375
298.44535
298.42578
298.40515
298.38354
298.36105
298.3378
298.31386
298.28931
298.26424
298.23871
298.21284
298.18673
298.16054
298.13448
298.1087
298.08352
298.0589
298.03568
298.01275
297.99382
297.97018
297.9657
297.93257
297.98399
297.90741
298.03936
297.92038
296.84769
297.29401
297.12903
297.29428
297.27751
297.36111
297.38886
297.44848
297.49135
297.54418
297.59273
297.64428
297.69509
297.7468
297.79851
297.85042
297.90226
297.9539
298.00516
298.05586
298.10579
298.15477
298.20258
298.24901
298.29385
298.33691
298.37796
298.41684
298.45336
298.48735
298.51867
298.5472
298.57283
298.5955
298.61515
298.63174
298.64529
298.65582
298.66337
298.66798
298.66979
298.66887
298.66537
298.6594
298.65111
298.64065
298.62815
298.61379
298.59769
298.58001
298.5609
298.54048
298.5189
298.49626
298.47271
298.44834
298.42323
298.39749
298.37122
298.34449
298.31739
298.28997
298.2623
298.23447
298.20658
298.17877
298.15122
298.1241
298.09766
298.07203
298.04764
298.02425
298.0036
297.98166
297.97224
297.94484
297.9848
297.91948
298.04434
298.04443
296.99619
297.44348
297.28287
297.45036
297.43899
297.52481
297.55742
297.61985
297.66694
297.72293
297.77521
297.82996
297.88408
297.93878
297.99336
298.04785
298.10202
298.15567
298.20859
298.26057
298.31138
298.36079
298.40856
298.45446
298.49826
298.53974
298.5787
298.61495
298.64831
298.67864
298.70581
298.72973
298.75033
298.76758
298.78145
298.79198
298.79922
298.80323
298.80413
298.80201
298.79702
298.78932
298.77908
298.76646
298.75165
298.73482
298.71616
298.69583
298.674
298.65085
298.62651
298.60114
298.57487
298.54782
298.52013
298.49189
298.46318
298.4341
298.40474
298.37518
298.34547
298.31567
298.28585
298.25605
298.22638
298.19696
298.16793
298.1395
298.11186
298.0852
298.05981
298.03581
298.01391
297.99278
297.97991
297.95694
297.98712
297.93185
298.05076
298.1925
297.16868
297.61608
297.46159
297.63082
297.62585
297.71396
297.75202
297.81756
297.86926
297.92874
297.98501
298.04322
298.1008
298.15862
298.21609
298.27313
298.32949
298.38492
298.43919
298.49202
298.54317
298.59237
298.63936
298.68388
298.72569
298.76458
298.80034
298.83278
298.86177
298.88717
298.9089
298.92691
298.94118
298.95171
298.95857
298.96184
298.96161
298.95803
298.95126
298.94148
298.92884
298.91358
298.89591
298.87603
298.85416
298.83051
298.80527
298.77864
298.75081
298.72194
298.69219
298.66171
298.63065
298.59911
298.56721
298.53506
298.50273
298.47031
298.43786
298.40547
298.37317
298.34102
298.30906
298.27734
298.24593
298.21493
298.18449
298.15478
298.126
298.09835
298.07206
298.04739
298.02459
298.00377
297.98822
297.96891
297.9905
297.9436
298.05673
298.36458
297.36294
297.81231
297.66587
297.83655
297.83913
297.92978
297.97394
298.04305
298.09978
298.16316
298.22372
298.28565
298.34684
298.40786
298.46818
298.52763
298.58592
298.64276
298.69787
298.75093
298.80166
298.84977
298.89497
298.937
298.97562
299.01061
299.04179
299.06901
299.09215
299.11113
299.12593
299.13656
299.14305
299.14549
299.14401
299.13875
299.1299
299.11765
299.10224
299.08389
299.06283
299.03933
299.01363
298.98599
298.95664
298.92581
298.89373
298.86059
298.82658
298.79188
298.75665
298.72103
298.68515
298.64913
298.61306
298.57705
298.54116
298.50545
298.46999
298.43484
298.40003
298.36561
298.33159
298.29802
298.26495
298.23246
298.20068
298.16978
298.13994
298.11136
298.08427
298.05894
298.03551
298.01475
297.99737
297.98081
297.99473
297.95545
298.06426
298.56116
297.58437
298.0338
297.89745
298.06937
298.08064
298.17419
298.22512
298.2983
298.36049
298.42817
298.49328
298.55915
298.62402
298.6882
298.7512
298.81274
298.87251
298.93014
298.98532
299.0377
299.08695
299.13276
299.17485
299.21294
299.24682
299.2763
299.30122
299.32149
299.33706
299.34792
299.35411
299.35572
299.35289
299.34578
299.33459
299.31956
299.30095
299.27902
299.25407
299.22638
299.19625
299.16395
299.12979
299.09402
299.05692
299.01873
298.97966
298.93994
298.89974
298.85923
298.81857
298.77789
298.7373
298.69691
298.6568
298.61706
298.57774
298.53889
298.50055
298.46278
298.4256
298.38903
298.35309
298.31779
298.28318
298.24931
298.21631
298.18431
298.15351
298.1241
298.09631
298.07037
298.04648
298.02557
298.007
297.99253
297.99961
297.96697
298.07044
298.78043
297.83394
298.2824
298.15827
298.33134
298.35246
298.44941
298.50774
298.58557
298.65364
298.72602
298.79587
298.86579
298.93427
299.00141
299.06669
299.12977
299.19026
299.24776
299.30189
299.35228
299.39858
299.44049
299.47771
299.51002
299.53723
299.55921
299.57587
299.58719
299.59322
299.59404
299.5898
299.58068
299.56692
299.54878
299.52657
299.50059
299.47119
299.4387
299.40347
299.36584
299.32615
299.28469
299.24179
299.19773
299.15279
299.10721
299.06121
299.01498
298.96871
298.92256
298.87665
298.8311
298.78601
298.74147
298.69755
298.6543
298.61177
298.56998
298.52898
298.48879
298.44942
298.41088
298.37318
298.33632
298.30032
298.26523
298.23114
298.19818
298.16654
298.13641
298.10802
298.08156
298.05737
298.03619
298.01698
298.00396
298.00499
297.97866
298.07716
299.02054
298.11374
298.56016
298.45049
298.62483
298.65701
298.75802
298.82442
298.90752
298.98182
299.05924
299.13391
299.20783
299.27963
299.34924
299.41609
299.47976
299.5398
299.59576
299.64723
299.69384
299.73523
299.77111
299.80124
299.82546
299.84365
299.85576
299.86183
299.86195
299.85627
299.84501
299.82843
299.80685
299.7806
299.75006
299.71562
299.67768
299.63665
299.59292
299.5469
299.49895
299.44945
299.39869
299.34702
299.29472
299.24205
299.18926
299.13653
299.08406
299.032
298.9805
298.92965
298.87955
298.83028
298.78191
298.73447
298.68802
298.64257
298.59813
298.55472
298.51235
298.47103
298.43075
298.3915
298.35328
298.31608
298.27995
298.24494
298.21119
298.17885
298.14813
298.11924
298.09237
298.06796
298.04645
298.02701
298.01495
298.01064
297.9895
298.08241
299.29029
298.42644
298.8698
298.77702
298.95292
298.99737
299.10322
299.17828
299.26726
299.34807
299.43067
299.51002
299.58757
299.66205
299.73321
299.80042
299.86319
299.92102
299.97344
300.02003
300.06041
300.0943
300.12146
300.14173
300.15506
300.16146
300.16101
300.1539
300.14037
300.12072
300.09531
300.06455
300.02887
299.98874
299.94463
299.89701
299.84636
299.79315
299.73781
299.68077
299.62242
299.56313
299.50321
299.44297
299.38271
299.32265
299.263
299.20395
299.14566
299.08824
299.03181
298.97645
298.92223
298.86919
298.81739
298.76683
298.71754
298.66952
298.62276
298.57726
298.53302
298.49002
298.44826
298.40771
298.36835
298.33018
298.29321
298.25748
298.2231
298.19023
298.15906
298.12979
298.10263
298.07808
298.05624
298.03685
298.02527
298.01659
297.99965
298.08674
299.591
298.77544
299.21474
299.14136
299.31926
299.37716
299.48873
299.57298
299.6683
299.75564
299.84328
299.92678
300.00714
300.08308
300.15424
300.21991
300.27956
300.33266
300.37874
300.41743
300.44843
300.47153
300.48663
300.49374
300.49294
300.48443
300.46849
300.44548
300.41583
300.38
300.33852
300.29194
300.24082
300.18573
300.12722
300.06584
300.00211
299.93653
299.86956
299.80162
299.73311
299.66437
299.5957
299.52738
299.45966
299.39275
299.32682
299.26201
299.19846
299.13624
299.07544
299.0161
298.95827
298.90196
298.8472
298.79397
298.74226
298.69208
298.64338
298.59615
298.55037
298.50601
298.46306
298.42147
298.38124
298.34233
298.30474
298.26851
298.23371
298.20047
298.169
298.13949
298.11218
298.08753
298.06542
298.04627
298.03457
298.02231
298.00901
298.09003
299.9258
299.16462
299.59896
299.54759
299.72819
299.80061
299.91882
300.01255
300.11441
300.20798
300.3
300.38649
300.46809
300.54347
300.61218
300.67346
300.72678
300.77164
300.80764
300.83452
300.85214
300.86046
300.8596
300.84977
300.83129
300.80459
300.77019
300.72864
300.68058
300.62666
300.56756
300.50394
300.43647
300.36581
300.29256
300.21731
300.14059
300.06291
299.9847
299.90637
299.82828
299.75075
299.67402
299.59834
299.5239
299.45087
299.37938
299.30954
299.24142
299.17507
299.11054
299.04785
298.98699
298.92797
298.87077
298.81536
298.76172
298.7098
298.65958
298.611
298.56404
298.51866
298.47482
298.4325
298.39165
298.35226
298.3143
298.27779
298.24278
298.20938
298.17777
298.14814
298.1208
298.09611
298.07384
298.0551
298.04308
298.02802
298.01804
298.09185
300.298
299.59877
300.02732
300.00066
300.18489
300.27274
300.39851
300.50145
300.60952
300.70833
300.80324
300.89062
300.9708
301.04243
301.105
301.1578
301.20035
301.23229
301.2534
301.26365
301.26312
301.25209
301.23094
301.20018
301.16043
301.11238
301.0568
300.99447
300.92621
300.85283
300.77512
300.69387
300.60978
300.52356
300.43582
300.34714
300.25803
300.16896
300.08034
299.9925
299.90576
299.82038
299.73654
299.65442
299.57419
299.49594
299.41976
299.3457
299.27381
299.20408
299.13654
299.07116
299.00791
298.94677
298.88769
298.83063
298.77554
298.72236
298.67103
298.62151
298.57374
298.52769
298.4833
298.44053
298.39936
298.35974
298.32166
298.2851
298.25009
298.21673
298.18516
298.15557
298.12832
298.10363
298.0813
298.06299
298.05039
298.03371
298.02658
298.09168
300.71103
300.08373
300.50561
300.50628
300.69511
300.79884
300.93339
301.04436
301.1573
301.25914
301.35415
301.43887
301.51342
301.57653
301.62772
301.66642
301.69239
301.70551
301.70591
301.6939
301.66994
301.63467
301.58886
301.53336
301.4691
301.39706
301.31824
301.23361
301.14414
301.05075
300.9543
300.8556
300.75538
300.6543
300.55295
300.45186
300.35148
300.25221
300.15437
300.05823
299.96405
299.87201
299.78219
299.69476
299.60978
299.52732
299.4474
299.37003
299.29521
299.22291
299.15309
299.08572
299.02074
298.95809
298.89771
298.83954
298.78349
298.72951
298.67752
298.62746
298.57927
298.53289
298.48827
298.44537
298.40415
298.36457
298.3266
298.29022
298.25545
298.22233
298.19098
298.16159
298.13452
298.10989
298.08767
298.06974
298.05622
298.03897
298.03411
298.08964
301.16664
300.62808
301.04201
301.07259
301.26642
301.38629
301.52633
301.64429
301.7597
301.86088
301.95133
302.02791
302.09064
302.13846
302.17115
302.18851
302.19068
302.17802
302.15115
302.11087
302.05812
301.99399
301.91966
301.83633
301.74523
301.64756
301.5445
301.43715
301.32654
301.21362
301.09924
300.98416
300.86907
300.75454
300.64109
300.52914
300.41905
300.31112
300.20559
300.10264
300.00243
299.90506
299.81056
299.71901
299.63043
299.54482
299.46215
299.38241
299.30553
299.23146
299.16013
299.09147
299.02541
298.96186
298.90075
298.84198
298.78547
298.73115
298.67892
298.62872
298.58047
298.53412
298.4896
298.44686
298.40586
298.36657
298.32895
298.29297
298.25864
298.22598
298.19505
298.16604
298.13925
298.11474
298.09276
298.07512
298.06054
298.04342
298.04022
298.08617
301.67732
301.24452
301.64638
301.71001
301.90621
302.03775
302.18425
302.30499
302.41721
302.51132
302.58967
302.64979
302.69185
302.71531
302.72048
302.70774
302.67791
302.632
302.57126
302.49708
302.41093
302.31435
302.20887
302.09599
301.97715
301.85367
301.72678
301.59761
301.46715
301.33628
301.20575
301.07623
300.94826
300.82232
300.69877
300.57792
300.46002
300.34526
300.23375
300.12562
300.02092
299.91966
299.8218
299.72738
299.63635
299.54867
299.46426
299.38305
299.30496
299.22991
299.1578
299.08853
299.02202
298.95815
298.89684
298.83799
298.78149
298.72726
298.67521
298.62525
298.5773
298.5313
298.48718
298.4449
298.40439
298.36563
298.32857
298.29321
298.25952
298.22751
298.1972
298.16875
298.14236
298.11806
298.09638
298.07889
298.06333
298.04693
298.04503
298.08093
302.25424
301.93876
302.32211
302.41544
302.60966
302.76379
302.90799
303.02419
303.12435
303.20104
303.25634
303.2886
303.29861
303.28668
303.25397
303.20179
303.13178
303.04575
302.94563
302.83338
302.71095
302.58021
302.44293
302.30073
302.15509
302.00733
301.85859
301.70988
301.56206
301.41583
301.27179
301.13044
300.99216
300.85725
300.72595
300.59843
300.47481
300.35516
300.2395
300.12786
300.02022
299.91649
299.81661
299.72053
299.62817
299.53944
299.45422
299.37243
299.29394
299.21865
299.14644
299.0772
299.01082
298.94718
298.88618
298.8277
298.77165
298.71793
298.66642
298.61706
298.56975
298.52442
298.481
298.43943
298.39967
298.36166
298.32539
298.29082
298.25794
298.22675
298.19725
298.16956
298.14376
298.11981
298.09847
298.08097
298.06479
298.04912
298.04803
298.07406
302.90388
302.71055
303.06831
303.20604
303.42106
303.55955
303.69196
303.79071
303.86544
303.9104
303.92828
303.91866
303.88349
303.82435
303.74355
303.64347
303.52669
303.39575
303.25318
303.10134
302.94242
302.77842
302.61112
302.44204
302.27254
302.10372
301.93654
301.77176
301.61002
301.4518
301.29748
301.14736
301.00163
300.86045
300.72389
300.592
300.46477
300.34217
300.22414
300.11063
300.00154
299.89669
299.79602
299.69942
299.60677
299.51794
299.4328
299.35122
299.27306
299.19821
299.12652
299.05788
298.99216
298.92925
298.86901
298.81134
298.75614
298.70328
298.65268
298.60424
298.55787
298.5135
298.47105
298.43045
298.39166
298.35463
298.31933
298.28574
298.25383
298.2236
298.19507
298.16831
298.14329
298.11997
298.09912
298.08158
298.06471
298.0493
298.04956
298.06624
303.6361
303.58025
303.94766
304.09528
304.28612
304.41193
304.51821
304.58129
304.61243
304.60752
304.57095
304.50417
304.41078
304.29387
304.15703
304.00361
303.83692
303.65999
303.47558
303.28613
303.09376
302.90028
302.70721
302.5158
302.32706
302.14179
301.96064
301.78407
301.61243
301.44598
301.28486
301.12918
300.97896
300.83418
300.69481
300.56076
300.43194
300.30821
300.18947
300.07559
299.96639
299.86166
299.76132
299.66523
299.57321
299.48513
299.40084
299.32018
299.24301
299.16919
299.09859
299.03106
298.96648
298.90472
298.84566
298.78918
298.73517
298.68352
298.63413
298.5869
298.54175
298.4986
298.45736
298.41797
298.38037
298.34452
298.31038
298.27793
298.24714
298.218
298.19055
298.16483
298.14076
298.11834
298.09828
298.08086
298.06334
298.04781
298.04931
298.05785
304.4708
304.57737
304.90524
305.05092
305.21301
305.29964
305.35348
305.35659
305.32085
305.24578
305.13771
305.00046
304.83924
304.65853
304.46276
304.25584
304.04127
303.82204
303.6007
303.37933
303.15963
302.94296
302.73037
302.52267
302.32044
302.12411
301.93396
301.75017
301.57282
301.40191
301.23742
301.07926
300.92732
300.78145
300.6415
300.50731
300.37869
300.25547
300.13749
300.02455
299.91641
299.8129
299.71387
299.61916
299.52859
299.442
299.35922
299.2801
299.20448
299.13222
299.06317
298.9972
298.93417
298.87395
298.81642
298.76146
298.70896
298.65881
298.61091
298.56516
298.52148
298.47977
298.43996
298.40199
298.3658
298.33132
298.29852
298.26737
298.23784
298.20993
298.18366
298.15905
298.13602
298.11463
298.09552
298.07849
298.06109
298.04606
298.04644
298.04857
305.41537
305.66285
305.93534
306.04943
306.147
306.16328
306.13466
306.05126
305.92685
305.76498
305.57409
305.36001
305.12898
304.88606
304.63577
304.38176
304.12704
303.87399
303.62446
303.37985
303.1412
302.90923
302.68446
302.46718
302.25757
302.05569
301.8615
301.6749
301.49578
301.32394
301.1592
301.00133
300.85013
300.70537
300.56681
300.43422
300.30737
300.18606
300.07009
299.95921
299.85314
299.75175
299.65487
299.5623
299.47386
299.38938
299.3087
299.23165
299.15807
299.08781
299.02074
298.9567
298.89558
298.83724
298.78155
298.72841
298.67769
298.62931
298.58314
298.5391
298.4971
298.45705
298.41889
298.38253
298.34792
298.31499
298.28371
298.25403
298.22593
298.19939
298.17443
298.15103
298.12914
298.10887
298.09073
298.07422
298.05742
298.04333
298.04214
298.03917
306.44737
306.79129
306.97564
307.01688
307.01073
306.92039
306.77937
306.58733
306.35997
306.1045
305.83032
305.54396
305.25132
304.95683
304.66399
304.37539
304.09295
303.818
303.55144
303.29384
303.04552
302.80659
302.57704
302.35677
302.14558
301.94324
301.74949
301.56404
301.3866
301.21687
301.05455
300.89935
300.75098
300.60916
300.47361
300.34407
300.22029
300.10205
299.98912
299.8812
299.77805
299.67955
299.58549
299.49568
299.40995
299.32811
299.24999
299.17545
299.10431
299.03644
298.97169
298.90993
298.85102
298.79484
298.74127
298.6902
298.64151
298.59511
298.5509
298.50877
298.46865
298.43046
298.39411
298.35954
298.32669
298.29549
298.26589
298.23786
298.21135
298.18634
298.16283
298.1408
298.12018
298.10115
298.08404
298.06822
298.05243
298.03959
298.03667
298.02997
307.70072
307.88222
307.92584
307.84153
307.68685
307.4586
307.18693
306.88026
306.55375
306.21557
305.87362
305.53301
305.19772
304.87036
304.55271
304.24587
303.95043
303.66667
303.39459
303.13404
302.88478
302.64645
302.41867
302.20105
301.99316
301.79459
301.60494
301.42381
301.25081
301.08559
300.92779
300.77708
300.63315
300.4957
300.36442
300.23904
300.11933
300.00507
299.89595
299.79169
299.69214
299.59712
299.50643
299.41989
299.33731
299.25853
299.18339
299.11171
299.04337
298.9782
298.91608
298.85687
298.80045
298.74669
298.69548
298.64671
298.60028
298.55608
298.51402
298.47401
298.43596
298.3998
298.36545
298.33285
298.30192
298.27261
298.24487
298.21865
298.19391
298.17062
298.14877
298.12829
298.10916
298.09153
298.07557
298.06065
298.0461
298.03468
298.03013
298.02219
308.70325
308.73222
308.5705
308.31551
307.99609
307.63278
307.24783
306.85252
306.4573
306.06795
305.68878
305.32217
304.96972
304.63199
304.30914
304.00094
303.70702
303.42684
303.15984
302.90543
302.66299
302.43192
302.21165
302.0016
301.80127
301.61017
301.42782
301.25381
301.08773
300.92919
300.77784
300.63334
300.49538
300.36366
300.23787
300.11777
300.00314
299.89373
299.78922
299.6894
299.59414
299.50323
299.4165
299.33377
299.25486
299.17961
299.10787
299.03949
298.97432
298.91222
298.85308
298.79676
298.74313
298.6921
298.64354
298.59735
298.55343
298.51168
298.47202
298.43435
298.3986
298.36469
298.33255
298.3021
298.2733
298.24607
298.22037
298.19615
298.17337
298.152
298.132
298.11333
298.09596
298.08001
298.06551
298.0519
298.03895
298.02902
298.0237
298.01324
309.0411
308.92622
308.57785
308.18306
307.75456
307.31712
306.88283
306.45906
306.05017
305.65814
305.28388
304.92737
304.58804
304.26524
303.95818
303.66605
303.38802
303.12331
302.87116
302.63087
302.40181
302.18337
301.975
301.77619
301.58646
301.40536
301.23247
301.06739
300.90975
300.7592
300.61542
300.47809
300.34692
300.22163
300.10193
299.98763
299.87851
299.77429
299.67471
299.57965
299.48894
299.40239
299.31984
299.24111
299.16605
299.09451
299.02634
298.9614
298.89955
298.84068
298.78466
298.73136
298.68067
298.63249
298.58672
298.54324
298.50197
298.46281
298.42568
298.3905
298.35718
298.32565
298.29585
298.26771
298.24116
298.21616
298.19264
298.17056
298.14988
298.13056
298.11258
298.09587
298.08044
298.06634
298.05353
298.04168
298.03076
298.02214
298.01633
298.00797
308.03391
308.03263
307.69726
307.35563
306.96555
306.57435
306.18505
305.80659
305.44081
305.08933
304.75238
304.42992
304.12158
303.82694
303.54547
303.27662
303.01985
302.7746
302.54033
302.31653
302.10268
301.89836
301.70316
301.51669
301.33853
301.16831
301.00568
300.8503
300.70183
300.55998
300.42446
300.29499
300.17133
300.05322
299.94045
299.83281
299.73006
299.6319
299.53816
299.44871
299.36337
299.28197
299.20436
299.13038
299.05989
298.99275
298.92882
298.86798
298.8101
298.75506
298.70276
298.65307
298.60589
298.56113
298.51867
298.47844
298.44033
298.40427
298.37017
298.33795
298.30754
298.27886
298.25186
298.22646
298.20261
298.18025
298.15934
298.13982
298.12165
298.1048
298.08922
298.07489
298.0618
298.04994
298.03929
298.02969
298.02119
298.01433
298.00923
298.00382
305.06532
305.50626
305.62343
305.61502
305.47594
305.28243
305.04936
304.79703
304.5344
304.26853
304.00368
303.74276
303.48764
303.23954
302.99919
302.76701
302.5432
302.32781
302.12079
301.92199
301.73123
301.54827
301.37283
301.20465
301.04346
300.88899
300.741
300.59924
300.46347
300.33347
300.20902
300.08992
299.97595
299.86694
299.76272
299.66311
299.56789
299.47683
299.38987
299.30685
299.22762
299.15204
299.07998
299.01131
298.94589
298.88362
298.82436
298.76802
298.71447
298.66361
298.61533
298.56955
298.52616
298.48506
298.44618
298.40942
298.37471
298.34196
298.31109
298.28204
298.25473
298.2291
298.20508
298.18262
298.16166
298.14215
298.12404
298.10728
298.09183
298.07765
298.06472
298.053
298.04247
298.03311
298.02491
298.01781
298.01184
298.00709
298.00357
298.00097
308.08257
308.15211
307.73142
307.0043
306.13416
305.30417
304.58921
303.98665
303.47161
303.03225
302.6235
302.25554
301.92653
301.62757
301.34516
301.08335
300.83626
300.6111
300.40242
300.21445
300.03986
299.88596
299.7436
299.6181
299.50192
299.39999
299.30665
299.22346
299.14576
299.07691
299.01539
298.95881
298.90622
298.85678
298.80997
298.76537
298.72267
298.68164
298.64207
298.604
298.56729
298.53183
298.49768
298.46478
298.43299
298.40233
298.37277
298.34428
298.31681
298.29034
298.26481
298.24018
298.21638
298.19339
298.17114
298.1496
298.12863
298.10831
298.08834
298.06909
298.04977
298.03155
298.01235
297.99537
297.97548
297.96071
297.93881
297.92807
297.90128
297.89898
297.8666
297.87763
297.83066
297.86637
297.79759
297.87084
297.78239
297.8946
297.81037
297.93282
306.13323
305.47622
304.83491
304.0314
303.16946
302.43371
301.86734
301.45711
301.16429
300.94024
300.75856
300.60333
300.46481
300.33636
300.2125
300.09757
299.98196
299.8793
299.77448
299.68263
299.5885
299.50763
299.42491
299.3548
299.28397
299.22092
299.15824
299.10271
299.04795
298.99652
298.9482
298.90196
298.85717
298.81375
298.77166
298.73085
298.6913
298.65299
298.61581
298.57993
298.54527
298.51173
298.47935
298.44814
298.41797
298.38884
298.36073
298.33361
298.30744
298.2822
298.25784
298.2343
298.21154
298.18952
298.16816
298.14746
298.12726
298.10764
298.08832
298.06965
298.05086
298.03308
298.01432
297.99762
297.97812
297.96344
297.94191
297.93122
297.90486
297.90226
297.87068
297.88093
297.83422
297.86997
297.80105
297.87453
297.78515
297.90025
297.81058
297.94044
300.46965
300.39518
299.84309
299.08365
298.68528
298.63513
298.68624
298.76826
298.86243
298.9546
299.03752
299.10821
299.16626
299.21087
299.24164
299.26678
299.27408
299.28069
299.25869
299.24465
299.21247
299.1902
299.15303
299.12578
299.08627
299.05354
299.01651
298.98034
298.94357
298.90602
298.86818
298.83047
298.79271
298.75525
298.71836
298.68216
298.64675
298.61219
298.57847
298.5459
298.5142
298.48341
298.4537
298.42483
298.39687
298.36983
298.34368
298.3184
298.29396
298.27033
298.24747
298.22535
298.20389
298.18311
298.16288
298.14326
298.12399
298.10532
298.08674
298.06891
298.05065
298.03365
298.01516
297.99928
297.97972
297.96602
297.94397
297.93442
297.90689
297.90628
297.87252
297.88538
297.83573
297.875
297.80252
297.88056
297.78577
297.90621
297.81095
297.94619
302.86495
302.88076
302.2671
300.98556
300.16427
299.96976
299.90136
299.8553
299.81655
299.75698
299.69857
299.63972
299.58453
299.52884
299.50351
299.43046
299.43577
299.34164
299.3474
299.25811
299.26165
299.17741
299.1778
299.09922
299.07432
299.01784
298.99294
298.94251
298.90571
298.86699
298.82869
298.79158
298.75536
298.72001
298.68549
298.65177
298.61884
298.5867
298.55546
298.52505
298.49536
298.46648
298.43841
298.4112
298.38482
298.35927
298.33452
298.31055
298.28734
298.26488
298.24312
298.22202
298.20152
298.18164
298.16223
298.14337
298.12479
298.10676
298.08872
298.07142
298.05355
298.03697
298.01871
298.00317
297.98368
297.97025
297.94813
297.93885
297.91138
297.91069
297.87705
297.88977
297.83998
297.8791
297.80576
297.88435
297.78856
297.91067
297.81249
297.95071
302.06711
301.66778
300.69352
299.50993
299.06785
298.96269
298.98704
298.99314
298.99904
298.99673
299.00084
299.0011
299.00234
299.00048
298.99821
298.99281
298.98659
298.97736
298.96705
298.95826
298.94009
298.9353
298.91375
298.90302
298.88136
298.86174
298.83513
298.81185
298.78561
298.75919
298.73235
298.70505
298.67743
298.64963
298.62182
298.59409
298.56656
298.53931
298.51254
298.48622
298.46029
298.43487
298.41003
298.38579
298.36216
298.33915
298.31676
298.29499
298.27382
298.25324
298.23322
298.21374
298.19473
298.17622
298.15806
298.14035
298.12281
298.10573
298.08851
298.07198
298.05472
298.03878
298.02091
298.00592
297.98658
297.9737
297.95139
297.9427
297.91457
297.91492
297.87924
297.8943
297.84271
297.88367
297.80794
297.88938
297.79002
297.91569
297.8134
297.95534
302.14017
301.75226
300.72772
299.51923
298.95717
298.87854
298.91091
298.90672
298.90546
298.89649
298.8982
298.89524
298.89379
298.88939
298.88521
298.87855
298.87183
298.86285
298.85364
298.8413
298.83044
298.8142
298.80064
298.78264
298.76598
298.74733
298.7294
298.70956
298.68942
298.66862
298.64732
298.62557
298.60345
298.58108
298.55853
298.53586
298.51317
298.49051
298.46811
298.44585
298.42373
298.40188
298.38037
298.35924
298.33851
298.3182
298.29833
298.27889
298.25989
298.24132
298.22315
298.20538
298.18796
298.17089
298.15406
298.13755
298.12109
298.10498
298.08862
298.07286
298.05625
298.0409
298.02347
298.00893
297.98983
297.97732
297.95501
297.94669
297.91855
297.91911
297.88314
297.89869
297.84621
297.88803
297.8106
297.89371
297.79218
297.92036
297.81454
297.95966
301.79805
301.32407
300.18229
299.03411
298.62183
298.55704
298.58848
298.59639
298.61197
298.61634
298.62532
298.62884
298.63454
298.63758
298.64109
298.6426
298.64362
298.64356
298.64254
298.64083
298.63755
298.6342
298.62886
298.62313
298.61567
298.60727
298.59732
298.58652
298.57453
298.56167
298.54799
298.53346
298.5182
298.50232
298.4859
298.46902
298.4518
298.43429
298.41675
298.39904
298.38121
298.36341
298.34569
298.32811
298.3107
298.2935
298.27652
298.25977
298.24327
298.22702
298.21099
298.1952
298.17958
298.16417
298.14885
298.13371
298.11847
298.10347
298.08808
298.07319
298.05732
298.04262
298.02571
298.01166
297.99287
297.98073
297.95849
297.9505
297.92212
297.92321
297.88704
297.90282
297.84889
297.89239
297.81328
297.89815
297.79407
297.92496
297.81559
297.96383
301.64808
301.1028