/*--------------------------------*- C++ -*----------------------------------*\
  =========                 |
  \\      /  F ield         | OpenFOAM: The Open Source CFD Toolbox
   \\    /   O peration     | Website:  https://openfoam.org
    \\  /    A nd           | Version:  6
     \\/     M anipulation  |
\*---------------------------------------------------------------------------*/
FoamFile
{
    version     2.0;
    format      ascii;
    class       volVectorField;
    location    "550";
    object      U;
}
// * * * * * * * * * * * * * * * * * * * * * * * * * * * * * * * * * * * * * //

dimensions      [0 1 -1 0 0 0 0];

internalField   nonuniform List<vector> 
16000
(
(151.11565 1.2812259e-15 -17.429082)
(159.45184 -1.1421875e-15 -11.350656)
(156.27589 4.4190994e-18 -16.467179)
(157.75442 3.9957165e-18 -12.332501)
(156.52478 0 -15.375392)
(156.94101 -9.1294859e-16 -13.014329)
(156.33606 8.6422103e-16 -14.602894)
(156.37407 0 -13.363721)
(155.99857 -1.885053e-19 -14.092998)
(155.87997 1.7829685e-19 -13.467983)
(155.59269 3.377797e-19 -13.743751)
(155.40372 -6.5521577e-16 -13.418003)
(155.1472 6.2119167e-16 -13.472555)
(154.92489 4.8922574e-18 -13.276278)
(154.67536 5.5880284e-16 -13.22721)
(154.43551 -5.3035668e-16 -13.077786)
(154.18399 -1.007824e-15 -12.978802)
(153.93361 9.563144e-16 -12.839213)
(153.67759 0 -12.712532)
(153.42034 8.6381378e-16 -12.567222)
(153.16013 -8.2128253e-16 -12.421096)
(152.89867 -7.8183892e-16 -12.263809)
(152.63589 -7.2935361e-19 -12.10093)
(152.37278 -3.5009852e-19 -11.929245)
(152.10981 6.6249903e-16 -11.750422)
(151.84781 0 -11.563561)
(151.5875 6.111145e-16 -11.36922)
(151.3297 -5.7216694e-16 -11.167274)
(151.07523 -5.4072497e-19 -10.958052)
(150.82498 -5.1528782e-19 -10.741751)
(150.5798 -5.0326508e-16 -10.518742)
(150.34059 4.791e-16 -10.289413)
(150.10823 -1.4301792e-17 -10.05426)
(149.88361 -1.2788282e-17 -9.8138327)
(149.66759 8.3241465e-16 -9.5687561)
(149.46098 -1.5888213e-15 -9.3197178)
(149.26459 7.5755028e-16 -9.0674628)
(149.07914 1.1305403e-17 -8.8127896)
(148.90532 1.0791781e-17 -8.556543)
(148.74376 0 -8.2996036)
(148.595 -1.2287384e-18 -8.0428729)
(148.45951 1.1735333e-18 -7.787263)
(148.3377 -5.7310328e-16 -7.5336855)
(148.22987 5.4953734e-16 -7.2830382)
(148.13625 5.2317134e-16 -7.0361913)
(148.057 -5.0086979e-16 -6.7939765)
(147.99217 -9.3487688e-19 -6.5571748)
(147.94176 0 -6.3265055)
(147.90568 4.3769873e-16 -6.1026179)
(147.88377 -4.1854216e-16 -5.8860818)
(147.8758 0 -5.6773832)
(147.88148 0 -5.4769153)
(147.90043 2.2910863e-17 -5.2849861)
(147.9322 -1.3698635e-18 -5.1018167)
(147.97637 2.0992537e-17 -4.9275254)
(148.03248 0 -4.7621416)
(148.09999 0 -4.6056163)
(148.17827 0 -4.4578245)
(148.26664 0 -4.3185583)
(148.3644 -3.5994944e-17 -4.1875641)
(148.47091 -3.2479941e-17 -4.0644906)
(148.58528 0 -3.9490315)
(148.70706 2.9880451e-17 -3.8406381)
(148.83468 0 -3.7391385)
(148.96855 -3.0964668e-17 -3.6435097)
(149.10468 -4.2613371e-16 -3.5543412)
(149.24694 4.0628949e-16 -3.4690614)
(149.38366 -3.0502173e-18 -3.3911218)
(149.53147 3.7539152e-16 -3.3126201)
(149.6542 -3.8102288e-16 -3.2471875)
(149.81073 0 -3.1677165)
(149.89092 -3.3488362e-16 -3.1218611)
(150.0872 6.4537455e-16 -3.0164323)
(150.05152 -3.1150228e-16 -3.031737)
(150.37389 4.6907828e-18 -2.8263931)
(150.03606 0 -3.0588959)
(150.66296 -1.4018939e-16 -2.46147)
(149.69613 1.7184807e-17 -3.4242512)
(150.84616 1.3148987e-16 -1.5805641)
(149.21941 -3.206754e-17 -4.5726219)
(150.76583 -1.2912647e-15 -19.115755)
(159.12411 1.1531412e-15 -12.767198)
(155.76224 -4.3610174e-18 -18.12444)
(157.32778 1.046215e-15 -13.753504)
(156.01547 -9.9721358e-16 -16.958951)
(156.47066 7.2778239e-18 -14.447697)
(155.8209 0 -16.117489)
(155.86815 0 -14.794436)
(155.46729 7.7648932e-16 -15.549859)
(155.34409 -7.5770879e-16 -14.878657)
(155.04023 6.9614938e-16 -15.150972)
(154.84114 -6.6975095e-16 -14.79553)
(154.5713 0 -14.832966)
(154.33722 5.9787548e-16 -14.611856)
(154.07553 -5.7153052e-16 -14.539647)
(153.82387 0 -14.365176)
(153.56091 0 -14.239893)
(153.29937 0 -14.073292)
(153.03277 -9.1587891e-16 -13.917954)
(152.76544 8.8393184e-16 -13.74324)
(152.49588 0 -13.566241)
(152.22582 7.9971289e-16 -13.377165)
(151.95536 -7.4850029e-16 -13.181238)
(151.68552 -7.2392923e-16 -12.975527)
(151.41695 3.194768e-17 -12.761596)
(151.15054 6.3512781e-16 -12.538698)
(150.88712 6.4416015e-16 -12.307408)
(150.6276 -1.1988316e-15 -12.06772)
(150.3729 1.1331956e-15 -11.82004)
(150.12396 -5.2285438e-16 -11.564684)
(149.88172 5.1461362e-16 -11.302138)
(149.6471 -9.808068e-16 -11.032921)
(149.42103 9.4965315e-16 -10.757662)
(149.2044 -8.7765955e-16 -10.477051)
(148.99806 4.2505397e-16 -10.191865)
(148.80281 0 -9.9029435)
(148.61938 2.4193545e-17 -9.6111865)
(148.44846 -1.1528899e-17 -9.3175404)
(148.29063 -7.1558064e-16 -9.0229893)
(148.14641 7.1430874e-16 -8.7285503)
(148.01621 0 -8.4352573)
(147.90038 -6.1282746e-16 -8.1441409)
(147.79915 3.645675e-17 -7.8562201)
(147.71268 1.1175164e-15 -7.5724864)
(147.64101 -5.3364497e-16 -7.293892)
(147.58414 -5.0986088e-16 -7.0213345)
(147.54195 5.1752137e-16 -6.7556481)
(147.51426 -4.0726645e-16 -6.4975903)
(147.50082 8.3403487e-16 -6.2478359)
(147.50133 -4.251776e-16 -6.0069673)
(147.51539 0 -5.7754714)
(147.54261 0 -5.5537341)
(147.5825 -2.3222588e-17 -5.3420396)
(147.63451 -7.1094165e-16 -5.1405848)
(147.69811 6.5894926e-16 -4.9494607)
(147.77277 6.101674e-16 -4.7686513)
(147.85794 -5.6438506e-20 -4.5980593)
(147.95298 -6.7094025e-16 -4.4375113)
(148.05718 0 -4.2867504)
(148.16985 3.4171728e-17 -4.1454524)
(148.29031 -3.2753037e-17 -4.0132234)
(148.41782 -6.2743385e-17 -3.8896455)
(148.55173 -4.508614e-16 -3.7741891)
(148.69101 8.8965646e-20 -3.666429)
(148.83521 4.1452e-16 -3.5656158)
(148.98222 0 -3.471599)
(149.13268 -4.0683912e-16 -3.3829656)
(149.28109 3.9058914e-16 -3.3008149)
(149.43316 -4.6877282e-17 -3.2212441)
(149.57229 3.8268748e-16 -3.1502655)
(149.72427 -6.9232693e-16 -3.0743119)
(149.83353 3.7453551e-16 -3.0189929)
(149.99785 3.2012058e-16 -2.9284803)
(150.03192 -1.1817454e-19 -2.9160159)
(150.27114 -3.1994016e-16 -2.746447)
(150.0711 2.6837809e-16 -2.9123771)
(150.53772 -2.7145997e-16 -2.4136396)
(149.78753 -1.672e-17 -3.2358238)
(150.70803 1.6048773e-17 -1.5774593)
(149.35753 3.1243908e-17 -4.2966889)
(150.25814 1.3058928e-15 -20.833564)
(158.6133 -8.0886444e-21 -14.244829)
(155.10866 -1.1369164e-15 -19.784735)
(156.75016 1.0528081e-15 -15.245237)
(155.36511 7.8736935e-18 -18.545161)
(155.84473 9.4205629e-16 -15.943261)
(155.1577 -1.7988663e-15 -17.640653)
(155.20535 1.2906878e-17 -16.273947)
(154.78282 8.0469323e-16 -17.020881)
(154.64995 1.1898232e-17 -16.325766)
(154.33048 -7.33462e-16 -16.574707)
(154.11837 6.8407356e-16 -16.199425)
(153.83491 0 -16.208722)
(153.58737 0 -15.96548)
(153.31289 -5.8432657e-16 -15.86357)
(153.04842 5.5443686e-16 -15.66312)
(152.7735 0 -15.506844)
(152.50031 1.5646544e-17 -15.310575)
(152.22297 -1.4848495e-17 -15.122488)
(151.9456 8.757869e-16 -14.914902)
(151.66701 4.5420478e-19 -14.703028)
(151.38894 -7.9148733e-16 -14.478304)
(151.11168 7.6550676e-16 -14.245276)
(150.83634 -7.3953969e-16 -14.001505)
(150.56371 -7.2618323e-16 -13.74838)
(150.29478 6.9091563e-16 -13.485392)
(150.03051 1.9985104e-17 -13.213137)
(149.77189 3.8007919e-17 -12.931777)
(149.51994 3.6201457e-17 -12.641828)
(149.27566 -5.686916e-16 -12.343762)
(149.04004 4.9234448e-16 -12.038218)
(148.81406 5.3204258e-16 -11.725885)
(148.59864 -4.7704923e-16 -11.407561)
(148.39466 -4.5494586e-16 -11.084118)
(148.20294 8.6733035e-16 -10.756505)
(148.02423 -8.2704901e-16 -10.42574)
(147.85917 -3.698767e-16 -10.092893)
(147.70834 7.5221923e-16 -9.7590832)
(147.57219 0 -9.4254508)
(147.4511 -6.8479337e-16 -9.093147)
(147.34532 6.1246957e-16 -8.7633313)
(147.25499 0 -8.437146)
(147.18018 -3.7181782e-17 -8.1157014)
(147.12083 0 -7.8000604)
(147.07679 6.7843253e-17 -7.4912305)
(147.04785 0 -7.1901441)
(147.03369 -3.0903354e-17 -6.8976527)
(147.03393 4.8865083e-20 -6.6145152)
(147.04815 1.1282737e-16 -6.341392)
(147.07587 0 -6.0788381)
(147.11654 0 -5.8273018)
(147.16962 0 -5.587121)
(147.2345 0 -5.3585247)
(147.31058 0 -5.1416379)
(147.39718 8.5982198e-17 -4.9364951)
(147.49371 4.1090554e-17 -4.7430203)
(147.59959 6.2890868e-16 -4.5610348)
(147.71416 -6.0171454e-16 -4.3902934)
(147.83671 -7.1966181e-17 -4.2304708)
(147.96654 0 -4.0811661)
(148.10298 6.5886657e-17 -3.9419193)
(148.24533 5.676679e-16 -3.8122254)
(148.39293 -5.4361006e-16 -3.6915155)
(148.54496 0 -3.5792229)
(148.70072 -5.5420825e-17 -3.4746676)
(148.85886 -1.0617143e-16 -3.3773423)
(149.01879 4.0689855e-16 -3.2863193)
(149.17762 -3.9015072e-16 -3.2015443)
(149.33638 4.6753483e-17 -3.1211225)
(149.48725 -3.5875631e-16 -3.0470307)
(149.63968 9.4493003e-20 -2.9729465)
(149.76795 2.8923924e-16 -2.9103407)
(149.9179 0 -2.8312486)
(149.98993 0 -2.7978503)
(150.18379 1.8308939e-17 -2.6620226)
(150.07564 1.7634915e-17 -2.7626757)
(150.42765 2.9642e-17 -2.3574866)
(149.8388 -1.1446372e-16 -3.029246)
(150.59645 1.1405369e-16 -1.5620591)
(149.38766 -6.0372035e-17 -4.0767128)
(149.59813 3.1572717e-17 -22.592666)
(157.92631 9.3959904e-18 -15.751511)
(154.30429 1.174557e-15 -21.479885)
(156.02137 4.7274567e-19 -16.767402)
(154.56126 -1.0264992e-15 -20.159428)
(155.06466 -9.6740548e-16 -17.467037)
(154.33895 9.1636947e-16 -19.186373)
(154.38546 -1.3528816e-17 -17.777698)
(153.94031 8.3375159e-16 -18.510054)
(153.79627 -7.5260666e-16 -17.791699)
(153.46039 -7.368168e-16 -18.012255)
(153.23412 1.374639e-15 -17.616148)
(152.93638 -6.6211595e-16 -17.593331)
(152.67463 1.9651729e-17 -17.3257)
(152.38694 0 -17.190609)
(152.10935 0 -16.961171)
(151.82241 -5.3787444e-16 -16.770493)
(151.53776 4.9474867e-16 -16.541141)
(151.25012 0 -16.316776)
(150.96343 9.5189966e-16 -16.072684)
(150.67684 -9.0458859e-16 -15.822268)
(150.39211 4.3788593e-20 -15.558153)
(150.10975 0 -15.284284)
(149.83096 -4.7237995e-17 -14.998707)
(149.55668 -7.1873232e-16 -14.702692)
(149.28802 6.4093172e-16 -14.39598)
(149.02604 -6.9186295e-16 -14.07924)
(148.77184 5.8100397e-16 -13.752826)
(148.52651 -3.686517e-17 -13.417404)
(148.2911 -3.5171592e-17 -13.073642)
(148.06665 -5.0223503e-16 -12.722362)
(147.85413 4.782732e-16 -12.364456)
(147.65445 0 -12.000922)
(147.46844 0 -11.632836)
(147.29685 0 -11.261347)
(147.14032 -5.2668004e-17 -10.887661)
(146.99937 -5.0136928e-17 -10.513031)
(146.87441 8.1339284e-16 -10.13874)
(146.76575 -9.1131458e-17 -9.7660878)
(146.67353 -6.5248149e-16 -9.3963596)
(146.59782 4.1477529e-17 -9.0308179)
(146.53854 6.335248e-16 -8.6706944)
(146.49552 -5.2875667e-16 -8.3171679)
(146.46847 -5.7674395e-16 -7.9713432)
(146.45703 -6.8803274e-17 -7.6342482)
(146.46074 9.8487923e-16 -7.3068161)
(146.47908 -3.7598644e-16 -6.9898787)
(146.51147 -5.980844e-17 -6.684159)
(146.55729 3.9990522e-16 -6.3902662)
(146.61588 -5.455402e-16 -6.1086925)
(146.68657 -4.1672719e-16 -5.8398132)
(146.76866 3.9803811e-16 -5.5838868)
(146.86146 0 -5.3410583)
(146.96424 7.2633815e-16 -5.1113626)
(147.0763 -7.8077479e-16 -4.8947415)
(147.19694 0 -4.6910384)
(147.32556 6.3381172e-16 -4.4999914)
(147.46151 -9.8458545e-16 -4.3212609)
(147.60407 5.0686789e-16 -4.1544443)
(147.75257 5.538135e-16 -3.9990604)
(147.90634 -1.3254562e-16 -3.8545718)
(148.06474 -5.0663447e-16 -3.7203968)
(148.22713 -4.8452633e-16 -3.595903)
(148.39281 5.7958207e-16 -3.4804351)
(148.56107 -4.4359436e-16 -3.3732877)
(148.73087 1.0623726e-16 -3.2737969)
(148.90128 4.0646843e-16 -3.1811563)
(149.07039 -3.8906728e-16 -3.0948571)
(149.23756 5.590274e-16 -3.0137114)
(149.39856 0 -2.9380115)
(149.55598 0 -2.8647663)
(149.69712 0 -2.7984444)
(149.84293 0 -2.7252787)
(149.9411 1.5073884e-16 -2.678492)
(150.10421 -2.8912099e-16 -2.5679587)
(150.06408 3.4721939e-16 -2.6171877)
(150.33619 -3.6638536e-16 -2.2906688)
(149.86856 4.9713787e-16 -2.8284385)
(150.50335 -3.7318212e-16 -1.5329277)
(149.41004 -1.0236239e-19 -3.8190425)
(148.78757 1.3672612e-15 -24.385853)
(157.04683 5.2838737e-19 -17.288312)
(153.34378 -1.212145e-15 -23.198907)
(155.1325 0 -18.325427)
(153.59853 -1.6336694e-17 -21.791307)
(154.12012 -3.0808112e-17 -19.022955)
(153.35709 0 -20.746083)
(153.39784 -8.552535e-16 -19.306376)
(152.93054 8.3614163e-16 -20.010466)
(152.77206 -8.1704199e-16 -19.274084)
(152.41943 7.506764e-16 -19.457203)
(152.17689 -3.7672941e-20 -19.04087)
(151.8642 0 -18.979797)
(151.587 6.2092567e-16 -18.685616)
(151.28554 -6.0802319e-16 -18.512497)
(150.99428 0 -18.250509)
(150.69521 5.4857135e-16 -18.020932)
(150.39922 -5.5343235e-16 -17.754277)
(150.10176 4.9519667e-16 -17.489117)
(149.80659 4.4149279e-16 -17.203998)
(149.51324 -8.664584e-16 -16.91044)
(149.2235 -2.6561176e-17 -16.602316)
(148.93809 5.0622929e-17 -16.283006)
(148.65836 -9.5264383e-20 -15.951069)
(148.38538 0 -15.607708)
(148.12038 -8.6332386e-20 -15.252949)
(147.86454 0 -14.887583)
(147.61903 3.9500829e-17 -14.5122)
(147.38501 0 -14.127662)
(147.16356 3.5739526e-17 -13.734871)
(146.95571 0 -13.334876)
(146.76242 0 -12.928806)
(146.58451 6.1876892e-17 -12.517893)
(146.42275 0 -12.103438)
(146.27772 -4.4897505e-16 -11.686808)
(146.14993 4.8114864e-16 -11.269412)
(146.0397 0 -10.852688)
(145.94724 -4.8539085e-17 -10.43808)
(145.8726 -6.484047e-16 -10.02702)
(145.81572 6.1805063e-16 -9.620917)
(145.77639 -6.7352583e-16 -9.2211177)
(145.75426 7.2253097e-16 -8.8289042)
(145.74891 -7.6563648e-16 -8.4454863)
(145.75978 5.8417685e-16 -8.0719726)
(145.78625 -1.3939848e-16 -7.7093668)
(145.82763 6.6418667e-17 -7.3585592)
(145.88317 -1.2674335e-16 -7.0203171)
(145.95209 1.2105656e-16 -6.6952835)
(146.03357 -4.6184338e-16 -6.3839741)
(146.1268 9.9174076e-16 -6.0867778)
(146.23095 -4.9644792e-20 -5.8039599)
(146.3452 -5.0207786e-16 -5.5356648)
(146.46876 1.9176519e-16 -5.2819224)
(146.60086 0 -5.0426544)
(146.74071 0 -4.8176826)
(146.88758 0 -4.6067485)
(147.04084 -6.3751761e-16 -4.4094933)
(147.19985 4.5687754e-16 -4.2254745)
(147.36394 1.454299e-16 -4.0541963)
(147.53242 -1.3900104e-16 -3.8950955)
(147.70467 1.3277235e-16 -3.7475524)
(147.88011 -7.6139078e-16 -3.6109109)
(148.05815 9.7027602e-16 -3.484472)
(148.23818 -1.0433415e-15 -3.3675098)
(148.41952 9.9738579e-16 -3.25927)
(148.60134 -2.1204364e-16 -3.159)
(148.78265 -6.0795482e-16 -3.0658991)
(148.96197 0 -2.9792594)
(149.13807 -1.8533306e-16 -2.8981351)
(149.30819 1.7733172e-16 -2.8220933)
(149.47198 0 -2.7495018)
(149.62305 0 -2.6815216)
(149.76921 -1.5545554e-16 -2.6121006)
(149.88429 -2.9771913e-16 -2.5559955)
(150.02989 -2.8507471e-16 -2.4646462)
(150.03785 6.8343001e-17 -2.4727962)
(150.25232 -6.5516208e-17 -2.2113809)
(149.87877 2.5156076e-16 -2.6286214)
(150.41469 -6.014255e-17 -1.4947328)
(149.39936 2.2722903e-16 -3.5777013)
(147.81789 1.3654482e-15 -26.210692)
(155.9814 -1.244553e-15 -18.856567)
(152.21486 1.8656819e-17 -24.942858)
(154.07101 0 -19.918649)
(152.46461 1.6592957e-17 -23.439348)
(152.99895 1.0341568e-15 -20.608345)
(152.20003 -9.2017078e-16 -22.316478)
(152.23067 -5.6181125e-17 -20.855009)
(151.74163 0 -21.517046)
(151.56586 -8.0697568e-16 -20.765952)
(151.19616 7.1309462e-17 -20.902536)
(150.93569 2.2223077e-17 -20.464873)
(150.60753 6.4468248e-16 -20.359136)
(150.3141 0 -20.034863)
(149.99864 6.1973655e-16 -19.818344)
(149.69367 -1.139628e-15 -19.519143)
(149.3828 1.1172342e-15 -19.245497)
(149.07618 -4.9734663e-16 -18.936404)
(148.77004 0 -18.625212)
(148.46795 2.9916474e-17 -18.293764)
(148.16985 -9.1115808e-16 -17.951784)
(147.87759 1.7320273e-15 -17.594374)
(147.59214 -1.69841e-15 -17.224445)
(147.31496 8.8090152e-16 -16.841079)
(147.04729 -7.4520713e-16 -16.44549)
(146.79047 7.0850306e-16 -16.038025)
(146.54576 0 -15.619662)
(146.31441 -6.0172037e-16 -15.191269)
(146.09758 6.1074114e-16 -14.75396)
(145.89637 7.2772715e-17 -14.308916)
(145.71174 6.9280455e-17 -13.857451)
(145.54456 -5.9317534e-16 -13.400969)
(145.39555 9.4122447e-16 -12.940957)
(145.26528 1.4015878e-19 -12.478962)
(145.15417 -9.1066648e-16 -12.016577)
(145.06247 5.4224058e-16 -11.555412)
(144.99026 0 -11.097078)
(144.93748 3.9375212e-16 -10.643163)
(144.90388 -4.6902942e-16 -10.195208)
(144.8891 0 -9.7546945)
(144.89262 -6.8156645e-16 -9.3230221)
(144.91381 8.1365458e-17 -8.9014811)
(144.95191 5.4173077e-16 -8.4912544)
(145.00612 0 -8.0934062)
(145.07554 1.4066046e-16 -7.7088637)
(145.15923 6.7109329e-16 -7.3384215)
(145.25622 -5.1197755e-16 -6.9827334)
(145.36552 1.2116992e-19 -6.6423141)
(145.48615 -4.6569203e-16 -6.3175426)
(145.61713 8.885192e-16 -6.008664)
(145.75753 -7.5153017e-20 -5.7157978)
(145.90642 -1.0108625e-16 -5.4389429)
(146.06294 -1.9283561e-16 -5.1779872)
(146.22627 1.8412376e-16 -4.932715)
(146.3956 1.7569803e-16 -4.7028158)
(146.5702 6.704329e-16 -4.4879049)
(146.74938 -6.4007117e-16 -4.2875151)
(146.93257 0 -4.101103)
(147.11913 0 -3.9280672)
(147.30842 1.3918204e-16 -3.7677619)
(147.49988 5.3159115e-16 -3.6194863)
(147.69295 -2.539408e-16 -3.4825121)
(147.88714 -4.8471754e-16 -3.3560771)
(148.0819 -2.3138402e-16 -3.2393952)
(148.27666 2.2112029e-16 -3.1316614)
(148.4707 4.2232987e-16 -3.0320626)
(148.66311 8.0678151e-16 -2.9397681)
(148.85264 -3.8544845e-16 -2.8539696)
(149.03789 3.6815157e-16 -2.773773)
(149.21674 -7.0370851e-16 -2.6984524)
(149.38769 -3.3617148e-16 -2.6268716)
(149.547 3.2141076e-16 -2.558732)
(149.69635 1.5358823e-16 -2.4916126)
(149.82364 1.4685735e-16 -2.4300593)
(149.95809 -2.8088332e-16 -2.352071)
(150.00161 1.3437305e-16 -2.3289122)
(150.173 1.2856539e-16 -2.1226846)
(149.87938 -4.9265884e-16 -2.4316448)
(150.33533 2.9440725e-16 -1.4466514)
(149.37555 0 -3.3282159)
(146.67204 2.1996179e-17 -28.066854)
(154.78189 -1.2267732e-15 -20.456605)
(150.90438 3.741445e-17 -26.703281)
(152.82273 1.1377828e-15 -21.540944)
(151.1467 -1.0811401e-15 -25.093757)
(151.68743 1.0517372e-15 -22.215909)
(150.85483 -6.041128e-17 -23.888137)
(150.87062 2.8555657e-17 -22.4147)
(150.3606 0 -23.020148)
(150.16458 8.212715e-16 -22.257047)
(149.77764 -8.7539323e-16 -22.337722)
(149.49764 0 -21.876638)
(149.15366 7.4396238e-16 -21.719465)
(148.8434 -6.6400094e-16 -21.360559)
(148.51398 6.3058488e-16 -21.094685)
(148.19557 -6.356169e-16 -20.752659)
(147.8737 4.9730463e-16 -20.429023)
(147.55768 -1.0794284e-15 -20.071461)
(147.24458 5.1255743e-16 -19.70819)
(146.93786 -4.8731238e-16 -19.32428)
(146.63786 5.2078798e-16 -18.927826)
(146.34653 -5.5084544e-17 -18.515127)
(146.06509 -5.236709e-17 -18.088754)
(145.7951 -4.9664623e-17 -17.64833)
(145.53796 0 -17.195176)
(145.29511 4.491988e-17 -16.73001)
(145.06787 6.8461229e-16 -16.254068)
(144.85749 -7.3230769e-16 -15.768555)
(144.66512 5.4212992e-16 -15.274894)
(144.49177 -1.4717811e-16 -14.774588)
(144.3383 -6.3103201e-16 -14.269261)
(144.2054 -1.5158781e-19 -13.760613)
(144.09358 -5.0841237e-16 -13.250408)
(144.00317 4.8389319e-16 -12.740443)
(143.9343 1.153204e-16 -12.232529)
(143.88691 -1.0958642e-16 -11.728459)
(143.86076 0 -11.22999)
(143.85543 -3.979691e-16 -10.738812)
(143.87033 4.7373162e-16 -10.256532)
(143.90472 -7.2218703e-16 -9.7846503)
(143.95776 8.6018303e-16 -9.3245519)
(144.02846 -1.6376976e-16 -8.8774799)
(144.11578 7.80701e-16 -8.4445284)
(144.21859 -1.3395109e-15 -8.0266515)
(144.33574 -1.4185298e-16 -7.6246416)
(144.46605 4.0569664e-16 -7.2391383)
(144.60833 0 -6.8706288)
(144.76143 1.2303951e-16 -6.5194509)
(144.9242 0 -6.1858024)
(145.09555 -2.234416e-16 -5.8697471)
(145.27446 0 -5.5712258)
(145.45994 -4.0614697e-16 -5.2900647)
(145.65108 1.9372283e-16 -5.025987)
(145.84704 -3.6937213e-16 -4.7786221)
(146.04703 -1.7608886e-16 -4.5475161)
(146.25032 0 -4.3321449)
(146.45624 0 -4.1319281)
(146.66427 0 -3.9462163)
(146.87383 -5.8329268e-16 -3.774307)
(147.08435 2.7850482e-16 -3.6154691)
(147.29531 1.5786055e-19 -3.4689276)
(147.50626 5.0675877e-16 -3.3338867)
(147.71674 0 -3.2095286)
(147.92632 6.9188431e-16 -3.0950162)
(148.13452 -6.6034424e-16 -2.9895002)
(148.34074 -2.0988878e-16 -2.8921222)
(148.54416 -2.0029933e-16 -2.8020164)
(148.7437 7.6516885e-16 -2.718316)
(148.93797 -3.6519335e-16 -2.6401187)
(149.12512 -5.2266502e-16 -2.5665721)
(149.30329 2.1062019e-19 -2.4966478)
(149.46978 2.0429478e-19 -2.4295678)
(149.62344 1.5158909e-15 -2.3642267)
(149.75951 -5.7905509e-16 -2.3000554)
(149.88806 5.5283379e-16 -2.2307818)
(149.95649 0 -2.1849711)
(150.09565 5.0436032e-16 -2.0251018)
(149.86976 -4.8260829e-16 -2.2381659)
(150.25555 0 -1.3894628)
(149.33913 2.1392735e-16 -3.0863221)
(145.33706 1.4049549e-15 -29.954573)
(153.42705 -2.5747223e-15 -22.083593)
(149.40549 -3.9157075e-17 -28.470641)
(151.37874 -7.0902961e-19 -23.186023)
(149.63604 1.0983234e-15 -26.745495)
(150.17541 -1.0376814e-15 -23.837659)
(149.31118 1.9960395e-15 -25.452098)
(149.30657 -9.2975873e-16 -23.975809)
(148.77592 0 -24.50999)
(148.55636 0 -23.736136)
(148.15165 9.8922664e-17 -23.751406)
(147.85047 -7.5051689e-16 -23.263272)
(147.49022 7.5587875e-16 -23.047414)
(147.16271 0 -22.647944)
(146.81958 0 -22.325947)
(146.48849 6.0820293e-16 -21.93426)
(146.15694 -5.0496396e-16 -21.553725)
(145.83349 0 -21.14056)
(145.51608 5.2070828e-16 -20.71818)
(145.20807 -4.9431624e-16 -20.274709)
(144.91021 -5.8645719e-17 -19.816875)
(144.62458 5.5726215e-17 -19.342122)
(144.3526 5.2960172e-17 -18.852844)
(144.09599 0 -18.349243)
(143.85624 0 -17.832853)
(143.63482 0 -17.304826)
(143.43307 0 -16.76674)
(143.25219 0 -16.220193)
(143.09321 7.0524059e-16 -15.666974)
(142.95696 -5.2173242e-16 -15.10895)
(142.8441 0 -14.548082)
(142.75503 6.0712404e-16 -13.986383)
(142.68996 1.0124176e-19 -13.425889)
(142.64887 7.5611451e-20 -12.868635)
(142.6315 -9.2989223e-16 -12.316616)
(142.6374 4.426509e-16 -11.771769)
(142.6659 5.2684707e-16 -11.235939)
(142.71618 -4.0116737e-16 -10.710858)
(142.78722 -3.8194893e-16 -10.198126)
(142.87791 -3.6366192e-16 -9.6991926)
(142.98701 -1.7296554e-16 -9.2153438)
(143.11319 6.5979277e-16 -8.7476994)
(143.25508 -1.5721587e-16 -8.2971974)
(143.41127 -4.4899028e-16 -7.8646039)
(143.58036 1.4260093e-16 -7.4505127)
(143.76096 6.7928086e-16 -7.0553473)
(143.95169 -2.5897751e-16 -6.6793745)
(144.15126 2.466969e-16 -6.3227091)
(144.35842 -2.349907e-16 -5.9853285)
(144.57201 2.2389072e-16 -5.6670828)
(144.79094 0 -5.3677076)
(145.01421 -1.4960563e-19 -5.0868364)
(145.24091 -1.938647e-16 -4.8240127)
(145.4702 1.84794e-16 -4.578701)
(145.70135 -3.5250539e-16 -4.3502977)
(145.93366 0 -4.1381399)
(146.16654 -3.2030919e-16 -3.9415293)
(146.39949 3.0514571e-16 -3.7597112)
(146.63205 -1.164363e-15 -3.5918958)
(146.86372 5.5526681e-16 -3.4372669)
(147.09406 5.2915174e-16 -3.294986)
(147.3227 -2.5235089e-16 -3.1641982)
(147.54928 4.8104543e-16 -3.0440401)
(147.77344 -9.1746698e-16 -2.9336337)
(147.9948 -4.3728886e-16 -2.8320954)
(148.21289 8.3416142e-16 -2.7385338)
(148.42701 9.8843772e-20 -2.6520526)
(148.63619 3.7916985e-16 -2.5717472)
(148.83915 3.614922e-16 -2.4966963)
(149.03418 0 -2.4259821)
(149.21936 9.8561768e-16 -2.3585721)
(149.39227 -1.880179e-15 -2.2935957)
(149.55079 1.0187111e-19 -2.23011)
(149.69319 8.5474417e-16 -2.1658354)
(149.81937 -1.358685e-15 -2.1019919)
(149.90671 2.1701824e-19 -2.0406443)
(150.0199 2.472998e-16 -1.9182305)
(149.8534 -4.718847e-16 -2.0479061)
(150.17885 1.1255888e-15 -1.3269846)
(149.30176 -2.0775127e-16 -2.8460198)
(143.80434 0 -31.870785)
(151.86698 -1.3096486e-15 -23.731827)
(147.70779 1.2534164e-15 -30.24148)
(149.7271 3.6837951e-17 -24.851326)
(147.9205 1.1515633e-15 -28.389908)
(148.44945 -3.2189716e-17 -25.468224)
(147.5553 -9.9824793e-16 -27.001877)
(147.5241 8.8636952e-16 -25.529962)
(146.97277 -8.9491959e-16 -25.977731)
(146.72618 -9.0152043e-16 -25.192019)
(146.303 -4.0213436e-19 -25.131815)
(145.97911 7.6166142e-16 -24.610823)
(145.60229 1.3624521e-19 -24.328057)
(145.25754 -6.8546178e-16 -23.880253)
(144.90151 6.4981843e-16 -23.494101)
(144.55923 7.7232578e-17 -23.044338)
(144.22029 6.5888386e-16 -22.598685)
(143.89253 -5.5548865e-16 -22.121433)
(143.57474 -5.2772572e-16 -21.631719)
(143.27026 4.3806173e-16 -21.120505)
(142.98024 -4.758895e-16 -20.593448)
(142.70686 4.5175272e-16 -20.049118)
(142.45175 -4.2938881e-16 -19.489906)
(142.21669 3.0561185e-16 -18.916646)
(142.00321 0 -18.331211)
(141.81277 7.3673987e-16 -17.735251)
(141.6466 -6.9994032e-16 -17.130773)
(141.50572 -6.6557057e-16 -16.519821)
(141.39095 -1.8823336e-19 -15.904598)
(141.30282 6.0139986e-16 -15.287359)
(141.24162 5.7198531e-16 -14.670411)
(141.20739 -5.438497e-16 -14.056065)
(141.19987 1.2949126e-16 -13.446602)
(141.21856 -4.9205853e-16 -12.844243)
(141.26275 8.1927177e-16 -12.251111)
(141.33146 -4.453432e-16 -11.669208)
(141.42356 -7.4165809e-16 -11.100385)
(141.53773 4.0326411e-16 -10.546322)
(141.67252 0 -10.008519)
(141.82638 -1.828044e-16 -9.4882776)
(141.99769 -6.9536417e-16 -8.9866956)
(142.18477 6.6214345e-16 -8.5046773)
(142.38596 7.8774314e-16 -8.0429208)
(142.5996 -7.504534e-16 -7.6019298)
(142.82406 -2.8551546e-16 -7.1820315)
(143.05778 6.807296e-16 -6.7833776)
(143.29927 2.5907026e-16 -6.4059655)
(143.54714 2.4701339e-16 -6.0496477)
(143.80009 2.3519915e-16 -5.7141497)
(144.05692 -1.6441503e-19 -5.3990842)
(144.31656 -6.4039525e-16 -5.1039658)
(144.57803 6.0978048e-16 -4.8282245)
(144.84046 3.8716747e-16 -4.5712184)
(145.10308 -7.3828113e-16 -4.332246)
(145.36521 3.5152618e-16 -4.1105557)
(145.62625 -6.6989132e-16 -3.9053546)
(145.8857 1.5958298e-15 -3.7158274)
(146.14312 -3.0430393e-16 -3.5411268)
(146.39816 -2.8983974e-16 -3.380387)
(146.65044 -2.7607746e-16 -3.2327169)
(146.8996 0 -3.097226)
(147.14536 -7.5211067e-16 -2.9730137)
(147.38745 -4.7750123e-16 -2.8591819)
(147.62562 1.365568e-15 -2.754825)
(147.85958 4.3356962e-16 -2.6590359)
(148.08896 -4.1309851e-16 -2.570902)
(148.3132 -1.574215e-15 -2.4895063)
(148.53146 -3.7472414e-16 -2.4139216)
(148.74255 3.5732212e-16 -2.3432123)
(148.94489 0 -2.276418)
(149.1366 9.7213142e-16 -2.2124999)
(149.3153 -6.1751569e-16 -2.1506006)
(149.47869 8.8218236e-16 -2.0894914)
(149.62567 -8.4018757e-16 -2.027065)
(149.75149 1.8048555e-19 -1.9666901)
(149.85182 5.0843533e-16 -1.8961195)
(149.94555 2.4208472e-16 -1.8028912)
(149.83175 0 -1.8621767)
(150.10123 -2.1964417e-16 -1.2610279)
(149.26312 0 -2.6106557)
(142.06001 -1.4686099e-15 -33.81428)
(150.09411 -4.1593943e-17 -25.401149)
(145.79395 -3.9856634e-17 -32.013367)
(147.84937 -3.7361045e-17 -26.534039)
(145.98213 -3.5388012e-17 -30.021456)
(146.49068 -1.0722574e-15 -27.100992)
(145.56846 1.0774389e-15 -28.529523)
(145.50429 5.9924507e-17 -27.066619)
(144.93218 9.6617626e-16 -27.41226)
(144.65537 -7.5299097e-16 -26.610654)
(144.21316 -1.0196397e-16 -26.464095)
(143.86562 8.2162994e-16 -25.901885)
(143.47251 -7.780796e-16 -25.542687)
(143.11145 0 -25.036677)
(142.74437 0 -24.576786)
(142.39372 -7.029444e-16 -24.05877)
(142.05117 4.4427152e-16 -23.538264)
(141.72395 0 -22.986993)
(141.41167 -6.0062219e-16 -22.420466)
(141.11768 1.0126869e-15 -21.832251)
(140.84347 2.8189648e-19 -21.227289)
(140.59132 -7.9847456e-16 -20.60526)
(140.36296 4.3322343e-16 -19.968762)
(140.16018 -7.2046284e-16 -19.31932)
(139.98443 8.7930386e-16 -18.659278)
(139.83701 -9.2958515e-17 -17.990855)
(139.7189 0 -17.316554)
(139.63083 0 -16.638911)
(139.57318 4.7726595e-16 -15.960559)
(139.54605 9.5886541e-20 -15.284137)
(139.54921 1.4400707e-16 -14.612268)
(139.58215 -1.0929861e-15 -13.94751)
(139.64402 5.1984818e-16 -13.292317)
(139.73376 -4.9391561e-16 -12.649006)
(139.85004 5.872389e-16 -12.019726)
(139.99132 -4.4660736e-16 -11.406429)
(140.15592 6.3701914e-16 -10.810854)
(140.342 0 -10.234513)
(140.54766 0 -9.6786854)
(140.77092 3.6573709e-16 -9.1444111)
(141.0098 -1.7414628e-16 -8.6325006)
(141.26232 -8.2795689e-16 -8.1435428)
(141.52656 -1.5747412e-16 -7.6779081)
(141.80066 1.0502259e-15 -7.2357713)
(142.08284 2.856351e-16 -6.8171313)
(142.37145 -1.0875376e-15 -6.4218198)
(142.66493 0 -6.0495264)
(142.96187 -7.3903948e-16 -5.6998143)
(143.26098 4.6936419e-16 -5.3721387)
(143.5611 2.2350003e-16 -5.0658643)
(143.86122 4.2523532e-16 -4.7802802)
(144.16042 -8.1034166e-16 -4.5146141)
(144.45794 7.714741e-16 -4.2680447)
(144.75309 -1.1025282e-15 -4.0397128)
(145.04532 3.4997626e-16 -3.8287305)
(145.33414 3.3326716e-16 -3.6341885)
(145.61914 0 -3.4551693)
(145.90001 0 -3.2907481)
(146.17651 5.7550699e-16 -3.1399946)
(146.44838 5.4796596e-16 -3.0019639)
(146.71536 -5.2219029e-16 -2.8757258)
(146.97728 4.9673339e-16 -2.7603498)
(147.23395 -4.7320985e-16 -2.654917)
(147.48523 4.5037688e-16 -2.5585072)
(147.73091 -1.2870871e-15 -2.4702027)
(147.97076 -8.1667429e-16 -2.3890822)
(148.20431 1.1664557e-15 -2.3142187)
(148.43087 3.7004534e-16 -2.2446779)
(148.64936 0 -2.1795175)
(148.85832 6.7039202e-16 -2.1177535)
(149.05593 -6.3822287e-16 -2.0583729)
(149.23981 0 -2.0004952)
(149.4078 -5.7796416e-16 -1.9425969)
(149.55816 -5.4998262e-16 -1.8834971)
(149.68518 0 -1.8255618)
(149.79395 0 -1.7515249)
(149.87328 0 -1.6802768)
(149.8063 -4.5117843e-16 -1.6820814)
(150.02738 0 -1.1925433)
(149.23098 -7.7509192e-16 -2.3778215)
(140.08398 -4.6674775e-17 -35.783234)
(148.08533 0 -27.087932)
(143.64359 -1.2546845e-15 -33.779353)
(145.7237 1.2549865e-15 -28.228187)
(143.7997 0 -31.631101)
(144.27703 -1.0896392e-15 -28.725545)
(143.3286 9.653048e-16 -30.023604)
(143.22511 0 -28.571206)
(142.63205 8.6511624e-16 -28.798536)
(142.32229 -9.2741071e-16 -27.973675)
(141.86091 5.159124e-17 -27.728855)
(141.48965 7.3468498e-16 -27.114252)
(141.08154 -9.236068e-17 -26.667471)
(140.70646 -6.1478701e-16 -26.091055)
(140.33179 5.8317876e-16 -25.546018)
(139.97751 7.9593614e-17 -24.947649)
(139.63733 -5.2397367e-16 -24.3409)
(139.31795 0 -23.704195)
(139.01977 6.720402e-17 -23.050164)
(138.7461 1.9172333e-16 -22.374773)
(138.49873 -1.2140246e-16 -21.682627)
(138.27992 -2.2992168e-16 -20.974539)
(138.09139 0 -20.253522)
(137.93477 1.0370674e-16 -19.521877)
(137.81127 -9.8075237e-17 -18.782526)
(137.72182 9.3100383e-17 -18.038318)
(137.66697 0 -17.292294)
(137.6469 -1.6840591e-16 -16.547484)
(137.66142 -4.7922038e-16 -15.806926)
(137.70995 4.5463083e-16 -15.073585)
(137.79158 -1.4382785e-16 -14.350317)
(137.90507 0 -13.639817)
(138.04889 3.9016016e-16 -12.944588)
(138.22125 -6.1793255e-16 -12.266902)
(138.42015 1.1783518e-16 -11.608783)
(138.64345 -2.2348007e-16 -10.971984)
(138.88889 4.2438308e-16 -10.357983)