/*--------------------------------*- C++ -*----------------------------------*\
| =========                 |                                                 |
| \\      /  F ield         | OpenFOAM: The Open Source CFD Toolbox           |
|  \\    /   O peration     | Version:  v1812                                 |
|   \\  /    A nd           | Web:      www.OpenFOAM.com                      |
|    \\/     M anipulation  |                                                 |
\*---------------------------------------------------------------------------*/
FoamFile
{
    version     2.0;
    format      ascii;
    class       volScalarField;
    location    "0";
    object      Tdirect;
}
// * * * * * * * * * * * * * * * * * * * * * * * * * * * * * * * * * * * * * //

dimensions      [0 0 0 1 0 0 0];


internalField   nonuniform List<scalar> 
366300
(
300.466
300.471
300.481
300.495
300.515
300.539
300.567
300.599
300.635
300.674
300.716
300.76
300.807
300.854
300.903
300.953
301.002
301.052
301.101
301.151
301.201
301.251
301.302
301.354
301.408
301.463
301.52
301.579
301.64
301.702
301.765
301.828
301.891
301.954
302.015
302.074
302.132
302.189
302.243
302.298
302.351
302.406
302.461
302.518
302.577
302.639
302.702
302.767
302.834
302.9
302.966
303.031
303.093
303.152
303.209
303.263
303.314
303.364
303.414
303.465
303.518
303.575
303.637
303.703
303.776
303.853
303.935
304.021
304.109
304.198
304.286
304.372
304.454
304.532
304.606
304.676
304.741
304.803
304.862
304.919
304.974
305.028
305.079
305.127
305.169
305.203
305.226
305.236
305.229
305.203
305.156
305.085
304.992
304.877
304.741
304.587
304.418
304.239
304.054
303.867
303.682
303.504
303.336
303.182
303.045
302.927
302.83
302.757
302.707
302.682
300.462
300.466
300.476
300.491
300.51
300.533
300.561
300.592
300.628
300.666
300.708
300.752
300.797
300.844
300.893
300.941
300.99
301.039
301.088
301.137
301.187
301.236
301.287
301.338
301.391
301.446
301.502
301.56
301.62
301.682
301.744
301.806
301.869
301.93
301.991
302.049
302.107
302.162
302.216
302.27
302.323
302.377
302.432
302.488
302.547
302.607
302.67
302.734
302.8
302.865
302.93
302.994
303.056
303.114
303.17
303.223
303.274
303.324
303.373
303.424
303.476
303.533
303.594
303.66
303.731
303.807
303.888
303.973
304.06
304.147
304.234
304.319
304.4
304.477
304.55
304.619
304.683
304.744
304.803
304.859
304.914
304.966
305.017
305.063
305.105
305.138
305.161
305.17
305.163
305.136
305.089
305.02
304.928
304.815
304.681
304.529
304.363
304.187
304.005
303.821
303.639
303.463
303.298
303.147
303.012
302.896
302.801
302.728
302.679
302.655
300.457
300.461
300.471
300.485
300.504
300.527
300.554
300.586
300.62
300.658
300.699
300.742
300.787
300.834
300.881
300.929
300.978
301.026
301.074
301.123
301.172
301.221
301.27
301.321
301.374
301.427
301.483
301.541
301.6
301.66
301.721
301.783
301.844
301.905
301.965
302.023
302.079
302.134
302.188
302.241
302.293
302.346
302.401
302.456
302.514
302.574
302.636
302.699
302.764
302.828
302.893
302.955
303.016
303.074
303.129
303.181
303.232
303.281
303.33
303.38
303.432
303.488
303.548
303.613
303.684
303.759
303.839
303.922
304.007
304.094
304.179
304.262
304.342
304.419
304.491
304.558
304.622
304.682
304.74
304.796
304.849
304.901
304.951
304.996
305.037
305.069
305.091
305.1
305.092
305.066
305.02
304.951
304.861
304.749
304.617
304.468
304.305
304.132
303.953
303.772
303.593
303.421
303.258
303.109
302.977
302.863
302.769
302.698
302.649
302.625
300.451
300.456
300.465
300.479
300.498
300.521
300.548
300.578
300.612
300.65
300.69
300.733
300.777
300.823
300.869
300.917
300.964
301.012
301.06
301.108
301.156
301.204
301.253
301.303
301.355
301.408
301.463
301.52
301.578
301.637
301.698
301.758
301.819
301.879
301.937
301.995
302.05
302.105
302.158
302.21
302.262
302.314
302.368
302.423
302.48
302.539
302.6
302.662
302.726
302.789
302.852
302.914
302.974
303.031
303.085
303.137
303.187
303.236
303.284
303.334
303.385
303.44
303.5
303.564
303.634
303.708
303.786
303.868
303.952
304.037
304.121
304.203
304.282
304.357
304.428
304.495
304.557
304.617
304.674
304.729
304.782
304.833
304.881
304.926
304.965
304.997
305.018
305.026
305.019
304.993
304.947
304.879
304.79
304.68
304.55
304.404
304.244
304.074
303.898
303.72
303.544
303.375
303.216
303.07
302.939
302.827
302.735
302.665
302.617
302.594
300.446
300.45
300.46
300.473
300.491
300.514
300.54
300.57
300.604
300.641
300.68
300.722
300.766
300.811
300.857
300.903
300.95
300.997
301.044
301.091
301.139
301.186
301.235
301.284
301.335
301.388
301.442
301.497
301.555
301.613
301.673
301.732
301.792
301.851
301.909
301.965
302.02
302.073
302.126
302.177
302.229
302.28
302.333
302.387
302.443
302.502
302.562
302.623
302.685
302.748
302.81
302.871
302.93
302.986
303.04
303.091
303.14
303.188
303.236
303.285
303.336
303.39
303.449
303.512
303.581
303.654
303.731
303.812
303.894
303.977
304.06
304.141
304.218
304.292
304.362
304.428
304.49
304.548
304.604
304.658
304.71
304.76
304.808
304.852
304.89
304.921
304.942
304.949
304.941
304.916
304.87
304.804
304.716
304.608
304.481
304.337
304.18
304.013
303.84
303.666
303.493
303.327
303.171
303.027
302.899
302.789
302.699
302.63
302.583
302.56
300.44
300.444
300.453
300.467
300.485
300.507
300.533
300.562
300.595
300.631
300.67
300.711
300.754
300.798
300.844
300.889
300.935
300.982
301.028
301.074
301.121
301.168
301.216
301.265
301.315
301.366
301.419
301.474
301.531
301.588
301.647
301.705
301.764
301.822
301.879
301.934
301.988
302.041
302.092
302.143
302.194
302.245
302.297
302.35
302.405
302.463
302.522
302.582
302.643
302.705
302.766
302.826
302.884
302.939
302.992
303.042
303.091
303.138
303.186
303.234
303.284
303.338
303.396
303.458
303.525
303.597
303.673
303.752
303.833
303.915
303.996
304.075
304.152
304.224
304.293
304.358
304.418
304.476
304.531
304.584
304.636
304.685
304.732
304.774
304.812
304.842
304.862
304.869
304.861
304.835
304.79
304.725
304.639
304.532
304.408
304.267
304.113
303.949
303.78
303.609
303.44
303.277
303.123
302.982
302.857
302.749
302.66
302.593
302.547
302.524
300.433
300.438
300.447
300.46
300.477
300.499
300.524
300.553
300.586
300.621
300.659
300.7
300.742
300.785
300.83
300.875
300.92
300.965
301.011
301.057
301.102
301.149
301.196
301.244
301.293
301.344
301.396
301.45
301.505
301.562
301.619
301.677
301.734
301.791
301.847
301.902
301.955
302.007
302.057
302.107
302.157
302.207
302.259
302.311
302.366
302.422
302.48
302.539
302.599
302.66
302.72
302.779
302.835
302.89
302.942
302.992
303.039
303.086
303.133
303.18
303.23
303.283
303.34
303.401
303.467
303.538
303.612
303.69
303.77
303.85
303.929
304.007
304.082
304.153
304.221
304.284
304.344
304.401
304.455
304.508
304.558
304.606
304.652
304.694
304.73
304.759
304.778
304.785
304.777
304.751
304.707
304.643
304.558
304.454
304.332
304.194
304.043
303.882
303.716
303.549
303.383
303.224
303.073
302.935
302.812
302.707
302.62
302.553
302.509
302.486
300.426
300.431
300.439
300.452
300.47
300.491
300.516
300.544
300.576
300.611
300.648
300.688
300.729
300.772
300.815
300.859
300.904
300.949
300.993
301.038
301.083
301.129
301.175
301.222
301.27
301.32
301.372
301.425
301.479
301.534
301.591
301.647
301.704
301.76
301.815
301.868
301.92
301.971
302.021
302.07
302.119
302.169
302.219
302.271
302.324
302.379
302.436
302.495
302.554
302.613
302.672
302.729
302.785
302.839
302.89
302.939
302.986
303.032
303.078
303.125
303.174
303.226
303.282
303.342
303.407
303.476
303.549
303.625
303.703
303.782
303.86
303.936
304.009
304.079
304.146
304.208
304.267
304.323
304.376
304.427
304.477
304.524
304.569
304.609
304.645
304.673
304.692
304.698
304.69
304.664
304.621
304.558
304.475
304.373
304.253
304.118
303.97
303.813
303.651
303.487
303.325
303.168
303.021
302.886
302.766
302.662
302.577
302.512
302.468
302.446
300.419
300.423
300.432
300.445
300.462
300.482
300.507
300.535
300.566
300.6
300.637
300.675
300.716
300.758
300.8
300.844
300.887
300.931
300.975
301.019
301.063
301.108
301.153
301.199
301.247
301.296
301.346
301.398
301.452
301.506
301.561
301.617
301.672
301.727
301.781
301.833
301.884
301.934
301.983
302.032
302.08
302.128
302.178
302.229
302.281
302.335
302.391
302.448
302.506
302.564
302.622
302.678
302.733
302.785
302.836
302.884
302.93
302.975
303.02
303.067
303.115
303.166
303.221
303.28
303.344
303.412
303.483
303.558
303.634
303.711
303.787
303.862
303.934
304.003
304.068
304.129
304.187
304.242
304.294
304.344
304.392
304.439
304.482
304.522
304.557
304.584
304.602
304.608
304.599
304.574
304.531
304.469
304.388
304.288
304.171
304.039
303.894
303.741
303.582
303.422
303.263
303.111
302.967
302.835
302.717
302.615
302.532
302.469
302.426
302.404
300.412
300.416
300.424
300.437
300.453
300.473
300.497
300.525
300.555
300.589
300.624
300.662
300.702
300.743
300.785
300.827
300.87
300.913
300.956
300.999
301.042
301.086
301.13
301.176
301.223
301.271
301.32
301.371
301.423
301.476
301.53
301.585
301.639
301.693
301.745
301.797
301.847
301.896
301.944
301.992
302.039
302.087
302.135
302.185
302.236
302.289
302.344
302.4
302.457
302.514
302.57
302.625
302.679
302.73
302.779
302.827
302.872
302.917
302.961
303.006
303.054
303.104
303.158
303.216
303.278
303.345
303.415
303.488
303.563
303.638
303.713
303.786
303.856
303.923
303.987
304.047
304.104
304.157
304.209
304.258
304.305
304.35
304.393
304.432
304.466
304.492
304.509
304.515
304.506
304.481
304.439
304.378
304.299
304.201
304.087
303.957
303.816
303.666
303.511
303.355
303.2
303.051
302.91
302.781
302.666
302.567
302.485
302.423
302.381
302.36
300.404
300.408
300.416
300.428
300.444
300.464
300.488
300.514
300.544
300.577
300.612
300.649
300.688
300.728
300.768
300.81
300.852
300.894
300.936
300.978
301.021
301.064
301.107
301.152
301.197
301.244
301.293
301.342
301.394
301.446
301.499
301.552
301.605
301.657
301.709
301.759
301.809
301.857
301.904
301.95
301.996
302.043
302.091
302.14
302.19
302.242
302.295
302.35
302.406
302.461
302.516
302.57
302.623
302.673
302.721
302.768
302.812
302.856
302.9
302.944
302.991
303.04
303.093
303.15
303.211
303.276
303.344
303.415
303.488
303.562
303.635
303.706
303.775
303.841
303.903
303.962
304.018
304.07
304.121
304.169
304.215
304.259
304.301
304.339
304.371
304.397
304.413
304.418
304.41
304.385
304.344
304.285
304.207
304.111
303.999
303.873
303.735
303.589
303.438
303.285
303.134
302.988
302.851
302.725
302.613
302.516
302.437
302.376
302.335
302.314
300.396
300.4
300.408
300.419
300.435
300.455
300.477
300.504
300.533
300.565
300.599
300.635
300.673
300.712
300.752
300.792
300.833
300.874
300.915
300.957
300.998
301.04
301.083
301.127
301.171
301.217
301.264
301.313
301.363
301.414
301.466
301.518
301.57
301.621
301.671
301.721
301.769
301.816
301.862
301.907
301.953
301.998
302.045
302.093
302.142
302.193
302.245
302.299
302.353
302.407
302.461
302.514
302.565
302.614
302.661
302.707
302.75
302.793
302.836
302.88
302.925
302.974
303.025
303.081
303.141
303.204
303.271
303.341
303.412
303.484
303.555
303.625
303.692
303.756
303.817
303.875
303.929
303.981
304.03
304.077
304.122
304.165
304.205
304.242
304.274
304.299
304.315
304.319
304.311
304.287
304.246
304.188
304.112
304.019
303.91
303.787
303.652
303.51
303.362
303.213
303.066
302.924
302.79
302.667
302.558
302.463
302.386
302.327
302.287
302.267
300.387
300.391
300.399
300.41
300.426
300.445
300.467
300.492
300.521
300.552
300.585
300.621
300.657
300.695
300.734
300.774
300.814
300.854
300.894
300.935
300.975
301.016
301.058
301.101
301.144
301.189
301.235
301.283
301.332
301.381
301.432
301.483
301.533
301.583
301.633
301.681
301.728
301.774
301.819
301.863
301.908
301.952
301.998
302.045
302.093
302.142
302.193
302.245
302.298
302.351
302.404
302.455
302.505
302.554
302.6
302.644
302.687
302.729
302.771
302.813
302.858
302.905
302.956
303.01
303.068
303.13
303.196
303.264
303.333
303.403
303.473
303.541
303.606
303.669
303.728
303.785
303.838
303.888
303.936
303.982
304.026
304.068
304.107
304.143
304.174
304.198
304.213
304.217
304.209
304.185
304.145
304.089
304.014
303.924
303.817
303.697
303.567
303.428
303.284
303.139
302.996
302.857
302.727
302.607
302.501
302.409
302.333
302.276
302.237
302.217
300.378
300.382
300.39
300.401
300.416
300.434
300.456
300.481
300.509
300.539
300.571
300.606
300.642
300.679
300.717
300.755
300.794
300.833
300.873
300.912
300.952
300.992
301.032
301.074
301.117
301.16
301.205
301.252
301.299
301.348
301.397
301.446
301.496
301.545
301.593
301.64
301.686
301.73
301.774
301.818
301.861
301.905
301.949
301.995
302.042
302.09
302.14
302.191
302.242
302.294
302.345
302.395
302.444
302.491
302.536
302.579
302.621
302.662
302.703
302.745
302.789
302.835
302.884
302.937
302.994
303.054
303.118
303.184
303.252
303.32
303.388
303.454
303.518
303.579
303.637
303.692
303.744
303.793
303.84
303.884
303.927
303.968
304.006
304.041
304.071
304.094
304.109
304.113
304.104
304.081
304.042
303.987
303.914
303.826
303.722
303.606
303.479
303.344
303.204
303.063
302.923
302.789
302.662
302.546
302.442
302.352
302.279
302.223
302.185
302.166
300.369
300.373
300.38
300.391
300.406
300.424
300.445
300.469
300.496
300.525
300.557
300.59
300.625
300.661
300.698
300.736
300.774
300.812
300.85
300.889
300.927
300.966
301.006
301.047
301.088
301.131
301.175
301.22
301.266
301.313
301.361
301.409
301.457
301.505
301.552
301.597
301.642
301.686
301.729
301.771
301.813
301.856
301.899
301.944
301.99
302.037
302.085
302.135
302.185
302.235
302.285
302.334
302.381
302.427
302.471
302.513
302.554
302.594
302.634
302.675
302.717
302.762
302.811
302.862
302.918
302.976
303.038
303.103
303.168
303.235
303.301
303.365
303.427
303.487
303.543
303.597
303.647
303.695
303.741
303.784
303.826
303.866
303.903
303.937
303.965
303.988
304.002
304.005
303.997
303.974
303.936
303.882
303.812
303.726
303.625
303.512
303.388
303.257
303.121
302.984
302.849
302.718
302.595
302.482
302.381
302.294
302.223
302.168
302.131
302.113
300.36
300.363
300.37
300.381
300.395
300.413
300.433
300.457
300.483
300.511
300.542
300.575
300.609
300.644
300.68
300.716
300.753
300.79
300.827
300.865
300.902
300.94
300.979
301.018
301.059
301.1
301.143
301.187
301.232
301.278
301.324
301.371
301.418
301.464
301.51
301.554
301.598
301.64
301.682
301.723
301.764
301.806
301.848
301.891
301.936
301.982
302.029
302.077
302.126
302.175
302.223
302.271
302.317
302.361
302.404
302.445
302.485
302.524
302.563
302.603
302.644
302.688
302.735
302.785
302.839
302.896
302.956
303.019
303.083
303.147
303.211
303.274
303.334
303.392
303.447
303.499
303.548
303.595
303.639
303.682
303.722
303.761
303.797
303.829
303.857
303.879
303.892
303.896
303.887
303.865
303.828
303.775
303.707
303.623
303.526
303.416
303.296
303.169
303.037
302.904
302.773
302.646
302.526
302.416
302.318
302.234
302.165
302.112
302.076
302.058
300.35
300.353
300.36
300.371
300.384
300.401
300.421
300.444
300.469
300.497
300.527
300.558
300.591
300.626
300.66
300.696
300.732
300.768
300.804
300.84
300.877
300.914
300.951
300.99
301.029
301.069
301.111
301.153
301.197
301.242
301.287
301.332
301.378
301.422
301.467
301.51
301.552
301.594
301.634
301.674
301.714
301.755
301.796
301.838
301.881
301.926
301.971
302.018
302.065
302.113
302.16
302.206
302.251
302.294
302.335
302.375
302.414
302.452
302.49
302.529
302.569
302.612
302.658
302.706
302.759
302.814
302.873
302.933
302.995
303.058
303.12
303.181
303.239
303.295
303.349
303.399
303.447
303.492
303.535
303.576
303.616
303.653
303.688
303.72
303.747
303.767
303.78
303.783
303.775
303.753
303.717
303.666
303.6
303.519
303.424
303.317
303.201
303.078
302.95
302.821
302.694
302.571
302.455
302.349
302.254
302.172
302.105
302.054
302.019
302.002
300.34
300.343
300.35
300.36
300.373
300.39
300.409
300.431
300.456
300.482
300.511
300.542
300.574
300.607
300.641
300.675
300.71
300.745
300.78
300.815
300.851
300.886
300.923
300.96
300.998
301.037
301.078
301.119
301.161
301.205
301.248
301.292
301.336
301.38
301.423
301.465
301.506
301.546
301.585
301.624
301.663
301.702
301.742
301.783
301.825
301.868
301.912
301.958
302.003
302.049
302.095
302.14
302.183
302.225
302.265
302.304
302.342
302.379
302.416
302.453
302.493
302.534
302.578
302.626
302.676
302.73
302.787
302.845
302.906
302.966
303.026
303.085
303.142
303.196
303.248
303.297
303.343
303.387
303.429
303.469
303.507
303.543
303.577
303.608
303.634
303.653
303.666
303.669
303.66
303.639
303.604
303.555
303.49
303.412
303.32
303.217
303.105
302.985
302.862
302.737
302.614
302.495
302.383
302.28
302.188
302.109
302.044
301.994
301.961
301.944
300.329
300.333
300.339
300.349
300.362
300.378
300.396
300.418
300.441
300.468
300.495
300.525
300.556
300.588
300.621
300.654
300.688
300.721
300.755
300.789
300.824
300.859
300.894
300.93
300.967
301.005
301.044
301.084
301.125
301.167
301.209
301.252
301.294
301.336
301.378
301.418
301.458
301.497
301.535
301.573
301.611
301.649
301.687
301.727
301.767
301.809
301.852
301.896
301.94
301.985
302.029
302.072
302.114
302.155
302.194
302.231
302.268
302.304
302.34
302.376
302.414
302.454
302.497
302.543
302.592
302.644
302.699
302.756
302.814
302.872
302.931
302.988
303.043
303.095
303.145
303.193
303.238
303.28
303.321
303.359
303.396
303.431
303.464
303.493
303.518
303.537
303.549
303.552
303.543
303.523
303.489
303.441
303.379
303.303
303.214
303.115
303.006
302.891
302.771
302.651
302.532
302.417
302.309
302.209
302.12
302.044
301.981
301.933
301.901
301.884
300.319
300.322
300.328
300.338
300.35
300.365
300.383
300.404
300.427
300.452
300.479
300.508
300.538
300.568
300.6
300.632
300.665
300.697
300.73
300.763
300.796
300.83
300.864
300.899
300.935
300.971
301.009
301.048
301.087
301.128
301.169
301.21
301.251
301.292
301.332
301.371
301.41
301.447
301.484
301.521
301.557
301.594
301.631
301.669
301.709
301.749
301.791
301.833
301.876
301.919
301.961
302.003
302.044
302.083
302.121
302.157
302.192
302.227
302.262
302.297
302.334
302.373
302.415
302.459
302.506
302.557
302.61
302.664
302.72
302.777
302.833
302.888
302.941
302.992
303.041
303.086
303.13
303.171
303.21
303.247
303.283
303.317
303.348
303.376
303.4
303.419
303.43
303.432
303.424
303.404
303.372
303.325
303.265
303.192
303.106
303.01
302.905
302.794
302.679
302.563
302.448
302.337
302.233
302.137
302.051
301.977
301.917
301.87
301.839
301.823
300.308
300.311
300.317
300.326
300.338
300.353
300.37
300.39
300.412
300.437
300.463
300.49
300.519
300.549
300.579
300.61
300.641
300.673
300.705
300.737
300.769
300.801
300.834
300.868
300.902
300.937
300.974
301.011
301.049
301.088
301.128
301.168
301.207
301.246
301.285
301.323
301.36
301.396
301.432
301.467
301.503
301.538
301.574
301.611
301.649
301.688
301.728
301.769
301.81
301.851
301.893
301.933
301.972
302.01
302.046
302.081
302.116
302.149
302.183
302.217
302.252
302.29
302.33
302.373
302.419
302.467
302.518
302.571
302.625
302.68
302.734
302.787
302.838
302.887
302.934
302.978
303.02
303.059
303.097
303.133
303.168
303.2
303.23
303.258
303.281
303.298
303.309
303.311
303.303
303.284
303.252
303.207
303.149
303.079
302.996
302.904
302.803
302.696
302.585
302.473
302.363
302.256
302.155
302.063
301.98
301.909
301.851
301.806
301.776
301.761
300.297
300.3
300.306
300.314
300.326
300.34
300.357
300.376
300.397
300.421
300.446
300.472
300.5
300.528
300.558
300.588
300.618
300.648
300.679
300.709
300.74
300.771
300.803
300.836
300.869
300.903
300.938
300.974
301.011
301.048
301.086
301.124
301.163
301.2
301.238
301.274
301.31
301.345
301.379
301.413
301.447
301.481
301.516
301.551
301.588
301.626
301.664
301.703
301.743
301.783
301.823
301.861
301.899
301.936
301.971
302.004
302.037
302.07
302.102
302.135
302.169
302.206
302.244
302.285
302.329
302.376
302.425
302.476
302.528
302.58
302.633
302.684
302.733
302.78
302.825
302.868
302.908
302.946
302.982
303.017
303.05
303.082
303.111
303.137
303.159
303.176
303.186
303.188
303.18
303.161
303.131
303.088
303.032
302.964
302.885
302.796
302.699
302.596
302.489
302.382
302.276
302.173
302.076
301.987
301.908
301.84
301.784
301.741
301.712
301.697
300.285
300.288
300.294
300.302
300.313
300.327
300.343
300.361
300.382
300.404
300.428
300.454
300.48
300.508
300.536
300.565
300.594
300.623
300.652
300.682
300.711
300.741
300.772
300.803
300.835
300.868
300.901
300.936
300.971
301.007
301.044
301.08
301.117
301.153
301.189
301.224
301.259
301.292
301.325
301.358
301.39
301.423
301.457
301.491
301.526
301.562
301.599
301.637
301.675
301.713
301.751
301.789
301.825
301.86
301.894
301.926
301.958
301.989
302.02
302.052
302.085
302.12
302.157
302.196
302.239
302.284
302.331
302.379
302.429
302.48
302.53
302.579
302.626
302.671
302.714
302.755
302.794
302.831
302.866
302.899
302.931
302.961
302.989
303.014
303.035
303.051
303.061
303.062
303.055
303.037
303.007
302.966
302.913
302.847
302.771
302.686
302.593
302.494
302.392
302.289
302.187
302.089
301.996
301.911
301.834
301.769
301.715
301.674
301.646
301.632
300.274
300.277
300.282
300.29
300.301
300.314
300.329
300.347
300.366
300.388
300.411
300.435
300.461
300.487
300.514
300.541
300.569
300.597
300.625
300.654
300.682
300.711
300.74
300.77
300.8
300.832
300.864
300.897
300.931
300.966
301.001
301.036
301.071
301.106
301.14
301.174
301.207
301.239
301.27
301.302
301.333
301.365
301.397
301.429
301.463
301.498
301.533
301.569
301.606
301.643
301.679
301.715
301.749
301.783
301.815
301.846
301.877
301.907
301.937
301.967
301.999
302.032
302.068
302.106
302.146
302.189
302.234
302.281
302.329
302.377
302.425
302.472
302.517
302.561
302.602
302.641
302.679
302.714
302.747
302.779
302.81
302.838
302.865
302.889
302.909
302.924
302.934
302.935
302.928
302.911
302.882
302.843
302.791
302.729
302.656
302.574
302.485
302.391
302.293
302.194
302.097
302.003
301.914
301.832
301.759
301.697
301.645
301.606
301.579
301.566
300.262
300.265
300.27
300.278
300.288
300.3
300.315
300.332
300.35
300.371
300.393
300.416
300.441
300.466
300.492
300.518
300.544
300.571
300.598
300.625
300.652
300.68
300.708
300.736
300.766
300.796
300.826
300.858
300.891
300.924
300.957
300.991
301.024
301.057
301.09
301.122
301.154
301.185
301.215
301.245
301.275
301.305
301.336
301.367
301.399
301.432
301.466
301.501
301.536
301.571
301.605
301.64
301.673
301.705
301.736
301.766
301.795
301.823
301.852
301.881
301.911
301.943
301.978
302.014
302.053
302.094
302.137
302.182
302.227
302.273
302.319
302.364
302.407
302.449
302.488
302.526
302.561
302.595
302.627
302.658
302.687
302.714
302.74
302.762
302.782
302.796
302.805
302.806
302.799
302.783
302.756
302.718
302.669
302.609
302.54
302.461
302.376
302.286
302.193
302.099
302.005
301.916
301.831
301.753
301.683
301.623
301.574
301.536
301.511
301.498
300.25
300.253
300.257
300.265
300.274
300.286
300.3
300.316
300.334
300.354
300.375
300.397
300.42
300.444
300.469
300.494
300.519
300.545
300.57
300.596
300.622
300.648
300.675
300.702
300.73
300.759
300.788
300.818
300.849
300.881
300.913
300.945
300.977
301.008
301.04
301.07
301.1
301.13
301.158
301.187
301.216
301.244
301.274
301.304
301.334
301.366
301.398
301.431
301.464
301.498
301.531
301.563
301.595
301.626
301.655
301.684
301.711
301.739
301.766
301.794
301.823
301.853
301.886
301.921
301.958
301.997
302.038
302.08
302.124
302.168
302.211
302.254
302.295
302.335
302.373
302.408
302.442
302.474
302.505
302.534
302.562
302.588
302.612
302.634
302.652
302.666
302.674
302.676
302.669
302.653
302.627
302.591
302.544
302.487
302.421
302.347
302.266
302.18
302.091
302.001
301.913
301.827
301.746
301.672
301.606
301.548
301.501
301.466
301.441
301.429
300.238
300.24
300.245
300.252
300.261
300.272
300.286
300.301
300.318
300.336
300.356
300.377
300.399
300.422
300.446
300.469
300.494
300.518
300.542
300.567
300.591
300.616
300.642
300.668
300.694
300.721
300.749
300.778
300.807
300.837
300.868
300.898
300.928
300.959
300.988
301.017
301.046
301.074
301.101
301.129
301.156
301.183
301.211
301.239
301.269
301.298
301.329
301.361
301.392
301.424
301.455
301.486
301.516
301.546
301.574
301.601
301.627
301.653
301.679
301.706
301.733
301.762
301.793
301.826
301.861
301.898
301.937
301.978
302.019
302.061
302.102
302.143
302.182
302.22
302.256
302.29
302.322
302.352
302.381
302.409
302.435
302.46
302.483
302.504
302.521
302.534
302.542
302.543
302.537
302.522
302.497
302.463
302.418
302.364
302.302
302.231
302.154
302.072
301.988
301.903
301.818
301.737
301.66
301.59
301.527
301.473
301.428
301.394
301.371
301.359
300.225
300.228
300.232
300.239
300.247
300.258
300.271
300.285
300.301
300.319
300.338
300.358
300.379
300.4
300.422
300.445
300.468
300.491
300.514
300.537
300.56
300.584
300.608
300.633
300.658
300.683
300.71
300.737
300.765
300.793
300.822
300.851
300.88
300.908
300.936
300.964
300.991
301.017
301.044
301.069
301.095
301.121
301.147
301.174
301.202
301.23
301.259
301.289
301.319
301.349
301.379
301.408
301.437
301.464
301.491
301.517
301.542
301.566
301.591
301.616
301.642
301.67
301.699
301.73
301.763
301.799
301.836
301.874
301.913
301.953
301.992
302.03
302.068
302.103
302.137
302.169
302.2
302.229
302.256
302.283
302.307
302.331
302.353
302.372
302.389
302.401
302.408
302.41
302.403
302.389
302.366
302.333
302.291
302.24
302.18
302.114
302.041
301.963
301.884
301.803
301.723
301.646
301.573
301.507
301.447
301.396
301.353
301.321
301.299
301.288
300.213
300.215
300.219
300.225
300.234
300.244
300.256
300.269
300.284
300.301
300.319
300.338
300.357
300.378
300.399
300.42
300.441
300.463
300.485
300.507
300.529
300.551
300.574
300.597
300.621
300.645
300.67
300.696
300.722
300.749
300.776
300.803
300.83
300.857
300.884
300.91
300.935
300.96
300.985
301.009
301.034
301.058
301.083
301.108
301.135
301.161
301.189
301.217
301.245
301.274
301.302
301.329
301.356
301.382
301.407
301.432
301.455
301.478
301.502
301.525
301.55
301.576
301.604
301.633
301.665
301.698
301.733
301.769
301.806
301.843
301.88
301.916
301.952
301.985
302.017
302.048
302.076
302.104
302.13
302.155
302.178
302.2
302.221
302.239
302.255
302.266
302.273
302.274
302.268
302.255
302.233
302.202
302.162
302.114
302.058
301.995
301.926
301.853
301.778
301.702
301.627
301.554
301.485
301.422
301.366
301.318
301.278
301.247
301.227
301.216
300.2
300.202
300.206
300.212
300.22
300.229
300.24
300.253
300.267
300.283
300.3
300.317
300.336
300.355
300.375
300.395
300.415
300.435
300.456
300.476
300.497
300.518
300.539
300.561
300.584
300.606
300.63
300.654
300.679
300.704
300.729
300.755
300.781
300.806
300.831
300.855
300.879
300.903
300.926
300.949
300.972
300.995
301.018
301.042
301.066
301.092
301.117
301.144
301.17
301.197
301.224
301.25
301.275
301.299
301.323
301.346
301.368
301.39
301.412
301.434
301.457
301.482
301.507
301.535
301.565
301.596
301.629
301.663
301.698
301.733
301.767
301.801
301.834
301.866
301.896
301.925
301.952
301.977
302.002
302.025
302.047
302.068
302.087
302.105
302.119
302.13
302.137
302.138
302.132
302.119
302.099
302.07
302.033
301.987
301.934
301.875
301.81
301.742
301.671
301.6
301.529
301.461
301.396
301.337
301.284
301.239
301.201
301.173
301.153
301.143
300.468
300.473
300.483
300.498
300.517
300.541
300.57
300.602
300.639
300.678
300.721
300.766
300.812
300.861
300.91
300.96
301.01
301.06
301.11
301.16
301.21
301.261
301.312
301.364
301.418
301.474
301.532
301.591
301.652
301.715
301.779
301.843
301.906
301.97
302.031
302.091
302.15
302.206
302.261
302.316
302.37
302.424
302.48
302.537
302.597
302.659
302.723
302.789
302.856
302.923
302.99
303.055
303.118
303.178
303.235
303.289
303.341
303.391
303.44
303.491
303.545
303.602
303.663
303.73
303.803
303.882
303.965
304.052
304.141
304.231
304.32
304.407
304.49
304.57
304.644
304.714
304.779
304.841
304.901
304.958
305.014
305.068
305.12
305.168
305.212
305.247
305.272
305.283
305.277
305.251
305.204
305.133
305.039
304.922
304.784
304.628
304.457
304.275
304.086
303.896
303.708
303.528
303.357
303.201
303.062
302.943
302.845
302.77
302.72
302.694
300.464
300.469
300.478
300.493
300.512
300.536
300.564
300.596
300.632
300.671
300.713
300.757
300.803
300.851
300.899
300.949
300.998
301.048
301.097
301.146
301.196
301.246
301.296
301.348
301.402
301.456
301.513
301.572
301.633
301.694
301.757
301.82
301.883
301.946
302.007
302.066
302.124
302.18
302.234
302.288
302.341
302.395
302.45
302.507
302.566
302.627
302.69
302.755
302.822
302.888
302.954
303.018
303.08
303.14
303.196
303.249
303.3
303.35
303.399
303.45
303.502
303.559
303.62
303.686
303.758
303.836
303.918
304.003
304.091
304.18
304.268
304.353
304.436
304.514
304.587
304.656
304.721
304.782
304.841
304.897
304.952
305.006
305.057
305.104
305.147
305.181
305.205
305.215
305.209
305.183
305.137
305.067
304.974
304.859
304.723
304.569
304.401
304.222
304.037
303.85
303.665
303.487
303.32
303.166
303.029
302.912
302.815
302.742
302.692
302.667
300.459
300.464
300.473
300.488
300.506
300.53
300.557
300.589
300.624
300.663
300.704
300.747
300.793
300.84
300.888
300.936
300.985
301.034
301.083
301.132
301.18
301.23
301.28
301.331
301.384
301.438
301.494
301.552
301.612
301.673
301.735
301.797
301.859
301.92
301.98
302.039
302.096
302.151
302.205
302.258
302.311
302.364
302.419
302.475
302.533
302.593
302.656
302.72
302.785
302.85
302.915
302.979
303.04
303.099
303.154
303.207
303.257
303.306
303.355
303.405
303.458
303.513
303.574
303.639
303.71
303.787
303.867
303.952
304.038
304.125
304.212
304.296
304.377
304.454
304.527
304.595
304.659
304.719
304.777
304.833
304.887
304.94
304.99
305.037
305.078
305.112
305.135
305.144
305.138
305.112
305.066
304.997
304.906
304.792
304.659
304.507
304.342
304.166
303.984
303.8
303.619
303.444
303.279
303.128
302.994
302.878
302.783
302.711
302.662
302.638
300.453
300.458
300.468
300.482
300.5
300.523
300.551
300.582
300.616
300.654
300.695
300.738
300.782
300.829
300.876
300.924
300.972
301.02
301.068
301.116
301.164
301.213
301.262
301.313
301.365
301.418
301.474
301.531
301.589
301.65
301.711
301.772
301.833
301.894
301.953
302.011
302.067
302.121
302.174
302.227
302.279
302.332
302.385
302.441
302.498
302.558
302.619
302.682
302.746
302.811
302.875
302.937
302.998
303.055
303.11
303.162
303.212
303.261
303.309
303.359
303.41
303.465