/*--------------------------------*- C++ -*----------------------------------*\
| =========                 |                                                 |
| \\      /  F ield         | OpenFOAM: The Open Source CFD Toolbox           |
|  \\    /   O peration     | Version:  5.0                                   |
|   \\  /    A nd           | Web:      www.OpenFOAM.org                      |
|    \\/     M anipulation  |                                                 |
\*---------------------------------------------------------------------------*/
FoamFile
{
    version     2.0;
    format      ascii;
    class       volVectorField;
    location    "0";
    object      Ulift0;
}
// * * * * * * * * * * * * * * * * * * * * * * * * * * * * * * * * * * * * * //

dimensions      [0 1 -1 0 0 0 0];

internalField   nonuniform List<vector> 
9000
(
(1.00005 -2.87264e-05 0)
(1.00014 -2.91835e-05 0)
(1.00023 -3.01052e-05 0)
(1.00033 -3.15064e-05 0)
(1.00044 -3.34101e-05 0)
(1.00055 -3.58474e-05 0)
(1.00067 -3.88582e-05 0)
(1.0008 -4.24922e-05 0)
(1.00094 -4.68092e-05 0)
(1.0011 -5.18809e-05 0)
(1.00127 -5.77916e-05 0)
(1.00147 -6.46406e-05 0)
(1.00169 -7.25432e-05 0)
(1.00193 -8.16339e-05 0)
(1.00221 -9.20685e-05 0)
(1.00253 -0.000104028 0)
(1.00288 -0.000117722 0)
(1.00328 -0.000133393 0)
(1.00374 -0.000151324 0)
(1.00426 -0.000171843 0)
(1.00484 -0.000195333 0)
(1.00551 -0.000222242 0)
(1.00627 -0.000253095 0)
(1.00714 -0.000288509 0)
(1.00813 -0.000329216 0)
(1.00926 -0.000376083 0)
(1.01055 -0.000430147 0)
(1.01202 -0.000492654 0)
(1.01371 -0.000565113 0)
(1.01566 -0.000649364 0)
(1.01789 -0.000747669 0)
(1.02047 -0.000862839 0)
(1.02345 -0.000998402 0)
(1.0269 -0.00115884 0)
(1.03091 -0.00134993 0)
(1.0356 -0.0015792 0)
(1.0411 -0.0018567 0)
(1.04758 -0.00219603 0)
(1.05528 -0.00261603 0)
(1.0645 -0.00314352 0)
(1.07563 -0.00381781 0)
(1.08926 -0.00469859 0)
(1.10619 -0.00588057 0)
(1.12763 -0.00752209 0)
(1.15552 -0.00990626 0)
(1.1931 -0.0135851 0)
(1.24647 -0.0197668 0)
(1.32856 -0.0315421 0)
(1.47282 -0.0586181 0)
(1.79052 -0.139949 0)
(1.00005 -8.60008e-05 0)
(1.00014 -8.73691e-05 0)
(1.00023 -9.01282e-05 0)
(1.00033 -9.43229e-05 0)
(1.00043 -0.000100022 0)
(1.00054 -0.000107318 0)
(1.00066 -0.000116331 0)
(1.00079 -0.00012721 0)
(1.00093 -0.000140133 0)
(1.00109 -0.000155315 0)
(1.00126 -0.000173008 0)
(1.00146 -0.00019351 0)
(1.00168 -0.000217165 0)
(1.00192 -0.000244377 0)
(1.0022 -0.00027561 0)
(1.00251 -0.000311406 0)
(1.00286 -0.000352393 0)
(1.00326 -0.000399296 0)
(1.00371 -0.000452961 0)
(1.00423 -0.000514369 0)
(1.00481 -0.000584665 0)
(1.00548 -0.000665186 0)
(1.00623 -0.000757503 0)
(1.00709 -0.00086346 0)
(1.00807 -0.000985241 0)
(1.00919 -0.00112544 0)
(1.01047 -0.00128714 0)
(1.01194 -0.00147407 0)
(1.01362 -0.00169073 0)
(1.01554 -0.0019426 0)
(1.01776 -0.00223642 0)
(1.02031 -0.00258055 0)
(1.02326 -0.00298549 0)
(1.02668 -0.00346455 0)
(1.03065 -0.00403486 0)
(1.03528 -0.00471877 0)
(1.04071 -0.00554596 0)
(1.04711 -0.00655656 0)
(1.05469 -0.00780609 0)
(1.06374 -0.00937321 0)
(1.07466 -0.0113728 0)
(1.08797 -0.0139781 0)
(1.10442 -0.0174622 0)
(1.12512 -0.0222762 0)
(1.15173 -0.029213 0)
(1.18694 -0.0397777 0)
(1.23524 -0.0571155 0)
(1.30428 -0.0886493 0)
(1.40506 -0.154661 0)
(1.52973 -0.32039 0)
(1.00005 -0.000142741 0)
(1.00014 -0.000145012 0)
(1.00023 -0.00014959 0)
(1.00033 -0.000156552 0)
(1.00043 -0.00016601 0)
(1.00054 -0.000178118 0)
(1.00065 -0.000193076 0)
(1.00078 -0.000211129 0)
(1.00092 -0.000232574 0)
(1.00108 -0.000257768 0)
(1.00125 -0.000287128 0)
(1.00144 -0.000321148 0)
(1.00166 -0.000360399 0)
(1.0019 -0.000405548 0)
(1.00217 -0.000457369 0)
(1.00248 -0.000516757 0)
(1.00283 -0.000584752 0)
(1.00322 -0.000662558 0)
(1.00367 -0.000751573 0)
(1.00417 -0.000853422 0)
(1.00475 -0.000970001 0)
(1.0054 -0.00110352 0)
(1.00615 -0.00125658 0)
(1.007 -0.00143223 0)
(1.00796 -0.00163407 0)
(1.00907 -0.00186639 0)
(1.01033 -0.00213428 0)
(1.01177 -0.00244388 0)
(1.01342 -0.0028026 0)
(1.01532 -0.00321945 0)
(1.01749 -0.00370552 0)
(1.02 -0.00427451 0)
(1.02289 -0.00494362 0)
(1.02624 -0.00573461 0)
(1.03013 -0.00667541 0)
(1.03466 -0.00780237 0)
(1.03995 -0.00916356 0)
(1.04617 -0.0108238 0)
(1.05352 -0.0128721 0)
(1.06227 -0.015434 0)
(1.07276 -0.018691 0)
(1.08545 -0.0229144 0)
(1.101 -0.0285244 0)
(1.12029 -0.036201 0)
(1.14458 -0.0471027 0)
(1.17566 -0.0633244 0)
(1.21592 -0.0889189 0)
(1.26759 -0.132288 0)
(1.32798 -0.211753 0)
(1.36736 -0.365827 0)
(1.00004 -0.000198593 0)
(1.00013 -0.000201752 0)
(1.00022 -0.000208122 0)
(1.00032 -0.000217806 0)
(1.00042 -0.000230962 0)
(1.00053 -0.000247805 0)
(1.00064 -0.000268611 0)
(1.00077 -0.000293722 0)
(1.0009 -0.000323551 0)
(1.00106 -0.000358593 0)
(1.00123 -0.000399428 0)
(1.00141 -0.000446742 0)
(1.00162 -0.000501328 0)
(1.00186 -0.000564114 0)
(1.00213 -0.000636172 0)
(1.00243 -0.000718747 0)
(1.00277 -0.00081328 0)
(1.00316 -0.000921441 0)
(1.0036 -0.00104517 0)
(1.00409 -0.00118672 0)
(1.00466 -0.00134872 0)
(1.0053 -0.00153423 0)
(1.00602 -0.00174684 0)
(1.00685 -0.00199077 0)
(1.0078 -0.002271 0)
(1.00888 -0.00259344 0)
(1.01011 -0.00296513 0)
(1.01152 -0.00339451 0)
(1.01313 -0.00389176 0)
(1.01498 -0.00446927 0)
(1.0171 -0.00514222 0)
(1.01954 -0.00592936 0)
(1.02235 -0.00685415 0)
(1.0256 -0.00794616 0)
(1.02936 -0.00924325 0)
(1.03373 -0.0107945 0)
(1.03882 -0.0126644 0)
(1.04479 -0.0149394 0)
(1.05181 -0.0177375 0)
(1.06011 -0.0212232 0)
(1.06999 -0.0256319 0)
(1.08183 -0.0313091 0)
(1.09612 -0.0387792 0)
(1.1135 -0.048866 0)
(1.13477 -0.0629143 0)
(1.1608 -0.08321 0)
(1.19214 -0.113779 0)
(1.22751 -0.161828 0)
(1.2591 -0.2397 0)
(1.2609 -0.363613 0)
(1.00004 -0.000253212 0)
(1.00013 -0.000257239 0)
(1.00022 -0.000265359 0)
(1.00031 -0.000277703 0)
(1.00041 -0.000294474 0)
(1.00051 -0.000315944 0)
(1.00063 -0.000342465 0)
(1.00075 -0.000374473 0)
(1.00088 -0.000412493 0)
(1.00103 -0.000457154 0)
(1.00119 -0.000509198 0)
(1.00138 -0.000569494 0)
(1.00158 -0.000639055 0)
(1.00181 -0.000719057 0)
(1.00207 -0.000810867 0)
(1.00237 -0.000916065 0)
(1.0027 -0.00103648 0)
(1.00308 -0.00117424 0)
(1.0035 -0.00133181 0)
(1.00398 -0.00151204 0)
(1.00453 -0.00171825 0)
(1.00515 -0.00195435 0)
(1.00586 -0.00222486 0)
(1.00667 -0.00253513 0)
(1.00759 -0.00289144 0)
(1.00863 -0.00330126 0)
(1.00983 -0.00377344 0)
(1.01119 -0.00431862 0)
(1.01275 -0.00494957 0)
(1.01453 -0.00568181 0)
(1.01658 -0.00653431 0)
(1.01893 -0.00753045 0)
(1.02163 -0.00869934 0)
(1.02475 -0.0100776 0)
(1.02835 -0.0117118 0)
(1.03252 -0.0136621 0)
(1.03736 -0.0160069 0)
(1.043 -0.0188507 0)
(1.04959 -0.0223343 0)
(1.05733 -0.026652 0)
(1.06645 -0.0320771 0)
(1.07724 -0.0390034 0)
(1.09003 -0.048012 0)
(1.1052 -0.0599835 0)
(1.12311 -0.0762854 0)
(1.14387 -0.0990825 0)
(1.16678 -0.131811 0)
(1.18889 -0.179719 0)
(1.20186 -0.249661 0)
(1.18745 -0.345766 0)
(1.00004 -0.000306258 0)
(1.00013 -0.000311127 0)
(1.00021 -0.000320945 0)
(1.0003 -0.000335872 0)
(1.0004 -0.00035615 0)
(1.0005 -0.00038211 0)
(1.0006 -0.000414176 0)
(1.00072 -0.000452874 0)
(1.00085 -0.00049884 0)
(1.001 -0.000552832 0)
(1.00115 -0.000615745 0)
(1.00133 -0.000688628 0)
(1.00153 -0.000772703 0)
(1.00175 -0.000869389 0)
(1.00201 -0.000980332 0)
(1.00229 -0.00110744 0)
(1.00261 -0.00125291 0)
(1.00297 -0.00141931 0)
(1.00338 -0.00160959 0)
(1.00385 -0.0018272 0)
(1.00438 -0.00207612 0)
(1.00498 -0.00236102 0)
(1.00566 -0.00268735 0)
(1.00644 -0.0030615 0)
(1.00732 -0.00349098 0)
(1.00833 -0.00398471 0)
(1.00948 -0.00455325 0)
(1.01078 -0.00520922 0)
(1.01228 -0.00596781 0)
(1.01399 -0.00684737 0)
(1.01594 -0.00787029 0)
(1.01819 -0.00906406 0)
(1.02076 -0.0104628 0)
(1.02371 -0.0121091 0)
(1.02712 -0.0140569 0)
(1.03104 -0.0163756 0)
(1.03558 -0.0191546 0)
(1.04083 -0.022512 0)
(1.04693 -0.0266052 0)
(1.05402 -0.0316481 0)
(1.06227 -0.037936 0)
(1.07187 -0.0458843 0)
(1.08301 -0.0560873 0)
(1.09583 -0.0694094 0)
(1.11034 -0.0871195 0)
(1.1261 -0.111076 0)
(1.14174 -0.143913 0)
(1.15385 -0.189002 0)
(1.15532 -0.249403 0)
(1.13438 -0.323925 0)
(1.00004 -0.000357401 0)
(1.00012 -0.000363082 0)
(1.0002 -0.000374536 0)
(1.00029 -0.00039195 0)
(1.00038 -0.000415607 0)
(1.00048 -0.000445891 0)
(1.00058 -0.000483297 0)
(1.00069 -0.000528437 0)
(1.00082 -0.000582052 0)
(1.00096 -0.000645024 0)
(1.00111 -0.000718397 0)
(1.00128 -0.00080339 0)
(1.00147 -0.000901424 0)
(1.00168 -0.00101415 0)
(1.00193 -0.00114348 0)
(1.0022 -0.00129164 0)
(1.0025 -0.00146117 0)
(1.00285 -0.00165505 0)
(1.00325 -0.0018767 0)
(1.00369 -0.00213012 0)
(1.0042 -0.00241993 0)
(1.00477 -0.00275151 0)
(1.00542 -0.00313116 0)
(1.00617 -0.00356625 0)
(1.00701 -0.00406543 0)
(1.00797 -0.00463894 0)
(1.00906 -0.00529889 0)
(1.01031 -0.00605974 0)
(1.01173 -0.00693879 0)
(1.01335 -0.00795694 0)
(1.0152 -0.00913954 0)
(1.01731 -0.0105176 0)
(1.01973 -0.0121294 0)
(1.0225 -0.0140227 0)
(1.02568 -0.0162573 0)
(1.02933 -0.0189092 0)
(1.03352 -0.0220764 0)
(1.03834 -0.0258858 0)
(1.04388 -0.0305052 0)
(1.05025 -0.0361579 0)
(1.05755 -0.0431464 0)
(1.06589 -0.0518844 0)
(1.07532 -0.0629443 0)
(1.08581 -0.0771212 0)
(1.09707 -0.0955136 0)
(1.10838 -0.1196 0)
(1.11808 -0.151229 0)
(1.12296 -0.192303 0)
(1.11754 -0.24363 0)
(1.09446 -0.302187 0)
(1.00004 -0.000406325 0)
(1.00012 -0.000412782 0)
(1.00019 -0.0004258 0)
(1.00028 -0.00044559 0)
(1.00036 -0.000472474 0)
(1.00045 -0.000506889 0)
(1.00055 -0.000549396 0)
(1.00066 -0.000600689 0)
(1.00078 -0.000661608 0)
(1.00091 -0.000733155 0)
(1.00106 -0.00081651 0)
(1.00122 -0.000913057 0)
(1.0014 -0.00102441 0)
(1.0016 -0.00115243 0)
(1.00183 -0.00129928 0)
(1.00209 -0.00146748 0)
(1.00238 -0.00165991 0)
(1.00271 -0.00187993 0)
(1.00309 -0.00213141 0)
(1.00351 -0.00241884 0)
(1.00399 -0.00274742 0)
(1.00453 -0.00312323 0)
(1.00515 -0.00355332 0)
(1.00585 -0.00404596 0)
(1.00665 -0.00461085 0)
(1.00756 -0.0052594 0)
(1.00859 -0.00600513 0)
(1.00976 -0.00686408 0)
(1.01109 -0.00785544 0)
(1.01261 -0.00900226 0)
(1.01434 -0.0103324 0)
(1.01632 -0.0118799 0)
(1.01857 -0.0136862 0)
(1.02113 -0.015803 0)
(1.02406 -0.0182945 0)
(1.02741 -0.0212416 0)
(1.03122 -0.0247472 0)
(1.03557 -0.0289434 0)
(1.04051 -0.0340015 0)
(1.04612 -0.040146 0)
(1.05244 -0.0476733 0)
(1.05949 -0.0569776 0)
(1.06723 -0.0685838 0)
(1.07548 -0.0831863 0)
(1.08379 -0.101684 0)
(1.09128 -0.125177 0)
(1.0963 -0.154856 0)
(1.0961 -0.1916 0)
(1.08664 -0.235032 0)
(1.06343 -0.281856 0)
(1.00004 -0.000452727 0)
(1.00011 -0.000459919 0)
(1.00018 -0.000474417 0)
(1.00026 -0.000496459 0)
(1.00034 -0.0005264 0)
(1.00043 -0.000564727 0)
(1.00052 -0.000612064 0)
(1.00062 -0.000669181 0)
(1.00074 -0.000737013 0)
(1.00086 -0.000816672 0)
(1.001 -0.00090947 0)
(1.00115 -0.00101694 0)
(1.00132 -0.00114088 0)
(1.00151 -0.00128334 0)
(1.00173 -0.00144675 0)
(1.00197 -0.00163386 0)
(1.00225 -0.00184788 0)
(1.00256 -0.00209253 0)
(1.00291 -0.00237207 0)
(1.00331 -0.00269147 0)
(1.00376 -0.00305647 0)
(1.00427 -0.00347374 0)
(1.00485 -0.00395104 0)
(1.00551 -0.00449746 0)
(1.00625 -0.00512358 0)
(1.0071 -0.00584191 0)
(1.00806 -0.00666713 0)
(1.00915 -0.0076167 0)
(1.01039 -0.00871137 0)
(1.0118 -0.00997598 0)
(1.0134 -0.0114404 0)
(1.01521 -0.013141 0)
(1.01728 -0.0151217 0)
(1.01962 -0.017437 0)
(1.02228 -0.0201538 0)
(1.0253 -0.0233558 0)
(1.02871 -0.0271483 0)
(1.03256 -0.0316642 0)
(1.03688 -0.0370734 0)
(1.04171 -0.0435938 0)
(1.04703 -0.0515061 0)
(1.05282 -0.0611716 0)
(1.05894 -0.0730528 0)
(1.06512 -0.08773 0)
(1.07083 -0.105902 0)
(1.07514 -0.128339 0)
(1.07657 -0.155724 0)
(1.07285 -0.188285 0)
(1.06113 -0.225108 0)
(1.03864 -0.263218 0)
(1.00003 -0.00049632 0)
(1.0001 -0.000504201 0)
(1.00017 -0.000520089 0)
(1.00024 -0.000544242 0)
(1.00032 -0.00057705 0)
(1.0004 -0.000619046 0)
(1.00049 -0.00067091 0)
(1.00058 -0.000733487 0)
(1.00069 -0.000807798 0)
(1.0008 -0.000895057 0)
(1.00093 -0.000996698 0)
(1.00107 -0.0011144 0)
(1.00123 -0.00125011 0)
(1.00141 -0.00140608 0)
(1.00161 -0.00158495 0)
(1.00184 -0.00178972 0)
(1.0021 -0.0020239 0)
(1.00239 -0.00229149 0)
(1.00271 -0.00259717 0)
(1.00308 -0.00294629 0)
(1.0035 -0.0033451 0)
(1.00398 -0.0038008 0)
(1.00451 -0.00432178 0)
(1.00512 -0.00491781 0)
(1.00581 -0.00560031 0)
(1.00659 -0.00638265 0)
(1.00748 -0.00728057 0)
(1.00848 -0.00831264 0)
(1.00962 -0.00950091 0)
(1.01091 -0.0108716 0)
(1.01237 -0.0124562 0)
(1.01402 -0.0142926 0)
(1.01588 -0.0164266 0)
(1.01799 -0.018914 0)
(1.02036 -0.0218235 0)
(1.02303 -0.0252395 0)
(1.02603 -0.0292667 0)
(1.02936 -0.0340361 0)
(1.03306 -0.0397113 0)
(1.0371 -0.046498 0)
(1.04145 -0.054654 0)
(1.04603 -0.0645001 0)
(1.05063 -0.0764296 0)
(1.05495 -0.0909085 0)
(1.05841 -0.108454 0)
(1.06014 -0.129567 0)
(1.05884 -0.154569 0)
(1.05273 -0.183304 0)
(1.03981 -0.214682 0)
(1.0184 -0.246207 0)
(1.00003 -0.000536835 0)
(1.00009 -0.000545355 0)
(1.00016 -0.000562532 0)
(1.00022 -0.000588644 0)
(1.0003 -0.000624112 0)
(1.00037 -0.000669509 0)
(1.00045 -0.000725572 0)
(1.00054 -0.000793211 0)
(1.00063 -0.000873524 0)
(1.00074 -0.000967824 0)
(1.00086 -0.00107765 0)
(1.00099 -0.00120482 0)
(1.00114 -0.00135142 0)
(1.0013 -0.00151988 0)
(1.00149 -0.00171303 0)
(1.0017 -0.0019341 0)
(1.00193 -0.00218685 0)
(1.0022 -0.00247558 0)
(1.0025 -0.00280529 0)
(1.00284 -0.00318171 0)
(1.00322 -0.0036115 0)
(1.00366 -0.00410235 0)
(1.00415 -0.00466319 0)
(1.00471 -0.00530439 0)
(1.00534 -0.00603803 0)
(1.00605 -0.00687825 0)
(1.00685 -0.0078416 0)
(1.00776 -0.00894757 0)
(1.00879 -0.0102192 0)
(1.00995 -0.0116837 0)
(1.01126 -0.0133737 0)
(1.01273 -0.015328 0)
(1.01439 -0.0175933 0)
(1.01625 -0.0202263 0)
(1.01833 -0.0232954 0)
(1.02065 -0.0268843 0)
(1.02321 -0.0310953 0)
(1.02603 -0.0360541 0)
(1.02909 -0.0419151 0)
(1.03237 -0.0488674 0)
(1.03578 -0.0571416 0)
(1.03921 -0.0670147 0)
(1.04244 -0.0788105 0)
(1.0451 -0.092889 0)
(1.04667 -0.109614 0)
(1.04632 -0.129276 0)
(1.04298 -0.151956 0)
(1.03528 -0.177292 0)
(1.02181 -0.204199 0)
(1.00156 -0.23065 0)
(1.00003 -0.000574022 0)
(1.00009 -0.000583127 0)
(1.00014 -0.000601485 0)
(1.0002 -0.000629391 0)
(1.00027 -0.000667294 0)
(1.00034 -0.000715807 0)
(1.00041 -0.000775713 0)
(1.00049 -0.000847982 0)
(1.00058 -0.000933788 0)
(1.00068 -0.00103452 0)
(1.00078 -0.00115184 0)
(1.0009 -0.00128765 0)
(1.00104 -0.00144419 0)
(1.00119 -0.00162404 0)
(1.00135 -0.0018302 0)
(1.00154 -0.00206611 0)
(1.00176 -0.00233575 0)
(1.002 -0.00264367 0)
(1.00227 -0.00299516 0)
(1.00258 -0.00339628 0)
(1.00293 -0.00385405 0)
(1.00332 -0.00437657 0)
(1.00376 -0.00497321 0)
(1.00426 -0.00565485 0)
(1.00483 -0.00643412 0)
(1.00547 -0.00732574 0)
(1.00618 -0.00834692 0)
(1.007 -0.0095178 0)
(1.00791 -0.0108621 0)
(1.00894 -0.0124078 0)
(1.01009 -0.0141879 0)
(1.01138 -0.0162418 0)
(1.01282 -0.0186165 0)
(1.01443 -0.0213682 0)
(1.0162 -0.0245643 0)
(1.01816 -0.0282861 0)
(1.0203 -0.0326318 0)
(1.0226 -0.0377198 0)
(1.02505 -0.0436925 0)
(1.02758 -0.0507203 0)
(1.03011 -0.0590047 0)
(1.03248 -0.0687784 0)
(1.03446 -0.0802997 0)
(1.03569 -0.0938359 0)
(1.03567 -0.109625 0)
(1.03368 -0.127807 0)
(1.02883 -0.148305 0)
(1.02008 -0.170666 0)
(1.00646 -0.193893 0)
(0.987361 -0.216362 0)
(1.00003 -0.000607652 0)
(1.00008 -0.000617286 0)
(1.00013 -0.000636709 0)
(1.00018 -0.000666232 0)
(1.00024 -0.000706332 0)
(1.0003 -0.000757654 0)
(1.00037 -0.000821024 0)
(1.00044 -0.000897467 0)
(1.00052 -0.000988218 0)
(1.00061 -0.00109475 0)
(1.0007 -0.0012188 0)
(1.00081 -0.00136238 0)
(1.00093 -0.00152785 0)
(1.00106 -0.00171793 0)
(1.00121 -0.00193576 0)
(1.00138 -0.00218495 0)
(1.00157 -0.00246968 0)
(1.00179 -0.00279474 0)
(1.00203 -0.00316564 0)
(1.0023 -0.00358872 0)
(1.00261 -0.00407131 0)
(1.00296 -0.00462183 0)
(1.00335 -0.00525004 0)
(1.00379 -0.00596718 0)
(1.00429 -0.00678632 0)
(1.00485 -0.00772263 0)
(1.00548 -0.00879376 0)
(1.00619 -0.0100203 0)
(1.00698 -0.0114263 0)
(1.00787 -0.0130402 0)
(1.00886 -0.0148951 0)
(1.00997 -0.0170304 0)
(1.01119 -0.0194925 0)
(1.01253 -0.0223364 0)
(1.01401 -0.0256277 0)
(1.0156 -0.0294442 0)
(1.01731 -0.0338784 0)
(1.01912 -0.0390398 0)
(1.02097 -0.0450577 0)
(1.0228 -0.0520824 0)
(1.0245 -0.0602861 0)
(1.0259 -0.0698593 0)
(1.02678 -0.0810018 0)
(1.02678 -0.0939026 0)
(1.02543 -0.108702 0)
(1.02215 -0.125433 0)
(1.01619 -0.143925 0)
(1.00679 -0.163703 0)
(0.993252 -0.183883 0)
(0.975231 -0.203171 0)
(1.00002 -0.000637518 0)
(1.00007 -0.00064762 0)
(1.00011 -0.000667986 0)
(1.00016 -0.000698943 0)
(1.00021 -0.000740987 0)
(1.00027 -0.000794794 0)
(1.00032 -0.000861229 0)
(1.00039 -0.000941362 0)
(1.00046 -0.00103648 0)
(1.00053 -0.00114814 0)
(1.00062 -0.00127812 0)
(1.00071 -0.00142856 0)
(1.00081 -0.0016019 0)
(1.00093 -0.00180097 0)
(1.00106 -0.00202906 0)
(1.00121 -0.00228991 0)
(1.00138 -0.00258787 0)
(1.00156 -0.0029279 0)
(1.00178 -0.00331573 0)
(1.00201 -0.00375792 0)
(1.00228 -0.00426203 0)
(1.00258 -0.00483676 0)
(1.00292 -0.00549211 0)
(1.0033 -0.00623966 0)
(1.00373 -0.00709276 0)
(1.00421 -0.00806686 0)
(1.00475 -0.00917989 0)
(1.00535 -0.0104527 0)
(1.00602 -0.0119094 0)
(1.00677 -0.0135785 0)
(1.00759 -0.0154929 0)
(1.00851 -0.0176913 0)
(1.0095 -0.0202192 0)
(1.01059 -0.0231299 0)
(1.01176 -0.026486 0)
(1.013 -0.0303611 0)
(1.0143 -0.0348408 0)
(1.01561 -0.0400253 0)
(1.0169 -0.0460296 0)
(1.01806 -0.052984 0)
(1.019 -0.0610325 0)
(1.01954 -0.0703272 0)
(1.01944 -0.0810171 0)
(1.01838 -0.0932275 0)
(1.01596 -0.107026 0)
(1.01166 -0.12237 0)
(1.00491 -0.139044 0)
(0.995109 -0.156582 0)
(0.981794 -0.174222 0)
(0.964767 -0.190927 0)
(1.00002 -0.000663438 0)
(1.00006 -0.000673945 0)
(1.0001 -0.000695127 0)
(1.00014 -0.000727322 0)
(1.00018 -0.000771047 0)
(1.00023 -0.000827001 0)
(1.00028 -0.000896083 0)
(1.00033 -0.000979401 0)
(1.00039 -0.00107829 0)
(1.00045 -0.00119436 0)
(1.00053 -0.00132946 0)
(1.00061 -0.0014858 0)
(1.0007 -0.00166589 0)
(1.00079 -0.00187269 0)
(1.00091 -0.00210955 0)
(1.00103 -0.00238038 0)
(1.00117 -0.00268962 0)
(1.00133 -0.0030424 0)
(1.00151 -0.00344459 0)
(1.00171 -0.00390293 0)
(1.00194 -0.00442517 0)
(1.00219 -0.00502018 0)
(1.00247 -0.00569818 0)
(1.00279 -0.00647092 0)
(1.00315 -0.00735193 0)
(1.00355 -0.00835682 0)
(1.00399 -0.00950361 0)
(1.00448 -0.0108132 0)
(1.00503 -0.0123096 0)
(1.00563 -0.0140209 0)
(1.00629 -0.0159796 0)
(1.00701 -0.0182235 0)
(1.00779 -0.0207964 0)
(1.00862 -0.0237494 0)
(1.00949 -0.0271417 0)
(1.01038 -0.0310416 0)
(1.01127 -0.035528 0)
(1.01212 -0.0406906 0)
(1.01287 -0.0466304 0)
(1.01342 -0.0534582 0)
(1.01366 -0.0612921 0)
(1.01341 -0.0702501 0)
(1.01247 -0.0804385 0)
(1.01052 -0.0919322 0)
(1.00722 -0.104745 0)
(1.00214 -0.118788 0)
(0.994811 -0.133825 0)
(0.984802 -0.149421 0)
(0.971786 -0.164926 0)
(0.955663 -0.179505 0)
(1.00002 -0.000685255 0)
(1.00005 -0.000696101 0)
(1.00008 -0.000717965 0)
(1.00011 -0.000751198 0)
(1.00015 -0.00079633 0)
(1.00019 -0.000854081 0)
(1.00023 -0.000925376 0)
(1.00027 -0.00101136 0)
(1.00032 -0.0011134 0)
(1.00037 -0.00123314 0)
(1.00043 -0.00137251 0)
(1.0005 -0.00153375 0)
(1.00057 -0.00171946 0)
(1.00065 -0.00193265 0)
(1.00075 -0.00217679 0)
(1.00085 -0.00245583 0)
(1.00096 -0.00277436 0)
(1.00109 -0.00313759 0)
(1.00124 -0.00355151 0)
(1.0014 -0.00402299 0)
(1.00158 -0.00455988 0)
(1.00179 -0.00517119 0)
(1.00201 -0.00586724 0)
(1.00227 -0.00665988 0)
(1.00255 -0.00756271 0)
(1.00287 -0.00859135 0)
(1.00321 -0.00976377 0)
(1.0036 -0.0111006 0)
(1.00402 -0.0126258 0)
(1.00447 -0.0143667 0)
(1.00497 -0.016355 0)
(1.00549 -0.0186272 0)
(1.00605 -0.0212252 0)
(1.00662 -0.0241974 0)
(1.0072 -0.027599 0)
(1.00776 -0.0314932 0)
(1.00827 -0.0359511 0)
(1.00867 -0.0410524 0)
(1.00892 -0.0468842 0)
(1.0089 -0.0535395 0)
(1.0085 -0.0611126 0)
(1.00757 -0.0696924 0)
(1.00588 -0.0793501 0)
(1.00319 -0.0901216 0)
(0.999175 -0.101983 0)
(0.993488 -0.114819 0)
(0.985762 -0.128388 0)
(0.975671 -0.142296 0)
(0.962991 -0.155991 0)
(0.947686 -0.168798 0)
(1.00001 -0.000702834 0)
(1.00004 -0.000713951 0)
(1.00006 -0.000736363 0)
(1.00009 -0.000770426 0)
(1.00012 -0.000816683 0)
(1.00015 -0.00087587 0)
(1.00018 -0.000948933 0)
(1.00021 -0.00103704 0)
(1.00025 -0.00114159 0)
(1.00029 -0.00126426 0)
(1.00034 -0.00140701 0)
(1.00039 -0.00157214 0)
(1.00045 -0.00176229 0)
(1.00051 -0.00198053 0)
(1.00058 -0.00223038 0)
(1.00066 -0.00251587 0)
(1.00075 -0.00284164 0)
(1.00085 -0.00321298 0)
(1.00096 -0.00363595 0)
(1.00108 -0.00411749 0)
(1.00122 -0.00466552 0)
(1.00137 -0.00528909 0)
(1.00154 -0.00599857 0)
(1.00173 -0.0068058 0)
(1.00194 -0.00772434 0)
(1.00217 -0.00876971 0)
(1.00242 -0.00995968 0)
(1.0027 -0.0113146 0)
(1.00299 -0.0128578 0)
(1.0033 -0.0146159 0)
(1.00363 -0.0166195 0)
(1.00397 -0.0189035 0)
(1.00431 -0.0215078 0)
(1.00463 -0.0244775 0)
(1.00493 -0.0278639 0)
(1.00516 -0.0317244 0)
(1.0053 -0.0361228 0)
(1.00529 -0.0411287 0)
(1.00506 -0.0468164 0)
(1.00453 -0.0532622 0)
(1.00356 -0.0605399 0)
(1.00202 -0.0687136 0)
(0.999697 -0.0778264 0)
(0.996375 -0.0878854 0)
(0.991784 -0.0988407 0)
(0.985634 -0.110563 0)
(0.977638 -0.122818 0)
(0.96755 -0.135254 0)
(0.955222 -0.147403 0)
(0.940654 -0.158715 0)
(1.00001 -0.000716071 0)
(1.00003 -0.000727391 0)
(1.00004 -0.00075021 0)
(1.00006 -0.000784891 0)
(1.00008 -0.000831985 0)
(1.0001 -0.00089224 0)
(1.00013 -0.000966614 0)
(1.00015 -0.00105629 0)
(1.00018 -0.0011627 0)
(1.00021 -0.00128753 0)
(1.00024 -0.00143278 0)
(1.00028 -0.00160076 0)
(1.00032 -0.00179416 0)
(1.00036 -0.00201607 0)
(1.00041 -0.00227005 0)
(1.00047 -0.00256017 0)
(1.00053 -0.00289111 0)
(1.0006 -0.0032682 0)
(1.00067 -0.00369752 0)
(1.00076 -0.00418602 0)
(1.00085 -0.00474165 0)
(1.00095 -0.00537344 0)
(1.00107 -0.00609172 0)
(1.00119 -0.00690824 0)
(1.00132 -0.00783643 0)
(1.00147 -0.00889159 0)
(1.00162 -0.0100912 0)
(1.00179 -0.011455 0)
(1.00195 -0.0130057 0)
(1.00212 -0.0147692 0)
(1.00229 -0.0167745 0)
(1.00244 -0.0190548 0)
(1.00257 -0.0216476 0)
(1.00265 -0.024595 0)
(1.00267 -0.0279437 0)
(1.0026 -0.0317456 0)
(1.00239 -0.0360572 0)
(1.00199 -0.0409387 0)
(1.00133 -0.0464525 0)
(1.00032 -0.0526599 0)
(0.998847 -0.0596172 0)
(0.996765 -0.067368 0)
(0.993901 -0.0759333 0)
(0.990056 -0.0852989 0)
(0.985002 -0.095399 0)
(0.978502 -0.106098 0)
(0.97033 -0.117177 0)
(0.960305 -0.128324 0)
(0.948329 -0.139142 0)
(0.934424 -0.14918 0)
(1.00001 -0.000724886 0)
(1.00002 -0.000736338 0)
(1.00003 -0.000759423 0)
(1.00004 -0.000794507 0)
(1.00005 -0.000842146 0)
(1.00006 -0.000903094 0)
(1.00008 -0.000978319 0)
(1.00009 -0.00106901 0)
(1.00011 -0.00117661 0)
(1.00012 -0.00130283 0)
(1.00014 -0.00144966 0)
(1.00016 -0.00161945 0)
(1.00019 -0.00181488 0)
(1.00021 -0.00203908 0)
(1.00024 -0.0022956 0)
(1.00027 -0.00258854 0)
(1.0003 -0.00292256 0)
(1.00034 -0.00330301 0)
(1.00038 -0.00373596 0)
(1.00043 -0.00422834 0)
(1.00048 -0.00478803 0)
(1.00053 -0.00542401 0)
(1.00058 -0.00614648 0)
(1.00064 -0.00696706 0)
(1.0007 -0.00789893 0)
(1.00076 -0.00895706 0)
(1.00082 -0.0101585 0)
(1.00087 -0.0115224 0)
(1.00092 -0.0130707 0)
(1.00095 -0.0148279 0)
(1.00095 -0.016822 0)
(1.00092 -0.0190841 0)
(1.00084 -0.021649 0)
(1.0007 -0.0245556 0)
(1.00046 -0.0278464 0)
(1.00009 -0.0315677 0)
(0.999555 -0.035769 0)
(0.998793 -0.0405018 0)
(0.997738 -0.0458175 0)
(0.996299 -0.0517648 0)
(0.99437 -0.0583846 0)
(0.991818 -0.0657041 0)
(0.98849 -0.0737275 0)
(0.984209 -0.0824256 0)
(0.978784 -0.0917231 0)
(0.972023 -0.101486 0)
(0.963747 -0.11151 0)
(0.953822 -0.121523 0)
(0.942188 -0.131187 0)
(0.928881 -0.140128 0)
(1 -0.000729228 0)
(1.00001 -0.000740741 0)
(1.00001 -0.000763949 0)
(1.00001 -0.000799218 0)
(1.00002 -0.000847107 0)
(1.00002 -0.000908372 0)
(1.00002 -0.00098398 0)
(1.00003 -0.00107513 0)
(1.00003 -0.00118325 0)
(1.00004 -0.00131007 0)
(1.00004 -0.00145758 0)
(1.00005 -0.00162811 0)
(1.00005 -0.00182437 0)
(1.00006 -0.00204946 0)
(1.00007 -0.00230692 0)
(1.00007 -0.00260085 0)
(1.00008 -0.00293588 0)
(1.00009 -0.00331732 0)
(1.00009 -0.00375119 0)
(1.0001 -0.00424435 0)
(1.0001 -0.0048046 0)
(1.0001 -0.00544078 0)
(1.0001 -0.00616293 0)
(1.00009 -0.00698241 0)
(1.00008 -0.0079121 0)
(1.00006 -0.00896657 0)
(1.00002 -0.0101623 0)
(0.999965 -0.0115178 0)
(0.999887 -0.0130539 0)
(0.999778 -0.0147942 0)
(0.999628 -0.0167649 0)
(0.999423 -0.018995 0)
(0.999147 -0.0215169 0)
(0.998779 -0.0243661 0)
(0.998291 -0.0275809 0)
(0.997648 -0.0312023 0)
(0.996807 -0.0352732 0)
(0.995711 -0.0398371 0)
(0.994293 -0.0449359 0)
(0.992468 -0.0506069 0)
(0.990135 -0.0568787 0)
(0.987175 -0.0637652 0)
(0.98345 -0.0712581 0)
(0.978809 -0.0793182 0)
(0.973089 -0.0878655 0)
(0.966135 -0.0967706 0)
(0.957807 -0.105848 0)
(0.948007 -0.114858 0)
(0.9367 -0.123513 0)
(0.923931 -0.131503 0)
(0.999998 -0.000729072 0)
(0.999994 -0.000740575 0)
(0.99999 -0.000763763 0)
(0.999986 -0.000799001 0)
(0.999982 -0.000846844 0)
(0.999977 -0.000908046 0)
(0.999971 -0.000983572 0)
(0.999966 -0.00107461 0)
(0.999959 -0.0011826 0)
(0.999952 -0.00130923 0)
(0.999943 -0.0014565 0)
(0.999934 -0.00162674 0)
(0.999923 -0.0018226 0)
(0.99991 -0.00204718 0)
(0.999895 -0.00230401 0)
(0.999878 -0.0025971 0)
(0.999857 -0.00293107 0)
(0.999833 -0.00331114 0)
(0.999804 -0.00374326 0)
(0.99977 -0.00423417 0)
(0.999729 -0.00479152 0)
(0.99968 -0.00542398 0)
(0.999621 -0.00614135 0)
(0.999549 -0.00695471 0)
(0.999462 -0.00787653 0)
(0.999356 -0.00892091 0)
(0.999226 -0.0101037 0)
(0.999066 -0.0114426 0)
(0.99887 -0.0129575 0)
(0.998627 -0.0146705 0)
(0.998326 -0.0166063 0)
(0.997952 -0.0187919 0)
(0.997487 -0.021257 0)
(0.996907 -0.0240338 0)
(0.996185 -0.0271565 0)
(0.995283 -0.0306613 0)
(0.994158 -0.0345849 0)
(0.992754 -0.0389635 0)
(0.991007 -0.0438307 0)
(0.988835 -0.0492143 0)
(0.986146 -0.0551328 0)
(0.982831 -0.0615895 0)
(0.978769 -0.0685672 0)
(0.973829 -0.0760204 0)
(0.967877 -0.0838682 0)
(0.960783 -0.091988 0)
(0.952442 -0.100213 0)
(0.942782 -0.108331 0)
(0.931784 -0.1161 0)
(0.9195 -0.123258 0)
(0.999994 -0.000724423 0)
(0.999983 -0.000735846 0)
(0.999972 -0.00075887 0)
(0.99996 -0.000793859 0)
(0.999948 -0.000841362 0)
(0.999934 -0.000902126 0)
(0.99992 -0.000977104 0)
(0.999904 -0.00106747 0)
(0.999886 -0.00117465 0)
(0.999866 -0.00130033 0)
(0.999844 -0.00144646 0)
(0.99982 -0.00161534 0)
(0.999792 -0.00180962 0)
(0.99976 -0.00203232 0)
(0.999724 -0.00228692 0)
(0.999682 -0.0025774 0)
(0.999635 -0.00290826 0)
(0.99958 -0.00328463 0)
(0.999517 -0.00371236 0)
(0.999444 -0.00419802 0)
(0.999359 -0.0047491 0)
(0.99926 -0.00537401 0)
(0.999145 -0.00608228 0)
(0.99901 -0.00688463 0)
(0.998851 -0.00779309 0)
(0.998665 -0.0088212 0)
(0.998444 -0.00998408 0)
(0.998182 -0.0112986 0)
(0.99787 -0.0127836 0)
(0.997498 -0.0144598 0)
(0.997052 -0.0163502 0)
(0.996516 -0.0184797 0)
(0.995871 -0.0208754 0)
(0.995092 -0.0235663 0)
(0.994149 -0.026583 0)
(0.993005 -0.0299567 0)
(0.991618 -0.0337188 0)
(0.989932 -0.0378991 0)
(0.987886 -0.0425238 0)
(0.985404 -0.0476129 0)
(0.982401 -0.0531765 0)
(0.978779 -0.0592103 0)
(0.974431 -0.0656906 0)
(0.969246 -0.0725686 0)
(0.963109 -0.0797646 0)
(0.95592 -0.0871646 0)
(0.947592 -0.0946181 0)
(0.938078 -0.101941 0)
(0.927371 -0.108925 0)
(0.915523 -0.11535 0)
(0.999991 -0.000715312 0)
(0.999973 -0.000726584 0)
(0.999954 -0.000749304 0)
(0.999934 -0.000783829 0)
(0.999914 -0.000830701 0)
(0.999892 -0.000890652 0)
(0.999868 -0.000964623 0)
(0.999842 -0.00105377 0)
(0.999814 -0.00115949 0)
(0.999782 -0.00128343 0)
(0.999747 -0.00142753 0)
(0.999707 -0.00159403 0)
(0.999662 -0.00178553 0)
(0.999612 -0.00200499 0)
(0.999554 -0.00225583 0)
(0.999489 -0.00254191 0)
(0.999415 -0.00286766 0)
(0.99933 -0.00323807 0)
(0.999233 -0.00365882 0)
(0.999122 -0.00413633 0)
(0.998994 -0.00467783 0)
(0.998847 -0.00529148 0)
(0.998677 -0.00598647 0)
(0.99848 -0.0067731 0)
(0.998252 -0.00766292 0)
(0.997987 -0.00866884 0)
(0.997678 -0.00980524 0)
(0.997317 -0.0110881 0)
(0.996894 -0.012535 0)
(0.996397 -0.0141655 0)
(0.995813 -0.0160007 0)
(0.995124 -0.0180635 0)
(0.994308 -0.0203785 0)
(0.99334 -0.0229717 0)
(0.992191 -0.0258699 0)
(0.990823 -0.0291003 0)
(0.989194 -0.0326893 0)
(0.987251 -0.036661 0)
(0.984935 -0.0410355 0)
(0.982177 -0.0458261 0)
(0.978897 -0.0510365 0)
(0.97501 -0.0566566 0)
(0.97042 -0.0626587 0)
(0.965033 -0.0689924 0)
(0.958754 -0.0755814 0)
(0.9515 -0.0823203 0)
(0.943207 -0.0890747 0)
(0.93384 -0.0956838 0)
(0.923404 -0.101969 0)
(0.91195 -0.107743 0)
(0.999987 -0.000701798 0)
(0.999962 -0.00071285 0)
(0.999936 -0.000735127 0)
(0.999909 -0.000768977 0)
(0.999881 -0.00081493 0)
(0.99985 -0.000873703 0)
(0.999818 -0.000946214 0)
(0.999782 -0.00103359 0)
(0.999742 -0.00113721 0)
(0.999699 -0.00125866 0)
(0.99965 -0.00139985 0)
(0.999596 -0.00156296 0)
(0.999535 -0.00175051 0)
(0.999466 -0.00196541 0)
(0.999388 -0.00221096 0)
(0.9993 -0.00249093 0)
(0.9992 -0.00280961 0)
(0.999086 -0.00317184 0)
(0.998956 -0.00358312 0)
(0.998807 -0.00404964 0)
(0.998637 -0.00457838 0)
(0.998442 -0.00517718 0)
(0.998219 -0.00585486 0)
(0.997962 -0.00662126 0)
(0.997667 -0.00748739 0)
(0.997326 -0.00846551 0)
(0.996932 -0.00956919 0)
(0.996476 -0.0108135 0)
(0.995947 -0.0122148 0)
(0.995332 -0.0137912 0)
(0.994616 -0.0155622 0)
(0.99378 -0.0175487 0)
(0.992803 -0.0197729 0)
(0.99166 -0.0222578 0)
(0.990318 -0.0250271 0)
(0.988743 -0.028104 0)
(0.986892 -0.0315104 0)
(0.984716 -0.0352656 0)
(0.982158 -0.0393846 0)
(0.979153 -0.0438753 0)
(0.975632 -0.0487365 0)
(0.971515 -0.0539538 0)
(0.966721 -0.0594971 0)
(0.961169 -0.0653165 0)
(0.954779 -0.0713396 0)
(0.947486 -0.07747 0)
(0.93924 -0.0835879 0)
(0.930019 -0.089553 0)
(0.919834 -0.0952112 0)
(0.908735 -0.100405 0)
(0.999984 -0.000683966 0)
(0.999952 -0.000694731 0)
(0.999919 -0.000716429 0)
(0.999885 -0.000749397 0)
(0.999848 -0.000794151 0)
(0.99981 -0.000851387 0)
(0.999768 -0.000921996 0)
(0.999723 -0.00100708 0)
(0.999673 -0.00110795 0)
(0.999618 -0.00122618 0)
(0.999556 -0.0013636 0)
(0.999488 -0.00152233 0)
(0.999411 -0.00170481 0)
(0.999324 -0.00191385 0)
(0.999226 -0.00215265 0)
(0.999115 -0.00242484 0)
(0.99899 -0.00273455 0)
(0.998847 -0.00308646 0)
(0.998685 -0.00348584 0)
(0.9985 -0.00393865 0)
(0.99829 -0.00445156 0)
(0.998049 -0.00503207 0)
(0.997774 -0.00568858 0)
(0.99746 -0.00643046 0)
(0.997099 -0.00726812 0)
(0.996685 -0.00821312 0)