/*--------------------------------*- C++ -*----------------------------------*\
  =========                 |
  \\      /  F ield         | OpenFOAM: The Open Source CFD Toolbox
   \\    /   O peration     | Website:  https://openfoam.org
    \\  /    A nd           | Version:  6
     \\/     M anipulation  |
\*---------------------------------------------------------------------------*/
FoamFile
{
    version     2.0;
    format      ascii;
    class       volScalarField;
    location    "400";
    object      alphat;
}
// * * * * * * * * * * * * * * * * * * * * * * * * * * * * * * * * * * * * * //

dimensions      [1 -1 -1 0 0 0 0];

internalField   nonuniform List<scalar> 
16000
(
5.3636105e-06
2.4287039e-05
2.7424075e-05
3.8115935e-05
3.2427788e-05
4.1429214e-05
4.0012667e-05
4.5215233e-05
4.5903839e-05
4.6239816e-05
4.6620073e-05
4.5285322e-05
4.5325791e-05
4.4193088e-05
4.419804e-05
4.3717249e-05
4.3939531e-05
4.4035544e-05
4.4544417e-05
4.5103102e-05
4.5942158e-05
4.6920409e-05
4.8136042e-05
4.9546787e-05
5.1203966e-05
5.3111515e-05
5.5311092e-05
5.7833209e-05
6.0727899e-05
6.4049722e-05
6.7870438e-05
7.2276273e-05
7.7373987e-05
8.3293621e-05
9.0192181e-05
9.8264187e-05
0.00010774933
0.00011894537
0.00013221988
0.00014802088
0.00016689917
0.00018953782
0.00021677901
0.00024965886
0.00028945257
0.00033772875
0.00039640812
0.00046783493
0.0005548562
0.00066090539
0.00079008777
0.00094727138
0.0011382365
0.0012216018
0.0012228154
0.001222977
0.0012224079
0.0012214433
0.0012202684
0.0012188327
0.0012170618
0.0012149035
0.00121231
0.0012092313
0.0012056734
0.0012018021
0.001197886
0.0011942681
0.0011909934
0.0011881814
0.0011855469
0.0011835713
0.0011812884
0.001180242
0.0011779475
0.0011791884
0.0011760656
0.0011824912
0.0011732372
0.0011815848
4.4938742e-06
2.4035075e-05
2.5104668e-05
3.4844736e-05
2.9904197e-05
3.7390688e-05
3.68265e-05
4.0538615e-05
4.1976983e-05
4.1392806e-05
4.2226433e-05
4.0496855e-05
4.0725293e-05
3.9476544e-05
3.9573313e-05
3.9077099e-05
3.9305971e-05
3.9371157e-05
3.9835217e-05
4.0329775e-05
4.1082738e-05
4.1957297e-05
4.3045442e-05
4.4307625e-05
4.5789781e-05
4.7495459e-05
4.9461308e-05
5.1714735e-05
5.4299879e-05
5.726529e-05
6.0673823e-05
6.460087e-05
6.9140799e-05
7.4408596e-05
8.0545728e-05
8.7725027e-05
9.6156597e-05
0.00010609881
0.00011787286
0.00013187688
0.00014859448
0.00016862143
0.00019269355
0.00022171584
0.00025679835
0.00029930533
0.00035090699
0.00041364109
0.00048998596
0.00058293939
0.00069610493
0.00083378376
0.0010011024
0.0012041775
0.0012218841
0.0012221795
0.0012216514
0.0012206784
0.0012195072
0.0012181819
0.0012166229
0.001214653
0.0012122306
0.0012092949
0.0012058299
0.0012019782
0.0011980302
0.0011943457
0.0011910459
0.0011881628
0.001185554
0.0011834478
0.0011813238
0.0011801163
0.0011780158
0.0011786151
0.0011759813
0.0011815975
0.0011733105
0.0011813315
3.8531777e-06
2.3790752e-05
2.3225787e-05
3.2046878e-05
2.788891e-05
3.3932745e-05
3.4403832e-05
3.6368035e-05
3.8626506e-05
3.6909451e-05
3.8180184e-05
3.6020957e-05
3.6438112e-05
3.51466e-05
3.5323853e-05
3.4831385e-05
3.5068462e-05
3.5120818e-05
3.555084e-05
3.6000516e-05
3.6685431e-05
3.7479449e-05
3.8465238e-05
3.9608369e-05
4.0948815e-05
4.2490984e-05
4.4266997e-05
4.6302107e-05
4.8635577e-05
5.131117e-05
5.4385113e-05
5.7925367e-05
6.2016048e-05
6.6759135e-05
7.2281223e-05
7.8737637e-05
8.6319276e-05
9.5257565e-05
0.00010583476
0.00011840317
0.00013339737
0.0001513475
0.0001729038
0.00019886779
0.00023022094
0.00026816553
0.00031417272
0.00037003537
0.00043793286
0.00052050413
0.00062092829
0.00074301476
0.00089131217
0.0010712698
0.0012209798
0.0012214237
0.0012209418
0.0012199511
0.0012187518
0.0012174173
0.0012159168
0.0012141763
0.0012119614
0.0012092058
0.001205868
0.0012020681
0.0011981033
0.0011943708
0.0011910428
0.0011881171
0.0011855139
0.0011833392
0.0011812968
0.0011799765
0.0011780553
0.0011782283
0.0011759475
0.001180769
0.0011733002
0.0011805639
3.4263191e-06
2.3479004e-05
2.1616948e-05
2.9430487e-05
2.6004252e-05
3.0773546e-05
3.2074996e-05
3.2622006e-05
3.5389644e-05
3.2886382e-05
3.4370683e-05
3.2026083e-05
3.2538476e-05
3.1292225e-05
3.1496272e-05
3.1043089e-05
3.1271786e-05
3.1328128e-05
3.1724634e-05
3.2142071e-05
3.2768229e-05
3.3496062e-05
3.4394893e-05
3.5437677e-05
3.6657909e-05
3.8061548e-05
3.9676608e-05
4.1526826e-05
4.3647442e-05
4.6078389e-05
4.8870442e-05
5.2085221e-05
5.5798856e-05
6.0104233e-05
6.51154e-05
7.0972066e-05
7.7846667e-05
8.5951934e-05
9.5545635e-05
0.00010694105
0.00012052852
0.00013679041
0.00015631267
0.00017981452
0.00020817937
0.00024248679
0.00028405584
0.00033449431
0.00039575568
0.00047020726
0.00056070647
0.00067068786
0.00080426427
0.00096636555
0.0011629191
0.0012207023
0.0012202754
0.0012192634
0.0012180253
0.0012166604
0.0012151466
0.0012134431
0.0012114586
0.0012089259
0.001205757
0.0012020461
0.0011980876
0.0011943244
0.0011909777
0.0011880283
0.0011854267
0.0011832131
0.0011812274
0.0011797861
0.0011780703
0.0011779641
0.0011759291
0.0011799103
0.001173318
0.0011801049
3.0719404e-06
2.3059977e-05
2.0290837e-05
2.70117e-05
2.4280358e-05
2.7891537e-05
2.9901072e-05
2.9221005e-05
3.2285165e-05
2.9215377e-05
3.0764099e-05
2.8437691e-05
2.8963718e-05
2.7814832e-05
2.8015692e-05
2.7621418e-05
2.7835089e-05
2.7905239e-05
2.8271883e-05
2.8666107e-05
2.9242603e-05
2.9915662e-05
3.0740819e-05
3.169859e-05
3.2816406e-05
3.4101853e-05
3.5579437e-05
3.7271645e-05
3.9210393e-05
4.1432447e-05
4.3984051e-05
4.6921581e-05
5.0314628e-05
5.4247997e-05
5.8825916e-05
6.417647e-05
7.0456365e-05
7.7858625e-05
8.6622166e-05
9.7035746e-05
0.00010945024
0.00012430467
0.00014213761
0.00016360271
0.000189503
0.00022082218
0.00025875861
0.00030477392
0.00036064439
0.00042852329
0.00051101464
0.00061125579
0.0007330164
0.00088081991
0.0010601176
0.0012199978
0.0012196402
0.0012186065
0.0012173235
0.00121592
0.0012143779
0.0012126663
0.0012107291
0.0012084415
0.0012054878
0.0012019076
0.0011979822
0.001194205
0.0011908508
0.0011878935
0.0011852969
0.0011830667
0.0011811208
0.0011796057
0.0011780488
0.0011776992
0.001175921
0.0011791314
0.0011733694
0.0011794638
2.7762419e-06
2.1687513e-05
1.9175418e-05
2.4740651e-05
2.2697388e-05
2.5224734e-05
2.783756e-05
2.6105079e-05
2.9290087e-05
2.5918218e-05
2.7405757e-05
2.5225185e-05
2.5709684e-05
2.4693032e-05
2.4872795e-05
2.454867e-05
2.4745356e-05
2.4835246e-05
2.5176922e-05
2.5554912e-05
2.6090599e-05
2.6718989e-05
2.7482884e-05
2.8369707e-05
2.9401739e-05
3.0587964e-05
3.1950039e-05
3.3509414e-05
3.5295329e-05
3.7341944e-05
3.9691806e-05
4.2396982e-05
4.5521703e-05
4.9144278e-05
5.3360911e-05
5.8289735e-05
6.407595e-05
7.0897232e-05
7.8972724e-05
8.8573075e-05
0.00010002215
0.00011372203
0.00013016949
0.00014997026
0.0001738614
0.00020274999
0.00023773941
0.00028017416
0.00033169004
0.00039426953
0.00047031352
0.00056271989
0.00067497918
0.00081128798
0.0009767073
0.0011773396
0.0012190252
0.0012179723
0.0012166394
0.0012151921
0.0012136144
0.0012118803
0.0012099474
0.0012077342
0.0012050476
0.001201646
0.0011977847
0.0011940106
0.0011906624
0.0011877113
0.0011851261
0.0011828964
0.0011809818
0.0011794267
0.0011779921
0.0011774299
0.0011759183
0.0011784937
0.0011734309
0.0011790313
2.5175272e-06
1.8858287e-05
1.8078774e-05
2.2589328e-05
2.1264895e-05
2.2751538e-05
2.5884785e-05
2.3247003e-05
2.6416614e-05
2.2989772e-05
2.4328444e-05
2.2357798e-05
2.2767192e-05
2.1896945e-05
2.2045983e-05
2.1793347e-05
2.1972992e-05
2.2083565e-05
2.2404314e-05
2.2769914e-05
2.3271651e-05
2.3862691e-05
2.4575128e-05
2.5402063e-05
2.636169e-05
2.7463998e-05
2.8728408e-05
3.0175455e-05
3.1832186e-05
3.3730632e-05
3.5910278e-05
3.8419581e-05
4.1318415e-05
4.4679684e-05
4.859298e-05
5.316845e-05
5.8541387e-05
6.4877672e-05
7.2380931e-05
8.1304115e-05
9.1951038e-05
0.00010469548
0.00011999834
0.00013842671
0.00016066596
0.00018755984
0.00022013662
0.00025964649
0.00030761259
0.00036588064
0.0004366878
0.00052273862
0.00062729671
0.00075429474
0.00090847701
0.0010955794
0.0012184165
0.001217351
0.0012159649
0.00121447
0.0012128524
0.001211089
0.001209145
0.0012069613
0.0012044221
0.0012012552
0.0011974935
0.0011937402
0.0011904124
0.0011874812
0.0011849162
0.0011827008
0.0011808136
0.0011792462
0.0011779048
0.0011771595
0.0011759123
0.0011779064
0.0011735001
0.0011786056
2.2752195e-06
1.8316231e-05
1.6796332e-05
2.0551804e-05
1.9961712e-05
2.0461325e-05
2.3995611e-05
2.0707892e-05
2.3647571e-05
2.0387358e-05
2.1521258e-05
1.9797915e-05
2.0116146e-05
1.9393738e-05
1.9510106e-05
1.9325479e-05
1.9490636e-05
1.9621155e-05
1.9925496e-05
2.0281694e-05
2.0755931e-05
2.1316122e-05
2.1985989e-05
2.276299e-05
2.3662182e-05
2.4694305e-05
2.5877008e-05
2.7229998e-05
2.8778592e-05
3.0553028e-05
3.2590363e-05
3.4935995e-05
3.7646283e-05
4.078972e-05
4.445046e-05
4.8732152e-05
5.3762095e-05
5.9696355e-05
6.672674e-05
7.5091282e-05
8.5076223e-05
9.7033939e-05
0.00011139833
0.00012870134
0.00014958917
0.00017485381
0.00020546305
0.00024259132
0.0002876707
0.00034243648
0.00040899313
0.00048988768
0.00058819805
0.00070763997
0.00085269902
0.0010288054
0.0012177992
0.0012167328
0.0012152915
0.0012137469
0.0012120866
0.0012102901
0.0012083271
0.00120615
0.001203675
0.0012007292
0.0011971093
0.0011933948
0.001190102
0.0011872042
0.0011846697
0.0011824803
0.0011806208
0.0011790622
0.0011777923
0.0011769217
0.0011758995
0.0011773557
0.0011735699
0.0011782566
2.0686973e-06
1.7722117e-05
1.5657303e-05
1.863604e-05
1.8750495e-05
1.8321694e-05
2.2102243e-05
1.8433432e-05
2.1017137e-05
1.805475e-05
1.8960464e-05
1.7499833e-05
1.7726941e-05
1.7145922e-05
1.7234186e-05
1.7112056e-05
1.7267475e-05
1.7416769e-05
1.7709624e-05
1.8059159e-05
1.8511877e-05
1.9047106e-05
1.9682299e-05
2.0418182e-05
2.1267496e-05
2.2241392e-05
2.3356261e-05
2.4631024e-05
2.6089638e-05
2.7760876e-05
2.9679807e-05
3.1889332e-05
3.444292e-05
3.7405487e-05
4.0856801e-05
4.489515e-05
4.9641426e-05
5.5243968e-05
6.1884196e-05
6.9789107e-05
7.9230586e-05
9.0543642e-05
0.0001041394
0.00012052337
0.00014030888
0.00016424692
0.00019325609
0.00022844983
0.00027118681
0.00032311317
0.00038622587
0.00046294384
0.00055619349
0.00066951253
0.00080717661
0.0009743651
0.0011773408
0.0012161076
0.0012146105
0.0012130153
0.0012113114
0.0012094799
0.0012074942
0.0012053145
0.0012028758
0.001200061
0.0011966341
0.0011929764
0.0011897335
0.0011868821
0.001184389
0.0011822363
0.0011804079
0.0011788745
0.0011776588
0.0011767131
0.001175879
0.0011768465
0.0011736533
0.0011779201
1.888756e-06
1.7072991e-05
1.4579067e-05
1.679791e-05
1.7614176e-05
1.6384373e-05
2.0177403e-05
1.638147e-05
1.8552236e-05
1.5954941e-05
1.663608e-05
1.5432825e-05
1.5579297e-05
1.5126859e-05
1.5194803e-05
1.5128193e-05
1.5279179e-05
1.544583e-05
1.5731803e-05
1.6077139e-05
1.6513779e-05
1.7029372e-05
1.7636999e-05
1.8339646e-05
1.9148492e-05
2.0074848e-05
2.1134177e-05
2.2344725e-05
2.3729365e-05
2.5315706e-05
2.7137225e-05
2.9234751e-05
3.1659451e-05
3.4473374e-05
3.7752751e-05
4.159151e-05
4.6105524e-05
5.1437027e-05
5.775831e-05
6.5289356e-05
7.4289509e-05
8.507931e-05
9.8051472e-05
0.00011369285
0.00013258821
0.00015545614
0.00018317592
0.00021681174
0.00025766357
0.00030730567
0.00036764819
0.00044100633
0.00053018316
0.00063857083
0.00077027407
0.00093026749
0.0011245762
0.0012154655
0.0012139135
0.0012122682
0.0012105209
0.0012086543
0.0012066446
0.0012044575
0.0012020401
0.0011993025
0.0011960715
0.0011924889
0.0011893102
0.001186518
0.0011840777
0.001181971
0.0011801796
0.0011786833
0.001177509
0.0011765324
0.0011758509
0.001176389
0.0011737554
0.001177606
1.7325296e-06
1.632815e-05
1.3577737e-05
1.5030425e-05
1.652932e-05
1.4629184e-05
1.8207065e-05
1.4526594e-05
1.6267098e-05
1.4062544e-05
1.4539538e-05
1.3573575e-05
1.365515e-05
1.3314968e-05
1.3371305e-05
1.3352798e-05
1.3504325e-05
1.3686909e-05
1.3912915e-05
1.4247027e-05
1.4665331e-05
1.516031e-05
1.5741423e-05
1.6412671e-05
1.718379e-05
1.8065868e-05
1.9073426e-05
2.0223908e-05
2.1539083e-05
2.3045441e-05
2.4775014e-05
2.67666e-05
2.9069306e-05
3.1742561e-05
3.4859424e-05
3.8509931e-05
4.2805455e-05
4.7883321e-05
5.4265776e-05
6.1496583e-05
7.0143048e-05
8.0514064e-05
9.2987791e-05
0.00010803732
0.00012622385
0.00014824009
0.00017493485
0.00020733235
0.00024668645
0.00029451389
0.00035265544
0.000423343
0.0005092804
0.00061374215
0.00074069444
0.00089494634
0.0010823284
0.0012147972
0.0012131926
0.0012114989
0.0012097099
0.0012078093
0.0012057759
0.00120358
0.0012011778
0.0011985006
0.0011954269
0.0011919374
0.0011888365
0.0011861157
0.0011837394
0.0011816877
0.0011799407
0.0011784902
0.001177349
0.0011763769
0.0011758161
0.0011759952
0.0011738782
0.001177286
1.5965433e-06
1.5469233e-05
1.2640003e-05
1.3328797e-05
1.545518e-05
1.3033432e-05
1.621855e-05
1.2842843e-05
1.416889e-05
1.2353409e-05
1.2657787e-05
1.1901097e-05
1.1936088e-05
1.1691357e-05
1.1690326e-05
1.1692991e-05
1.1837942e-05
1.2029078e-05
1.2307699e-05
1.2648875e-05
1.306513e-05
1.3553317e-05
1.4121377e-05
1.4774553e-05
1.5522014e-05
1.6374946e-05
1.7347424e-05
1.8456465e-05
1.9723156e-05
2.1173295e-05
2.2838074e-05
2.4754741e-05
2.6971063e-05
2.9544708e-05
3.2546528e-05
3.6063767e-05
4.0204527e-05
4.5103776e-05
5.0923031e-05
5.7862962e-05
6.6169101e-05
7.6140623e-05
8.882727e-05
0.00010341539
0.00012105003
0.0001424029
0.00016830059
0.00019973453
0.00023792341
0.00028433869
0.00034076644
0.00040937281
0.00049278304
0.00059417831
0.00071741464
0.00086716954
0.0010491188
0.001214094
0.0012124405
0.0012107016
0.0012088735
0.0012069414
0.0012048861
0.0012026815
0.001200291
0.0011976606
0.0011947066
0.0011913285
0.0011883179
0.0011856801
0.0011833782
0.0011813899
0.0011796958
0.0011782968
0.0011771849
0.0011762439
0.0011757752
0.001175673
0.0011740184
0.0011770296
1.4787806e-06
1.4485465e-05
1.1767386e-05
1.1786376e-05
1.4356862e-05
1.1576593e-05
1.4280901e-05
1.1310381e-05
1.2263573e-05
1.0809284e-05
1.0977872e-05
1.0399093e-05
1.0325952e-05
1.0135783e-05
1.0180185e-05
1.0234946e-05
1.0400211e-05
1.0614227e-05
1.0902544e-05
1.1250384e-05
1.1666373e-05
1.2150211e-05
1.2709009e-05
1.3348855e-05
1.4078502e-05
1.4909199e-05
1.5854692e-05
1.6931629e-05
1.8160546e-05
1.9566706e-05
2.118084e-05
2.3038785e-05
2.5187399e-05
2.7683055e-05
3.0595017e-05
3.4008394e-05
3.80283e-05
4.2788169e-05
4.844556e-05
5.5197028e-05
6.3283016e-05
7.2996994e-05
8.4701415e-05
9.8834245e-05
0.00011593149
0.00013777877
0.00016307753
0.00019378588
0.00023109714
0.00027644811
0.00033158276
0.00039861668
0.00048011457
0.00057918556
0.00069960067
0.00084593625
0.00102375
0.0012133484
0.0012116513
0.0012098712
0.0012080078
0.0012060477
0.0012039734
0.0012017621
0.0011993823
0.0011967892
0.0011939177
0.0011906703
0.0011877611
0.0011852164
0.0011829983
0.0011810816
0.0011794487
0.001178105
0.0011770225
0.0011761299
0.0011757269
0.0011754198
0.0011741655
0.0011768236
1.376988e-06
1.3374015e-05
1.0952194e-05
1.0388073e-05
1.3194232e-05
1.0245329e-05
1.24269e-05
9.9159467e-06
1.055313e-05
9.4165201e-06
9.3967637e-06
8.9220851e-06
8.8950289e-06
8.7943888e-06
8.8651783e-06
8.9619227e-06
9.1462087e-06
9.3796509e-06
9.6777516e-06
1.0032377e-05
1.0449932e-05
1.0931894e-05
1.1484969e-05
1.2115877e-05
1.2833026e-05
1.3647711e-05
1.4573458e-05
1.5626607e-05
1.6827226e-05
1.8200146e-05
1.9701181e-05
2.1500052e-05
2.3580451e-05
2.5997466e-05
2.8818886e-05
3.2127934e-05
3.6232259e-05
4.0888263e-05
4.6425646e-05
5.3038222e-05
6.0962978e-05
7.0487492e-05
8.1970937e-05
9.5842991e-05
0.00011263212
0.0001329842
0.00015767897
0.00018929
0.00022597382
0.00027056293
0.00032477018
0.00039067391
0.00047079404
0.00056818654
0.00068655968
0.00083041631
0.0010052293
0.0012125541
0.0012108205
0.0012090041
0.0012071103
0.0012051265
0.001203037
0.001200822
0.0011984545
0.0011958969
0.0011930952
0.0011899717
0.0011871731
0.0011847304
0.0011826042
0.0011807666
0.0011792026
0.0011779165
0.0011768664
0.0011760318
0.0011756687
0.0011752195
0.0011743149
0.0011766642
1.2898608e-06
1.2144122e-05
1.0185818e-05
9.1190479e-06
1.1927784e-05
9.0264951e-06
1.0687765e-05
8.6467299e-06
9.032461e-06
8.022629e-06
7.9802465e-06
7.6614734e-06
7.6580844e-06
7.6279992e-06
7.7242363e-06
7.8553238e-06
8.0576469e-06
8.308156e-06
8.616318e-06
8.9782225e-06
9.3991657e-06
9.8816809e-06
1.0432298e-05
1.1032759e-05
1.1735574e-05
1.2532781e-05
1.3437453e-05
1.446541e-05
1.5636039e-05
1.6973317e-05
1.8506494e-05
2.0271517e-05
2.2312623e-05
2.4684351e-05
2.7453929e-05
3.0704293e-05
3.4537788e-05
3.9080518e-05
4.4487538e-05
5.0950404e-05
5.8703296e-05
6.8542961e-05
7.987897e-05
9.3578092e-05
0.0001101616
0.00013027083
0.00015467586
0.00018432014
0.00022234888
0.00026643944
0.00032003766
0.00038519637
0.00046440476
0.00056068226
0.00067769423
0.00081989506
0.00099270283
0.0012027
0.001209945
0.0012080983
0.0012061795
0.0012041771
0.001202077
0.001199862
0.0011975094
0.0011949882
0.0011922541
0.0011892426
0.0011865617
0.0011842278
0.0011822001
0.0011804482
0.0011789595
0.0011777326
0.00117672
0.0011759472
0.0011755995
0.0011750544
0.0011744571
0.0011765334
1.2169236e-06
1.0809156e-05
9.4597054e-06
7.9661556e-06
1.0606568e-05
7.909609e-06
9.0909086e-06
7.4324068e-06
7.5001573e-06
6.8095478e-06
6.768753e-06
6.5705694e-06
6.5929646e-06
6.6187859e-06
6.7394442e-06
6.8991948e-06
7.1187369e-06
7.3847679e-06
7.7033972e-06
8.0732912e-06
8.4805113e-06
8.9606443e-06
9.5067136e-06
1.012548e-05
1.082561e-05
1.1617645e-05
1.2514641e-05
1.3532318e-05
1.4689795e-05
1.6010891e-05
1.7524625e-05
1.9266688e-05
2.1281068e-05
2.3622025e-05
2.6356499e-05
2.9567109e-05
3.3355803e-05
3.7847978e-05
4.319793e-05
4.9597115e-05
5.7280328e-05
6.652829e-05
7.7688427e-05
9.1185651e-05
0.00010842431
0.00012840044
0.00015264477
0.000182099
0.00021789452
0.00026385816
0.00031712324
0.000381871
0.00046057255
0.00055622553
0.00067246971
0.00081373271
0.00098540409
0.0011940373
0.001209024
0.0012071533
0.0012052156
0.0012032003
0.0012010946
0.0011988837
0.0011965488
0.0011940652
0.0011913978
0.0011884932
0.0011859352
0.0011837144
0.0011817896
0.0011801291
0.0011787206
0.001177554
0.0011765855
0.0011758738
0.0011755205
0.0011749226
0.0011745801
0.0011764106
1.1589033e-06
9.3839165e-06
8.7569681e-06
6.9174647e-06
9.2405193e-06
6.8846759e-06
7.660368e-06
6.2298502e-06
6.2385979e-06
5.7655418e-06
5.7363227e-06
5.6311752e-06
5.6805405e-06
5.7512161e-06
5.8951831e-06
6.079478e-06
6.3155853e-06
6.5961816e-06
6.9084321e-06
7.2828918e-06
7.7114855e-06
8.1981497e-06
8.7486165e-06
9.3698962e-06
1.0070726e-05
1.0861632e-05
1.1755675e-05
1.2768583e-05
1.3919184e-05
1.5231273e-05
1.6733774e-05
1.8462305e-05
2.0460831e-05
2.2783622e-05
2.5497683e-05
2.8685788e-05
3.245e-05
3.6915544e-05
4.2236654e-05
4.8604854e-05
5.6255632e-05
6.546801e-05
7.6591927e-05
9.0053241e-05
0.0001063646
0.00012615049
0.00015146113
0.00018085806
0.0002165868
0.00026001523
0.00031577898
0.00038040158
0.00045894338
0.00055439376
0.00067038142
0.00081132638
0.00098261213
0.0011907909
0.0012080582
0.0012061704
0.0012042204
0.0012021982
0.0012000925
0.0011978901
0.0011955755
0.0011931298
0.0011905278
0.0011877338
0.0011853013
0.0011831957
0.001181376
0.0011798107
0.0011784854
0.0011773807
0.0011764631
0.0011758097
0.0011754363
0.0011748148
0.0011746846
0.001176288
1.1190182e-06
7.8847713e-06
8.0470717e-06
5.9678703e-06
7.8809862e-06
5.9345452e-06
6.6151731e-06
5.2095293e-06
5.1755313e-06
4.8704066e-06
4.8610224e-06
4.8276928e-06
4.904391e-06
5.0118469e-06
5.1779649e-06
5.3838525e-06
5.6210542e-06
5.9118764e-06
6.2495939e-06
6.6355994e-06
7.0735951e-06
7.5680357e-06
8.1248195e-06
8.7511044e-06
9.4557078e-06
1.0249057e-05
1.1144243e-05
1.2131323e-05
1.3272897e-05
1.4572988e-05
1.6060216e-05
1.7769922e-05
1.9745839e-05
2.2042037e-05
2.4725418e-05
2.7878746e-05
3.1604018e-05
3.6026278e-05
4.1299716e-05
4.7927961e-05
5.5578926e-05
6.4793981e-05
7.5928381e-05
8.9407915e-05
0.00010574461
0.00012556527
0.00014963148
0.00018045086
0.00021624579
0.00025975612
0.00031263731
0.00038049127
0.00045916199
0.00055476313
0.00067092337
0.00081207166
0.00098360524
0.0011920989
0.0012070505
0.0012051527
0.0012031973
0.0012011748
0.0011990749
0.001196886
0.0011945947
0.0011921856
0.0011896406
0.001186974
0.0011846678
0.0011826769
0.001180962
0.0011794929
0.0011782517
0.0011772106
0.0011763497
0.001175749
0.0011753526
0.001174747
0.0011747753
0.001176151
1.1018566e-06
6.5987359e-06
7.3149714e-06
5.4745792e-06
7.2971106e-06
5.0929378e-06
4.9928136e-06
4.3279699e-06
4.2909603e-06
4.1075763e-06
4.124319e-06
4.1475247e-06
4.251008e-06
4.3893271e-06
4.5649916e-06
4.7859234e-06
5.0505629e-06
5.3571846e-06
5.7080432e-06
6.1055256e-06
6.5536019e-06
7.0570693e-06
7.6219456e-06
8.2554445e-06
8.953566e-06
9.748197e-06
1.0642754e-05
1.1652633e-05
1.2796722e-05
1.4098274e-05
1.5586019e-05
1.7295503e-05
1.9270762e-05
2.1566303e-05
2.4249678e-05
2.7404488e-05
3.1133602e-05
3.5563372e-05
4.0850441e-05
4.7187104e-05
5.4803076e-05
6.4446519e-05
7.5629072e-05
8.9171456e-05
0.00010558664
0.00012550466
0.00014969021
0.00017907255
0.00021669023
0.00026041143
0.00031354211
0.00037811118
0.00046085514
0.00055688797
0.00067356277
0.0008153312
0.00098762119
0.0011970492
0.0012060061
0.0012041054
0.0012021514
0.0012001354
0.0011980478
0.001195878
0.0011936143
0.0011912431
0.0011887491
0.0011862226
0.0011840413
0.0011821627
0.0011805498
0.0011791747
0.0011780156
0.0011770396
0.0011762393
0.001175683
0.0011752648
0.0011746986
0.0011748321
0.0011759865
1.1080892e-06
6.8472866e-06
6.5550808e-06
6.1888708e-06
6.4907143e-06
3.9688516e-06
4.0485419e-06
3.5823285e-06
3.5574473e-06
3.4684275e-06
3.5124431e-06
3.580771e-06
3.7094304e-06
3.862266e-06
4.0648064e-06
4.3059567e-06
4.5869227e-06
4.9078703e-06
5.2713723e-06
5.6804618e-06
6.1393283e-06
6.6529802e-06
7.2199025e-06
7.8597593e-06
8.5759085e-06
9.3786849e-06
1.0280664e-05
1.1297231e-05
1.2447307e-05
1.3754247e-05
1.5246978e-05
1.696137e-05
1.8941888e-05
2.1243653e-05
2.3935079e-05
2.710074e-05
3.0844443e-05
3.5294182e-05
4.0609134e-05
4.6982732e-05
5.4645474e-05
6.3883818e-05
7.5619732e-05
8.9258038e-05
0.00010579113
0.00012585295
0.0001502122
0.00017980298
0.00021772219
0.00026174691
0.00031523809
0.00038023555
0.00046361299
0.00056027755
0.00067771232
0.0008204016
0.00099381692
0.0012046312
0.0012049313
0.0012030349
0.0012010892
0.0011990862
0.0011970174
0.0011948731
0.0011926427
0.0011903146
0.0011878753
0.0011854865
0.0011834272
0.0011816571
0.0011801416
0.0011788552
0.0011777731
0.0011768614
0.0011761216
0.0011756032
0.0011751758
0.0011746602
0.0011748356
0.0011757821
1.0135106e-06
7.0823428e-06
5.7402677e-06
4.6093224e-06
4.2331036e-06
3.2902434e-06
3.2376451e-06
2.9754706e-06
2.9591372e-06
2.9410487e-06
3.0124355e-06
3.1162496e-06
3.2579954e-06
3.4411757e-06
3.6635299e-06
3.9218311e-06
4.2174878e-06
4.5518492e-06
4.927795e-06
5.348758e-06
5.8190701e-06
6.3385238e-06
6.9218251e-06
7.5724524e-06
8.2989211e-06
9.111525e-06
1.0022806e-05
1.1048156e-05
1.2206566e-05
1.3521551e-05
1.5022309e-05
1.6745107e-05
1.8734946e-05
2.1047721e-05
2.3752826e-05
2.6935758e-05
3.0701448e-05
3.5180302e-05
4.0534129e-05
4.6955787e-05
5.467628e-05
6.4462651e-05
7.5819564e-05
8.9573744e-05
0.00010624802
0.00012648094
0.00015104646
0.00018088467
0.00021911739
0.0002634962
0.00031740969
0.00038291152
0.00046696818
0.00056437207
0.00068270062
0.0008264776
0.0010012261
0.0012056811
0.0012038342
0.0012019486
0.0012000177
0.0011980343
0.0011959904
0.0011938775
0.0011916863
0.0011894064
0.0011870263
0.0011847705
0.0011828288
0.0011811623
0.0011797391
0.0011785345
0.0011775221
0.0011766711
0.0011759893
0.0011755046
0.001175071
0.0011745837
0.0011747779
0.0011755212
7.8624551e-07
6.811669e-06
4.5899978e-06
3.1916844e-06
3.2881024e-06
2.6652231e-06
2.6105701e-06
2.4638786e-06
2.4763712e-06
2.5094879e-06
2.6086396e-06
2.7344726e-06
2.9040918e-06
3.1084255e-06
3.3477506e-06
3.6211448e-06
3.9303956e-06
4.2775978e-06
4.6658616e-06
5.0988465e-06
5.5778924e-06
6.1129354e-06
6.7079235e-06
7.3699314e-06
8.1074196e-06
8.9306345e-06
9.852098e-06
1.0887228e-05
1.2055114e-05
1.3379479e-05
1.4889836e-05
1.6622888e-05
1.8624258e-05
2.0950711e-05
2.3672546e-05
2.6876035e-05
3.0667633e-05
3.5180719e-05
4.0578947e-05
4.7052818e-05
5.5214889e-05
6.4685158e-05
7.6141678e-05
9.0015686e-05
0.00010683566
0.00012724434
0.00015202165
0.00018211354
0.00022062372
0.00026535837
0.00031969715
0.00038570838
0.00047039054
0.00056853532
0.00068776295
0.00083263841
0.0010087383
0.0012045568
0.0012027237
0.0012008552
0.0011989452
0.0011969871
0.0011949739
0.0011928979
0.001190751
0.001188524
0.0011862074
0.0011840773
0.0011822468
0.0011806787
0.0011793423
0.001178213
0.0011772632
0.0011764671
0.0011758359
0.001175375
0.0011749387
0.0011744942
0.0011746796
0.0011751968
6.1158341e-07
3.5763539e-06
3.6430527e-06
2.6013592e-06
2.5352536e-06
2.1570264e-06
2.1158218e-06
2.0524284e-06
2.0940781e-06
2.1674185e-06
2.2912945e-06
2.4417303e-06
2.6314838e-06
2.8530909e-06
3.1070849e-06
3.3939912e-06
3.7159259e-06
4.0754135e-06
4.4756856e-06
4.9204855e-06
5.4142018e-06
5.9591427e-06
6.5656752e-06
7.2389315e-06
7.9873186e-06
8.8210449e-06
9.7526289e-06
1.0797536e-05
1.1974978e-05
1.3308894e-05
1.4829117e-05
1.6572805e-05
1.8586247e-05
2.092705e-05
2.36662e-05
2.6890738e-05
3.0708983e-05
3.5448131e-05
4.092941e-05
4.7500561e-05
5.5404869e-05
6.4949066e-05
7.6494925e-05
9.047621e-05
0.00010742594
0.00012799008
0.00015295459
0.00018487866
0.00022196418
0.00026700049
0.00032169983
0.00038814384
0.00047328136
0.00057204597
0.00069202933
0.00083783326
0.0010150825
0.0012034234
0.0012016102
0.0011997644
0.0011978808
0.0011959532
0.0011939755
0.001191941
0.0011898425
0.0011876723
0.001185422
0.0011834076
0.0011816798
0.0011802027
0.0011789471
0.0011778874
0.0011769957
0.0011762514
0.0011756643
0.0011752212
0.0011747949
0.0011744099
0.001174562
0.0011749008
4.935151e-07
2.5721323e-06
2.798367e-06
2.05333e-06
1.9729443e-06
1.7530263e-06
1.7330418e-06
1.7290294e-06
1.7987156e-06
1.9036833e-06
2.0492252e-06
2.2217845e-06
2.4280984e-06
2.6642803e-06
2.9312878e-06
3.2304783e-06
3.5641762e-06
3.9351168e-06
4.3465736e-06
4.802303e-06
5.3066479e-06
5.8646464e-06
6.482216e-06
7.1663921e-06
7.9256431e-06
8.7702816e-06
9.7129846e-06
1.0769451e-05
1.1959216e-05
1.3306639e-05
1.4842077e-05
1.6603374e-05
1.8637749e-05
2.1003751e-05
2.3773221e-05
2.7034878e-05
3.0900106e-05
3.5505595e-05
4.1011166e-05
4.7610565e-05
5.5554425e-05
6.5150156e-05
7.6757901e-05
9.0813312e-05
0.00010785058
0.00012960188
0.00015487094
0.00018554112
0.0002227764
0.00026798989
0.0003228997
0.0003932747
0.00047487574
0.00057398904
0.00069440433
0.00084074904
0.0010186824
0.0012022917
0.0012005036
0.0011986857
0.0011968331
0.0011949406
0.0011930025
0.0011910131
0.0011889661
0.0011868551
0.0011846728
0.0011827611
0.0011811246
0.0011797289
0.0011785453
0.0011775478
0.0011767093
0.0011760132
0.0011754644
0.0011750364
0.0011746287
0.0011743011
0.0011744099
0.0011745978
3.8467755e-07
2.0079289e-06
2.0988514e-06
1.6305092e-06
1.5464186e-06
1.4321186e-06
1.4362593e-06
1.4761903e-06
1.5711542e-06
1.7009182e-06
1.8643096e-06
2.0548453e-06
2.2741964e-06
2.5220539e-06
2.799721e-06
3.1090021e-06
3.4523233e-06
3.8325096e-06
4.2528412e-06
4.7170722e-06
5.2295162e-06
5.7951637e-06
6.4198714e-06
7.1106105e-06
7.8757863e-06
8.7256536e-06
9.6728466e-06
1.0733051e-05
1.1925821e-05
1.327556e-05
1.4812719e-05
1.6575362e-05
1.8610958e-05
2.0978051e-05
2.374863e-05
2.7012903e-05
3.0883431e-05
3.5494356e-05
4.1002401e-05
4.7606793e-05
5.5562897e-05
6.5652031e-05
7.7361932e-05
9.1536107e-05
0.00010871049
0.00012953562
0.00015480099
0.00018546516
0.00022269243
0.00026789354
0.00032572869
0.00039286891
0.00047440557
0.00057344943
0.00069379482
0.00084007708
0.0010179671
0.0012011748
0.0011994164
0.0011976306
0.001195813
0.0011939589
0.0011920634
0.0011901214
0.0011881276
0.0011860765
0.0011839622
0.0011821377
0.0011805788
0.0011792523
0.0011781298
0.0011771852
0.0011763929
0.0011757392
0.0011752225
0.001174809
0.0011744255
0.0011741447
0.0011742063
0.001174272
2.5763018e-07
1.574634e-06
1.540827e-06
1.3101637e-06
1.2318935e-06
1.1882755e-06
1.2190787e-06
1.2939825e-06
1.4125028e-06
1.5631799e-06
1.7426178e-06
1.9482408e-06
2.1802036e-06
2.4393885e-06
2.7275031e-06
3.0461397e-06
3.3986978e-06
3.7876725e-06
4.2163733e-06
4.6885886e-06
5.2086267e-06
5.7814216e-06
6.4127794e-06
7.1096129e-06
7.8802567e-06
8.7348972e-06
9.6861019e-06
1.0749501e-05
1.1944596e-05
1.3295743e-05
1.483341e-05
1.6595738e-05
1.8630043e-05
2.0994383e-05
2.3849797e-05
2.7131942e-05
3.1023538e-05
3.5654715e-05
4.1183497e-05
4.7816806e-05
5.5809269e-05
6.5455981e-05
7.7115186e-05
9.1227207e-05
0.00010832329
0.00012905005
0.0001541915
0.00018634834
0.0002236512
0.00026892525
0.00032388573
0.00039061937
0.00047166703
0.00057012563
0.00068977425
0.00083523108
0.0010121485
0.0012000811
0.0011983566
0.0011966064
0.0011948269
0.0011930138
0.0011911629
0.0011892696
0.0011873294
0.0011853375
0.0011832889
0.0011815342
0.0011800373
0.0011787659
0.0011776918
0.001176789
0.001176034
0.001175414
0.0011749216
0.0011745211
0.0011741636
0.0011739182
0.0011739288
0.0011738942
2.9983374e-07
1.2717621e-06
1.1291115e-06
1.0572917e-06
1.0115957e-06
1.0106449e-06
1.063574e-06
1.1609301e-06
1.2939832e-06
1.4556761e-06
1.6426839e-06
1.8540237e-06
2.0901894e-06
2.3524779e-06
2.6427092e-06
2.9631008e-06
3.3162383e-06
3.7050838e-06
4.1329957e-06
4.6037233e-06
5.1213264e-06
5.69036e-06
6.3167389e-06
7.0073476e-06
7.7704824e-06
8.6162573e-06
9.5571512e-06
1.060867e-05
1.179015e-05
1.3125765e-05
1.4645817e-05
1.6388144e-05
1.839937e-05
2.0736924e-05
2.3473207e-05
2.6698868e-05
3.0521001e-05
3.506493e-05
4.0491976e-05
4.7009722e-05
5.486185e-05
6.4335759e-05
7.637328e-05
9.0338543e-05
0.00010725345
0.00012775701
0.00015262487
0.00018279898
0.00021942369
0.00026389012
0.0003178904
0.0003834845
0.00046318222
0.00056004438
0.00067780799
0.00082104211
0.00099534193
0.0011990142
0.0011973301
0.0011956204
0.001193883
0.0011921143
0.0011903104
0.0011884675
0.0011865815
0.0011846484
0.001182664
0.0011809577
0.001179504
0.0011782708
0.0011772298
0.0011763552
0.0011756254
0.0011750273
0.0011745483
0.0011741549
0.0011738182