/*--------------------------------*- C++ -*----------------------------------*\
  =========                 |
  \\      /  F ield         | OpenFOAM: The Open Source CFD Toolbox
   \\    /   O peration     | Website:  https://openfoam.org
    \\  /    A nd           | Version:  6
     \\/     M anipulation  |
\*---------------------------------------------------------------------------*/
FoamFile
{
    version     2.0;
    format      ascii;
    class       volScalarField;
    location    "400";
    object      k;
}
// * * * * * * * * * * * * * * * * * * * * * * * * * * * * * * * * * * * * * //

dimensions      [0 2 -2 0 0 0 0];

internalField   nonuniform List<scalar> 
16000
(
0.11984176
0.031679989
0.021808179
0.017589946
0.015246406
0.014270555
0.013287193
0.01292663
0.012469744
0.012242386
0.011992582
0.011822702
0.011663819
0.011534546
0.011424227
0.011333709
0.011258032
0.011194363
0.011140155
0.011093683
0.011053519
0.011018588
0.010988015
0.010961111
0.010937314
0.010916172
0.010897304
0.010880399
0.010865192
0.010851463
0.010839019
0.010827698
0.010817352
0.010807861
0.010799107
0.01079099
0.010783414
0.010776291
0.010769533
0.010763059
0.01075679
0.010750648
0.010744562
0.010738458
0.010732266
0.010725916
0.010719337
0.010712458
0.010705209
0.010697518
0.01068931
0.010680511
0.010671043
0.010660821
0.010649745
0.010637681
0.010624445
0.010609759
0.010593071
0.010572684
0.010547445
0.010516553
0.010479301
0.010434928
0.010383617
0.010327886
0.010272052
0.010221052
0.010176144
0.010138106
0.010104516
0.010079303
0.010053894
0.010040993
0.010022304
0.010037479
0.010023046
0.010098136
0.010025381
0.010099009
0.10221549
0.032198931
0.021258661
0.017454056
0.015046507
0.014183025
0.013179813
0.012851528
0.01239132
0.012170769
0.011923611
0.011754379
0.011599319
0.011473517
0.011370453
0.011285915
0.011215232
0.011155781
0.01110517
0.01106179
0.011024301
0.0109917
0.010963164
0.010938048
0.010915824
0.010896067
0.01087842
0.010862589
0.010848326
0.01083542
0.010823693
0.01081299
0.010803177
0.010794133
0.010785747
0.010777926
0.010770576
0.010763618
0.010756972
0.010750559
0.010744306
0.01073814
0.010731994
0.010725798
0.010719488
0.010712998
0.010706261
0.010699211
0.01069178
0.0106839
0.010675501
0.010666509
0.010656848
0.010646436
0.010635183
0.010622968
0.010609634
0.010594972
0.010578709
0.010560378
0.010538739
0.010511057
0.010476713
0.010434793
0.010385112
0.010329894
0.010273688
0.010221899
0.010176591
0.010137834
0.010104305
0.01007792
0.010053917
0.010040499
0.010022027
0.010031418
0.010019218
0.010088558
0.010024563
0.010098209
0.088918831
0.032687643
0.020687578
0.017294767
0.01484039
0.014080341
0.013068683
0.012766836
0.012310103
0.012092777
0.011852031
0.011681582
0.011533293
0.011416085
0.011320028
0.011241255
0.011175396
0.011120018
0.011072883
0.011032488
0.010997583
0.01096723
0.010940657
0.010917261
0.010896547
0.010878116
0.010861632
0.010846821
0.010833447
0.010821313
0.01081025
0.010800112
0.010790773
0.010782119
0.01077405
0.010766471
0.010759297
0.010752449
0.010745855
0.010739446
0.010733151
0.010726902
0.010720636
0.010714289
0.010707801
0.010701111
0.010694155
0.010686873
0.010679201
0.010671072
0.010662422
0.010653179
0.010643269
0.010632613
0.010621123
0.010608692
0.010595175
0.010580383
0.01056409
0.010546001
0.010525624
0.010501819
0.010470982
0.010432117
0.010384636
0.010330439
0.010274155
0.010221838
0.0101762
0.010137043
0.010103533
0.010076581
0.010053283
0.010039405
0.010021932
0.010027619
0.010017053
0.010079577
0.01002268
0.010089907
0.079880371
0.032964609
0.020114608
0.017112345
0.014632946
0.0139608
0.012956675
0.01267087
0.012226945
0.012007232
0.011777812
0.011609051
0.011471183
0.011362215
0.01127291
0.011199682
0.011138474
0.011087018
0.011043231
0.01100571
0.01097329
0.010945094
0.010920403
0.010898651
0.010879375
0.010862202
0.010846817
0.010832962
0.010820415
0.010808992
0.010798531
0.010788898
0.010779972
0.010771648
0.01076383
0.010756434
0.010749377
0.010742583
0.010735984
0.010729519
0.010723124
0.010716735
0.010710292
0.010703738
0.010697017
0.010690072
0.010682846
0.01067528
0.010667315
0.010658889
0.010649939
0.010640397
0.010630192
0.010619248
0.010607477
0.01059478
0.010581025
0.010566038
0.010549606
0.010531478
0.010511298
0.010488438
0.010461499
0.010426379
0.010381773
0.01032919
0.010273214
0.010220631
0.010174848
0.010135524
0.010102073
0.010074826
0.010052137
0.01003718
0.010021758
0.010025264
0.010015407
0.010069328
0.01002118
0.010084553
0.071945225
0.03291917
0.019551462
0.016905237
0.014425704
0.013823704
0.012844309
0.012563214
0.0121419
0.011913925
0.011700212
0.011540936
0.011413087
0.01131201
0.011229201
0.011161303
0.011104571
0.011056885
0.011016319
0.010981559
0.010951523
0.010925394
0.0109025
0.010882314
0.010864402
0.010848414
0.010834057
0.010821088
0.0108093
0.010798519
0.010788594
0.010779397
0.010770816
0.010762753
0.010755118
0.010747833
0.010740822
0.010734017
0.01072735
0.010720763
0.010714202
0.010707609
0.010700928
0.010694107
0.010687094
0.010679837
0.010672284
0.01066438
0.010656071
0.010647296
0.010637998
0.01062811
0.010617565
0.010606286
0.010594192
0.010581185
0.010567145
0.01055191
0.010535279
0.010517021
0.010496835
0.010474248
0.010448405
0.010417399
0.010376404
0.010326094
0.010270858
0.01021827
0.010172545
0.010133273
0.010099992
0.0100727
0.010050518
0.010034941
0.010021187
0.010022573
0.010014199
0.010059798
0.010020296
0.010075965
0.064977396
0.03240862
0.019010789
0.016672099
0.014220472
0.01366807
0.01273227
0.012443165
0.012054926
0.011822205
0.011624691
0.0114773
0.011359059
0.011265531
0.011188958
0.011126172
0.011073737
0.011029669
0.010992191
0.010960074
0.010932316
0.010908155
0.010886968
0.010868261
0.010851629
0.010836746
0.010823337
0.010811176
0.010800069
0.010789852
0.010780385
0.010771547
0.010763234
0.010755354
0.010747825
0.010740574
0.010733533
0.01072664
0.010719835
0.010713059
0.010706264
0.010699403
0.010692421
0.010685272
0.01067791
0.010670287
0.010662355
0.010654064
0.010645362
0.010636194
0.010626504
0.010616228
0.010605303
0.010593653
0.010581199
0.010567846
0.010553483
0.010537958
0.010521081
0.010502637
0.010482357
0.010459843
0.01043445
0.010404941
0.010368371
0.010321087
0.010267076
0.010214753
0.010169301
0.010130288
0.010097293
0.010070161
0.010048442
0.010032577
0.010020171
0.010019486
0.010013163
0.010052007
0.010019426
0.010069926
0.058860453
0.031398887
0.018500716
0.016411043
0.014018977
0.013492936
0.012621061
0.012310197
0.011964836
0.011736404
0.011554352
0.011418251
0.011309198
0.011222882
0.01115228
0.011094386
0.011046064
0.011005456
0.010970926
0.010941329
0.010915736
0.01089344
0.01087386
0.010856537
0.010841093
0.010827224
0.010814675
0.010803233
0.010792717
0.010782976
0.010773877
0.010765309
0.010757176
0.010749392
0.010741884
0.010734583
0.01072743
0.010720367
0.010713343
0.010706308
0.010699209
0.010692012
0.010684666
0.01067713
0.010669362
0.010661319
0.010652959
0.010644234
0.010635096
0.010625494
0.010615373
0.010604674
0.010593333
0.01058128
0.010568434
0.010554706
0.010539987
0.010524139
0.010506981
0.010488311
0.010467881
0.010445345
0.010420176
0.010391479
0.0103575
0.010314105
0.010261873
0.010210089
0.010165131
0.010126579
0.010094013
0.010067216
0.010045945
0.010030091
0.010018746
0.010016125
0.0100121
0.01004469
0.01001855
0.010063501
0.053492112
0.03019753
0.018017762
0.016119996
0.013823123
0.013297628
0.012511149
0.012183896
0.011869898
0.011656591
0.011489256
0.011363875
0.011263586
0.011184148
0.011119247
0.011066025
0.011021628
0.010984317
0.010952592
0.010925383
0.010901834
0.010881288
0.010863206
0.010847161
0.010832802
0.010819845
0.010808052
0.010797227
0.0107872
0.010777833
0.010769001
0.010760603
0.01075255
0.010744766
0.010737183
0.010729741
0.010722386
0.01071507
0.010707746
0.010700371
0.010692902
0.0106853
0.010677529
0.010669547
0.010661321
0.010652811
0.010643978
0.010634778
0.010625167
0.010615096
0.010604512
0.01059336
0.010581577
0.010569093
0.010555833
0.010541706
0.01052661
0.010510414
0.010492949
0.010474021
0.010453404
0.010430788
0.01040572
0.010377485
0.010344816
0.010305102
0.010255294
0.010204319
0.010160077
0.010122182
0.010090195
0.010063888
0.010043084
0.010027467
0.010016972
0.010013034
0.010010921
0.010037597
0.010017393
0.010057694
0.048778022
0.029101568
0.017546404
0.015798235
0.013634547
0.013085861
0.012400981
0.012066082
0.011778949
0.011582842
0.011429466
0.011314258
0.011222308
0.011149421
0.01108995
0.011041176
0.011000512
0.010966328
0.010937255
0.010912295
0.01089066
0.010871738
0.010855032
0.010840146
0.010826753
0.01081459
0.010803436
0.010793109
0.010783456
0.010774345
0.010765665
0.010757324
0.010749242
0.01074135
0.010733588
0.010725906
0.010718257
0.010710599
0.010702892
0.010695101
0.010687189
0.010679119
0.010670865
0.010662386
0.010653654
0.010644634
0.01063529
0.010625582
0.010615467
0.0106049
0.01059383
0.010582202
0.010569956
0.010557025
0.010543333
0.010528793
0.010513304
0.010496744
0.010478954
0.01045975
0.010438922
0.010416191
0.010391159
0.010363231
0.010331437
0.010294014
0.010247404
0.010197507
0.010154197
0.010117146
0.010085894
0.010060214
0.010039928
0.010024723
0.010014893
0.010010176
0.010009599
0.010030835
0.010016101
0.010051716
0.04463001
0.028086467
0.017092271
0.015445504
0.01345401
0.012887287
0.012288188
0.01195703
0.011695149
0.011515226
0.01137505
0.011269493
0.011185456
0.011118795
0.011064479
0.011019926
0.010982794
0.010951562
0.010924976
0.010902113
0.010882246
0.010864808
0.01084934
0.010835476
0.010822912
0.010811407
0.010800756
0.010790794
0.010781378
0.010772393
0.010763736
0.010755326
0.010747092
0.010738976
0.010730927
0.010722902
0.010714862
0.010706773
0.010698602
0.010690321
0.010681899
0.010673306
0.010664516
0.010655495
0.010646218
0.010636654
0.010626769
0.010616527
0.010605888
0.010594806
0.010583234
0.010571118
0.010558398
0.010545009
0.010530877
0.010515916
0.010500028
0.010483097
0.010464973
0.010445483
0.010424432
0.010401565
0.010376531
0.010348823
0.010317655
0.010281681
0.0102383
0.010189745
0.010147572
0.010111543
0.01008118
0.010056249
0.010036552
0.010021885
0.010012578
0.010007544
0.010008147
0.010024549
0.010014656
0.010045898
0.040972707
0.027130828
0.016655733
0.015060455
0.013280142
0.012702329
0.012169797
0.011856716
0.011618494
0.011453811
0.011326087
0.011229675
0.011153128
0.01109237
0.011042928
0.011002363
0.010968554
0.010940083
0.010915806
0.010894871
0.010876608
0.010860492
0.010846104
0.010833102
0.010821209
0.010810204
0.0107999
0.010790147
0.010780817
0.010771808
0.010763032
0.010754415
0.010745901
0.010737439
0.010728989
0.010720516
0.010711991
0.010703386
0.010694677
0.010685839
0.010676849
0.010667682
0.010658314
0.010648716
0.010638864
0.010628733
0.01061829
0.010607499
0.010596323
0.010584719
0.010572639
0.01056003
0.010546834
0.010532987
0.010518414
0.010503032
0.010486748
0.010469446
0.01045099
0.010431213
0.010409935
0.010386924
0.01036187
0.010334335
0.010303676
0.010268871
0.010228106
0.010181149
0.010140301
0.010105461
0.010076131
0.010052063
0.010033043
0.010018997
0.010010116
0.010005123
0.0100066
0.010018937
0.010013237
0.010039877
0.037740588
0.026211704
0.016238834
0.014646416
0.013111111
0.012531675
0.012051016
0.011765114
0.011548991
0.011398672
0.011282666
0.01119491
0.011125428
0.011070249
0.011025394
0.01098857
0.010957858
0.010931942
0.010909775
0.010890575
0.010873727
0.010858747
0.010845249
0.010832925
0.010821518
0.010810831
0.010800694
0.010790974
0.010781561
0.010772366
0.010763314
0.010754347
0.010745417
0.010736487
0.010727525
0.010718505
0.010709406
0.010700209
0.010690894
0.010681445
0.010671841
0.010662064
0.010652088
0.010641889
0.010631448
0.010620738
0.010609729
0.010598387
0.010586675
0.01057455
0.010561966
0.01054887
0.010535205
0.010520906
0.010505901
0.010490109
0.010473436
0.010455775
0.010436995
0.010416939
0.010395442
0.01037229
0.010347208
0.010319819
0.010289585
0.010255713
0.010216963
0.01017186
0.010132503
0.010099
0.010070837
0.010047735
0.010029485
0.010016114
0.010007607
0.010002903
0.010004998
0.010014143
0.01001198
0.010034916
0.034876469
0.02530487
0.015843047
0.014268574
0.012944013
0.012375689
0.011942801
0.011682182
0.011486659
0.011349886
0.011244879
0.011165303
0.011102462
0.011052531
0.011011961
0.010978614
0.010950753
0.010927158
0.010906877
0.01088919
0.010873535
0.01085947
0.010846645
0.010834779
0.010823646
0.010813066
0.010802893
0.010793012
0.010783331
0.010773776
0.010764289
0.010754823
0.010745346
0.010735829
0.010726251
0.010716595
0.010706846
0.010696994
0.010687024
0.010676923
0.010666675
0.010656266
0.01064567
0.010634864
0.010623831
0.010612545
0.010600977
0.010589093
0.010576855
0.010564223
0.010551148
0.01053758
0.010523461
0.010508728
0.010493308
0.010477122
0.01046008
0.010442077
0.01042299
0.010402673
0.01038097
0.01035769
0.010332587
0.010305334
0.010275476
0.010242359
0.010205025
0.010162038
0.010124311
0.010092276
0.010065395
0.010043352
0.01002596
0.010013294
0.010005145
0.010000868
0.010003344
0.010010151
0.010010787
0.010030667
0.032331263
0.024385209
0.015467526
0.013924764
0.012774724
0.012233954
0.011844954
0.011607913
0.011431554
0.011307546
0.01121284
0.011140967
0.011084335
0.011039305
0.011002706
0.010972546
0.010947255
0.010925711
0.010907049
0.01089061
0.010875885
0.010862474
0.010850064
0.010838406
0.010827301
0.010816594
0.010806163
0.010795912
0.010785769
0.010775678
0.010765597
0.010755493
0.010745346
0.010735138
0.010724858
0.010714496
0.010704043
0.010693494
0.010682838
0.010672066
0.010661164
0.010650118
0.010638906
0.010627503
0.010615892
0.010604047
0.010591939
0.010579534
0.010566794
0.010553677
0.010540136
0.01052612
0.010511572
0.010496428
0.010480618
0.010464064
0.010446678
0.010428359
0.01040899
0.010388436
0.010366551
0.010343162
0.010318053
0.010290942
0.010261445
0.010229016
0.010192869
0.010151862
0.010115876
0.010085409
0.010059904
0.010039003
0.010022544
0.010010596
0.010002814
0.0099990138
0.01000162
0.010006752
0.010009658
0.010027141
0.030062278
0.023424876
0.015111179
0.013613278
0.012597344
0.012106048
0.011757303
0.011542295
0.011383739
0.011271749
0.011186658
0.011122004
0.011071154
0.011030651
0.010997667
0.010970358
0.01094731
0.010927494
0.010910131
0.010894624
0.010880518
0.010867456
0.010855164
0.010843429
0.010832081
0.010820994
0.010810071
0.010799239
0.010788444
0.010777649
0.01076683
0.010755967
0.01074505
0.010734072
0.010723029
0.010711917
0.010700731
0.010689468
0.010678121
0.010666682
0.010655137
0.010643473
0.010631667
0.010619692
0.010607531
0.010595158
0.010582543
0.010569649
0.01055644
0.010542871
0.010528897
0.010514466
0.010499521
0.010483999
0.010467831
0.01045094
0.010433242
0.010414639
0.010395022
0.010374262
0.010352225
0.010328756
0.010303663
0.010276706
0.010247566
0.010215801
0.010180766
0.010141523
0.010107353
0.010078526
0.010054465
0.010034775
0.010019307
0.010008078
0.010000688
0.009997352
0.0099998356
0.010003689
0.010008429
0.010024167
0.028033054
0.022393638
0.014772212
0.013333367
0.012435177
0.01199158
0.01167973
0.011485336
0.011343298
0.011242589
0.011166461
0.011108529
0.011062985
0.011026583
0.0109968
0.010971945
0.010950745
0.010932271
0.010915825
0.010900876
0.010887025
0.010873964
0.010861459
0.010849336
0.010837461
0.010825736
0.010814092
0.010802478
0.010790862
0.010779224
0.010767552
0.010755841
0.010744089
0.010732296
0.010720462
0.010708587
0.01069667
0.010684707
0.010672691
0.010660612
0.010648458
0.010636215
0.010623855
0.01061135
0.010598682
0.010585824
0.010572743
0.010559404
0.010545768
0.010531789
0.010517422
0.010502615
0.010487311
0.01047145
0.010454962
0.010437773
0.010419801
0.010400954
0.010381126
0.010360199
0.010338049
0.010314533
0.010289483
0.010262696
0.010233913
0.010202786
0.010168812
0.010131216
0.010098904
0.010071754
0.010049175
0.010030747
0.010016311
0.010005796
0.0099988349
0.0099959148
0.0099980682
0.010000984
0.010006952
0.010021511
0.026212953
0.021259296
0.014447606
0.013083046
0.012290168
0.011890202
0.011612171
0.011437058
0.011310317
0.0112202
0.01115235
0.011100583
0.011059805
0.011027003
0.010999929
0.010977045
0.010957221
0.010939625
0.010923646
0.010908823
0.010894817
0.010881375
0.010868309
0.010855484
0.010842803
0.0108302
0.010817632
0.010805072
0.010792503
0.010779923
0.010767329
0.010754726
0.010742117
0.010729505
0.010716894
0.010704282
0.010691669
0.010679048
0.01066641
0.010653744
0.010641035
0.010628268
0.010615409
0.010602429
0.010589309
0.01057602
0.010562526
0.010548793
0.010534778
0.010520437
0.010505723
0.010490586
0.010474969
0.010458811
0.010442047
0.010424603
0.010406402
0.010387354
0.01036736
0.010346311
0.01032409
0.010300568
0.010275597
0.010249
0.010220569
0.010190042
0.010157069
0.010121138
0.01009069
0.010065215
0.010044124
0.010026985
0.0100136
0.0100038
0.009997305
0.0099947459
0.0099964382
0.00999859
0.010005367
0.010019061
0.024577171
0.019988991
0.014132081
0.012860544
0.012161617
0.011801694
0.011554632
0.011397477
0.01128493
0.011204652
0.011144335
0.01109809
0.011061444
0.011031635
0.011006671
0.010985176
0.010966161
0.010948901
0.010932875
0.010917702
0.010903108
0.010888896
0.010874927
0.01086111
0.010847383
0.010833709
0.010820068
0.010806453
0.010792862
0.010779299
0.010765772
0.010752287
0.010738849
0.010725462
0.010712126
0.01069884
0.010685596
0.010672388
0.010659201
0.01064602
0.010632829
0.010619607
0.010606314
0.010592925
0.010579417
0.010565758
0.010551911
0.010537839
0.0105235
0.01050885
0.010493841
0.010478423
0.01046254
0.010446134
0.010429141
0.01041149
0.010393107
0.010373907
0.010353797
0.010332674
0.010310433
0.010286954
0.010262102
0.010235726
0.010207647
0.010177661
0.010145521
0.010111474
0.010082865
0.010059028
0.010039394
0.010023534
0.010011196
0.010002115
0.0099961123
0.0099938394
0.009995074
0.0099968352
0.010003914
0.010016669
0.023107293
0.018769113
0.013815613
0.012664539
0.012049
0.011725702
0.011507135
0.011366755
0.011267234
0.011195939
0.011142291
0.011100781
0.011067487
0.011039922
0.011016341
0.010995542
0.01097668
0.010959152
0.010942534
0.010926526
0.010910922
0.010895586
0.010880427
0.010865392
0.010850452
0.010835591
0.01082081
0.010806111
0.010791501
0.010776988
0.010762579
0.010748279
0.010734092
0.010720015
0.010706046
0.010692177
0.010678397
0.010664694
0.010651048
0.010637439
0.010623851
0.010610252
0.010596602
0.010582877
0.01056905
0.010555086
0.010540948
0.010526598
0.010511993
0.010497089
0.010481839
0.010466192
0.010450096
0.010433493
0.010416321
0.010398514
0.01038
0.010360699
0.010340526
0.010319384
0.010297176
0.010273794
0.010249114
0.010223002
0.010195301
0.010165836
0.0101344
0.010102394
0.010075572
0.010053308
0.010035063
0.010020427
0.010009097
0.010000735
0.0099952399
0.0099931598
0.0099939316
0.0099954749
0.010002461
0.010014211
0.021786047
0.017731852
0.013506895
0.012494217
0.011952119
0.011662183
0.011469461
0.011344999
0.011257181
0.011193808
0.011145769
0.011108009
0.011077113
0.011050886
0.011027838
0.011006958
0.010987552
0.010969141
0.010951404
0.010934125
0.010917166
0.010900444
0.010883909
0.010867539
0.010851327
0.010835273
0.010819382
0.010803661
0.010788117
0.010772755
0.010757576
0.010742581
0.010727764
0.01071312
0.010698636
0.0106843
0.010670096
0.010656003
0.010641998
0.010628058
0.010614162
0.010600272
0.010586345
0.010572359
0.010558284
0.010544083
0.010529719
0.010515152
0.01050034
0.010485239
0.010469803
0.010453983
0.010437726
0.010420979
0.010403681
0.01038577
0.010367177
0.010347831
0.010327648
0.010306543
0.010284426
0.010261197
0.010236748
0.010210956
0.010183686
0.010154784
0.010124075
0.010094039
0.010068931
0.010048154
0.010031206
0.010017697
0.010007295
0.0099996291
0.0099946278
0.0099926695
0.0099930574
0.0099944796
0.010000864
0.010011539
0.020594477
0.016853878
0.013234008
0.012346742
0.011869501
0.011610626
0.011441872
0.011331845
0.011254224
0.011197465
0.011153754
0.011118554
0.011088935
0.011063025
0.011039602
0.011017851
0.010997235
0.010977401
0.010958127
0.010939274
0.010920759
0.010902538
0.01088459
0.01086691
0.010849497
0.010832354
0.010815484
0.010798889
0.010782567
0.010766516
0.010750727
0.010735193
0.010719899
0.01070483
0.010689969
0.010675295
0.010660786
0.010646416
0.010632156
0.010617984
0.010603872
0.010589774
0.010575649
0.010561478
0.010547225
0.010532855
0.010518329
0.010503607
0.010488647
0.010473407
0.010457841
0.010441901
0.010425538
0.0104087
0.010391329
0.010373368
0.010354752
0.010335414
0.010315278
0.010294266
0.010272297
0.01024928
0.010225119
0.010199705
0.01017292
0.01014463
0.010114687
0.010086523
0.010063035
0.010043652
0.010027898
0.010015402
0.010005815
0.0099987782
0.0099942382
0.0099923729
0.0099923639
0.009993387
0.0099990196
0.010008349
0.019513807
0.016087492
0.012992777
0.012216363
0.011799795
0.011571347
0.011423862
0.011326497
0.011257226
0.011205459
0.011164541
0.011130525
0.01110096
0.01107433
0.011049672
0.011026368
0.011004032
0.010982424
0.0109614
0.010940877
0.010920805
0.01090116
0.01088193
0.010863109
0.010844689
0.010826667
0.010809032
0.010791776
0.010774885
0.010758343
0.010742134
0.010726237
0.01071063
0.010695291
0.010680193
0.010665312
0.010650619
0.010636082
0.010621672
0.010607365
0.010593124
0.010578897
0.010564652
0.010550368
0.010536007
0.010521533
0.010506907
0.01049209
0.010477042
0.010461719
0.010446078
0.010430073
0.010413658
0.010396782
0.010379393
0.010361436
0.01034285
0.010323575
0.010303542
0.010282678
0.010260912
0.010238163
0.010214345
0.010189364
0.010163116
0.010135486
0.01010635
0.010079926
0.010057945
0.010039854
0.010025198
0.010013608
0.010004727
0.0099982282
0.0099940711
0.0099922504
0.009991893
0.0099925747
0.0099973127
0.010004774
0.018532057
0.015404718
0.012782663
0.012103716
0.0117443
0.011543516
0.011414265
0.011327254
0.011264102
0.011215393
0.011175565
0.011141308
0.011110655
0.011082428
0.011055905
0.011030643
0.011006372
0.010982931
0.010960221
0.01093818
0.01091677
0.010895962
0.010875731
0.010856058
0.010836921
0.010818298
0.010800165
0.010782497
0.010765268
0.01074845
0.010732016
0.010715936
0.010700181
0.01068472
0.010669523
0.010654559
0.010639794
0.010625195
0.010610733
0.01059638
0.010582088
0.010567808
0.010553518
0.01053919
0.010524787
0.010510272
0.010495608
0.010480754
0.010465673
0.010450323
0.010434663
0.010418648
0.010402234
0.010385375
0.010368021
0.01035012
0.010331619
0.01031246
0.010292582
0.01027192
0.010250409
0.010227979
0.010204554
0.010180053
0.010154385
0.010127454
0.010099155
0.010074303
0.010053684
0.010036765
0.010023105
0.010012331
0.010004081
0.0099980647
0.0099942249
0.0099924167
0.0099918504
0.0099924395
0.0099964163
0.010002444
0.017641377
0.014770265
0.012601944
0.012010818
0.011701484
0.011524928
0.011410343
0.011330904
0.011271402
0.011223757
0.011183433
0.011147767
0.011115236
0.011084944
0.011056359
0.01102915
0.011003115
0.010978118
0.010954069
0.010930898
0.010908548
0.010886972
0.010866123
0.01084596
0.010826441
0.010807526
0.010789175
0.01077135
0.010754013
0.010737127
0.010720654
0.01070456
0.010688808
0.010673363
0.010658191
0.010643257
0.010628524
0.010613959
0.010599535
0.010585215
0.010570945
0.010556686
0.01054242
0.010528114
0.010513731
0.010499236
0.010484591
0.010469759
0.010454702
0.01043938
0.010423754
0.010407783
0.010391425
0.010374635
0.010357368
0.010339577
0.010321212
0.010302221
0.010282548
0.010262137
0.010240929
0.010218862
0.010195872
0.010171887
0.010146832
0.010120625
0.010093177
0.010069696
0.010050263
0.010034365
0.01002157
0.010011503
0.010003809
0.0099982243
0.0099946555
0.0099928596
0.0099921817
0.0099927456
0.009996079
0.010000877
0.016842433
0.014220995
0.012449365
0.0119351
0.011668328
0.0115116
0.011407645
0.011332781
0.011274578
0.011226343
0.011184455
0.011146817
0.011112243
0.01108002
0.01104971
0.011021026
0.010993766
0.010967784
0.010942963
0.010919204
0.010896423
0.010874545
0.010853501
0.010833228
0.010813667
0.010794762
0.010776462
0.010758719
0.010741486
0.010724719
0.010708376
0.010692417
0.010676802
0.010661495
0.010646458
0.010631654
0.010617045
0.010602602
0.010588296
0.010574079
0.010559898
0.01054573
0.010531553
0.01051733
0.010503028
0.010488611
0.010474043
0.010459288
0.01044431
0.010429071
0.010413534
0.010397661
0.01038141
0.010364742
0.010347614
0.010329983
0.010311804
0.010293028
0.010273608
0.01025349
0.010232625
0.010210959
0.010188434
0.010164991
0.010140564
0.010115087
0.010088486
0.010066142
0.010047694
0.010032641
0.010020561
0.010011075
0.01000384
0.0099986135
0.0099952581
0.0099934797
0.0099927702
0.0099933397
0.0099961482
0.0099999583
0.016138716
0.013770446
0.012322964
0.011872815
0.01163969
0.011497691
0.011400387
0.011327555
0.011269093
0.011219546
0.011175995
0.011136721
0.011100711
0.011067313
0.011036093
0.011006742
0.010979026
0.010952762
0.010927802
0.010904018
0.010881303
0.010859558
0.010838697
0.010818643
0.010799326
0.01078068
0.010762649
0.010745176
0.010728213
0.010711711
0.010695627
0.010679919
0.010664546
0.01064947
0.010634654
0.010620059
0.01060565
0.010591402
0.010577276
0.010563218
0.010549189
0.010535174
0.010521143
0.010507061
0.010492895
0.01047861
0.010464173
0.010449549
0.010434703
0.0104196
0.010404204
0.010388479
0.010372388
0.010355892
0.010338953
0.01032153
0.010303582
0.010285067
0.010265939
0.010246153
0.010225663
0.010204423
0.010182384
0.010159492
0.010135695
0.010110933
0.010085146
0.010063676
0.010045983
0.010031577
0.010020037
0.010010989
0.010004102
0.0099991416
0.0099959291
0.0099941538
0.0099934362
0.0099939807
0.0099963163
0.0099993103
0.015471557
0.013378644
0.012209879
0.011814315
0.011605796
0.011474382
0.011381331
0.011309654
0.011250923
0.01120055
0.011156204
0.011116386
0.01108009
0.011046635
0.011015542
0.010986455
0.010959102
0.01093327
0.010908785
0.010885506
0.010863312
0.010842098
0.010821767
0.010802235
0.010783426
0.010765273
0.010747715
0.010730697
0.010714167
0.010698078
0.010682386
0.010667051
0.010652032
0.010637293
0.010622794
0.010608499
0.010594381
0.01058041
0.010566538
0.010552714
0.010538917
0.010525128
0.010511315
0.010497444
0.010483483
0.0104694
0.010455161
0.010440733
0.010426085
0.010411181
0.010395989
0.010380474
0.010364601
0.010348334
0.010331638
0.010314476
0.010296808
0.010278597
0.010259802
0.010240381
0.010220295
0.010199502
0.01017796
0.010155624
0.010132448
0.010108386
0.010083386
0.010062472
0.010045258
0.010031258
0.010020051
0.010011266
0.010004584
0.0099997699
0.0099966105
0.0099948036
0.0099940825
0.0099946256
0.0099966408
0.0099991183
0.014468309
0.012803546
0.01196461
0.011659241
0.011495627
0.011388665
0.011310691
0.011249311
0.011198339
0.01115435
0.011115176
0.011079561
0.011046749
0.01101622
0.010987602
0.010960618
0.010935052
0.010910734
0.010887524
0.010865307
0.010844025
0.010823679
0.010804169
0.01078541
0.010767325
0.010749848
0.010732921
0.010716491
0.010700508
0.010684929
0.010669713
0.01065482
0.010640216
0.010625864
0.010611729
0.010597782
0.010583999
0.010570343
0.010556757
0.010543213
0.010529695
0.010516175
0.010502623
0.010489007
0.010475296
0.010461458
0.010447463
0.010433279
0.010418874
0.010404217
0.010389275
0.010374015
0.010358405
0.01034241
0.010325998
0.010309132
0.010291776
0.010273896
0.010255452
0.010236406
0.010216723
0.010196363
0.010175288
0.010153458
0.010130833
0.010107371
0.010083027
0.01006239
0.010045409
0.010031596
0.010020527
0.010011832
0.0100052
0.010000381
0.0099971397
0.0099952101
0.0099944105
0.0099947965
0.0099963029
0.0099982264
0.014024915
0.012602312
0.011842379
0.011567192
0.011418234
0.011320956
0.011249705
0.011193291
0.011146067
0.011105006
0.011068376
0.011035135
0.011004607
0.010976319
0.010949927
0.010925165
0.010901824
0.010879731
0.01085874
0.010838726
0.010819547
0.010801028
0.010783116
0.01076576
0.010748915
0.010732539
0.010716591
0.010701036
0.010685838
0.010670965
0.010656385
0.010642068
0.010627985
0.010614107
0.010600404
0.010586878
0.010573507
0.010560242
0.010547038
0.010533876
0.010520737
0.010507588
0.0104944
0.010481142
0.010467785
0.010454298
0.010440651
0.010426813
0.010412755
0.010398446
0.010383854
0.010368949
0.010353698
0.01033807
0.010322032
0.010305549
0.010288588
0.010271115
0.010253092
0.010234484
0.010215255
0.010195368
0.010174788
0.010153476
0.010131393
0.0101085
0.010084756
0.01006385
0.010046669
0.010032702
0.010021511
0.010012713
0.01000599
0.01000107
0.0099977039
0.0099956569
0.0099947713
0.0099949864
0.0099961404
0.0099978478
0.013620016
0.012404599
0.011685727
0.011443446
0.011313453
0.011230693
0.011170256
0.011122453
0.011082204
0.011046941
0.011015212
0.010986159
0.010959232
0.010934053
0.010910351
0.010887922
0.010866605
0.010846274
0.010826824
0.010808168
0.010790229
0.010772942
0.010756256
0.01074012
0.010724491
0.010709324
0.010694579
0.010680218
0.010666205
0.010652504
0.010639082
0.010625908
0.010612948
0.010600169
0.010587546
0.010575033
0.010562587
0.010550167
0.010537753
0.010525339
0.010512899
0.010500408
0.010487843
0.010475177
0.010462384
0.01044944
0.010436316
0.010422986
0.010409422
0.010395597
0.010381481
0.010367047
0.010352264
0.010337101
0.010321529
0.010305516
0.010289029
0.010272034
0.010254498
0.010236386
0.010217662
0.010198292
0.010178241
0.010157472
0.010135947
0.010113628
0.010090475
0.010068723
0.010050817
0.010036229
0.010024501
0.01001524
0.010008111
0.010002822
0.0099991196
0.0099967797
0.0099956327
0.0099955405
0.0099963346
0.0099978344
57.161896
104.15832
60.926831
40.821075
28.106066
19.540336
13.77826
9.8529122
7.1093169
5.1496293
3.727176
2.695543
1.9408695
1.3949474
0.99332363
0.70409698
0.49411854
0.34458855
0.23943827
0.16594274
0.11500087
0.080060343
0.056378947
0.040528175
0.030063043
0.023245629
0.018867416
0.016091015
0.014350915
0.013270093
0.012601642
0.012186849
0.011925729
0.011756545
0.011641957
0.011559837
0.011497317
0.011447018
0.011404724
0.011368123
0.011335759
0.011306745
0.011280625
0.011256859
0.011235091
0.011215029
0.011196282
0.011177681
0.011152449
0.011114256
0.011064343
0.011007695
0.010948882
0.010891419
0.010837732
0.010791022
0.010750686
0.010715337
0.010682924
0.010652809
0.010621068
0.010589194