/*--------------------------------*- C++ -*----------------------------------*\
  =========                 |
  \\      /  F ield         | OpenFOAM: The Open Source CFD Toolbox
   \\    /   O peration     | Website:  https://openfoam.org
    \\  /    A nd           | Version:  6
     \\/     M anipulation  |
\*---------------------------------------------------------------------------*/
FoamFile
{
    version     2.0;
    format      ascii;
    class       volScalarField;
    location    "400";
    object      nut;
}
// * * * * * * * * * * * * * * * * * * * * * * * * * * * * * * * * * * * * * //

dimensions      [0 2 -1 0 0 0 0];

internalField   nonuniform List<scalar> 
16000
(
4.6434961e-06
2.092063e-05
2.3659106e-05
3.284317e-05
2.7953912e-05
3.5690393e-05
3.4472068e-05
3.8937085e-05
3.9525679e-05
3.980086e-05
4.0120085e-05
3.8958953e-05
3.898385e-05
3.7997773e-05
3.7991099e-05
3.756594e-05
3.7745228e-05
3.7815384e-05
3.8239869e-05
3.8706469e-05
3.9413144e-05
4.0238479e-05
4.1266612e-05
4.2461089e-05
4.3865752e-05
4.5483768e-05
4.7350621e-05
4.9492201e-05
5.1951084e-05
5.4773663e-05
5.8020996e-05
6.1766443e-05
6.610083e-05
7.1134792e-05
7.7002027e-05
8.386788e-05
9.193624e-05
0.00010146038
0.00011275297
0.00012619508
0.00014225517
0.0001615142
0.00018468846
0.0002126592
0.00024651103
0.00028757816
0.00033749442
0.00039825403
0.00047227909
0.00056249092
0.00067238286
0.00080609796
0.00096855638
0.0010394602
0.0010404745
0.0010406091
0.0010401368
0.0010393423
0.001038383
0.001037215
0.0010357747
0.0010340166
0.0010319001
0.0010293807
0.0010264654
0.0010232904
0.0010200936
0.0010171501
0.0010145313
0.0010122811
0.0010102635
0.0010086977
0.0010071008
0.0010061827
0.0010049111
0.0010055071
0.0010043938
0.0010082358
0.0010036865
0.0010071546
3.8893404e-06
2.0696922e-05
2.1652623e-05
3.0015015e-05
2.5770809e-05
3.220021e-05
3.1716198e-05
3.489663e-05
3.6130443e-05
3.5614043e-05
3.6323377e-05
3.4823616e-05
3.5010465e-05
3.392562e-05
3.3998303e-05
3.3560674e-05
3.3746073e-05
3.3790352e-05
3.4176785e-05
3.4588813e-05
3.5221993e-05
3.5958756e-05
3.6877883e-05
3.79453e-05
3.9200222e-05
4.0645508e-05
4.2312356e-05
4.4224014e-05
4.6418021e-05
4.8935642e-05
5.1830331e-05
5.5166196e-05
5.9023492e-05
6.3500006e-05
6.8716029e-05
7.4818574e-05
8.1986356e-05
9.0438957e-05
0.00010044948
0.00011235648
0.00012657114
0.00014360005
0.00016406887
0.00018874715
0.00021857885
0.00025472414
0.00029860352
0.00035195025
0.0004168725
0.00049592067
0.00059216089
0.00070925345
0.00085156184
0.0010242931
0.00103936
0.0010396309
0.0010392151
0.0010384339
0.0010374969
0.0010364407
0.0010351972
0.0010336149
0.001031658
0.0010292737
0.0010264487
0.0010233024
0.0010200853
0.0010170979
0.0010144568
0.0010121663
0.0010101521
0.0010085203
0.0010070019
0.0010060543
0.0010047943
0.0010050642
0.0010040748
0.001007592
0.0010035297
0.0010069882
3.3333471e-06
2.0477168e-05
2.0023865e-05
2.7592008e-05
2.4022998e-05
2.9207663e-05
2.9614671e-05
3.1289665e-05
3.3228227e-05
3.1738248e-05
3.2823146e-05
3.0955549e-05
3.1304804e-05
3.0184517e-05
3.0326753e-05
2.9893256e-05
3.0086153e-05
3.0120066e-05
3.0477714e-05
3.0851713e-05
3.1426892e-05
3.2094954e-05
3.2926632e-05
3.389229e-05
3.5026019e-05
3.6331437e-05
3.7835865e-05
3.9560722e-05
4.1539377e-05
4.3809013e-05
4.6417418e-05
4.9422358e-05
5.2895333e-05
5.692302e-05
6.1613032e-05
6.7097391e-05
7.3538348e-05
8.1132752e-05
9.0120377e-05
0.00010080066
0.000113543
0.00012879809
0.00014711863
0.00016918604
0.00019583475
0.000228087
0.00026719379
0.00031467984
0.00037239881
0.00044259554
0.00052797479
0.0006317781
0.00075787678
0.00091090946
0.0010382409
0.0010386632
0.0010383107
0.0010375371
0.0010365972
0.001035553
0.0010343776
0.0010330075
0.0010312427
0.0010290262
0.0010263224
0.0010232327
0.0010200111
0.0010169942
0.0010143344
0.0010120211
0.0010100075
0.0010083435
0.0010068641
0.00100589
0.0010046854
0.0010047461
0.0010038471
0.0010069802
0.0010033134
0.001006407
2.9622632e-06
2.019654e-05
1.8626023e-05
2.5323139e-05
2.2385426e-05
2.6470514e-05
2.7591148e-05
2.8046642e-05
3.042141e-05
2.825734e-05
2.9525045e-05
2.7500261e-05
2.7931346e-05
2.6851397e-05
2.701696e-05
2.6618117e-05
2.6804212e-05
2.6842146e-05
2.7171397e-05
2.751815e-05
2.8043235e-05
2.8654831e-05
2.9412191e-05
3.0292042e-05
3.1322919e-05
3.2509783e-05
3.3876442e-05
3.5443024e-05
3.7239462e-05
3.9299666e-05
4.166677e-05
4.439312e-05
4.7543393e-05
5.1196505e-05
5.5449348e-05
6.0420616e-05
6.6256818e-05
7.3138675e-05
8.1285334e-05
9.0962871e-05
0.00010250293
0.00011631546
0.00013289842
0.00015286309
0.00017696035
0.00020610795
0.00024142736
0.0002842857
0.0003363443
0.00039961669
0.00047653374
0.00057001779
0.00068356897
0.00082138353
0.00098850785
0.0010376987
0.0010374202
0.0010366542
0.0010357055
0.0010346576
0.0010334915
0.0010321718
0.0010306204
0.0010286094
0.0010260637
0.0010230627
0.0010198578
0.0010168255
0.001014157
0.0010118338
0.0010098228
0.0010081415
0.0010066957
0.0010056602
0.00100457
0.001004507
0.0010036468
0.0010062967
0.0010031197
0.0010059996
2.6538402e-06
1.9821245e-05
1.7470415e-05
2.3223265e-05
2.0884691e-05
2.3971237e-05
2.5699054e-05
2.5100252e-05
2.7727414e-05
2.507943e-05
2.6401372e-05
2.4394729e-05
2.4837413e-05
2.3842601e-05
2.4005712e-05
2.3658337e-05
2.3831911e-05
2.3882251e-05
2.4186224e-05
2.4513434e-05
2.4996202e-05
2.5561088e-05
2.6255491e-05
2.7062649e-05
2.80059e-05
2.9091609e-05
3.0340583e-05
3.1771887e-05
3.3412612e-05
3.5293964e-05
3.7455205e-05
3.99442e-05
4.282004e-05
4.6154736e-05
5.0036792e-05
5.4574975e-05
5.9902361e-05
6.6182878e-05
7.3619414e-05
8.2457391e-05
9.2994689e-05
0.00010560428
0.00012074376
0.00013896854
0.00016096102
0.00018755728
0.00021977601
0.00025885985
0.00030631924
0.00036398548
0.00043407364
0.00051925295
0.00062273126
0.00074835866
0.00090077582
0.0010367302
0.0010365403
0.0010357836
0.0010348225
0.0010337659
0.0010325978
0.0010312914
0.0010297986
0.0010280131
0.0010256656
0.0010227896
0.0010196249
0.0010165914
0.0010139252
0.001011604
0.0010096016
0.001007917
0.0010064987
0.0010054276
0.0010044302
0.0010042475
0.0010034698
0.001005653
0.0010029623
0.0010054196
2.3961476e-06
1.8624779e-05
1.6494943e-05
2.1249954e-05
1.9503962e-05
2.1657026e-05
2.3900539e-05
2.2399521e-05
2.5127331e-05
2.2223761e-05
2.3491879e-05
2.1613128e-05
2.2020029e-05
2.114021e-05
2.1285502e-05
2.0999149e-05
2.115851e-05
2.1226271e-05
2.1509136e-05
2.1822733e-05
2.2270738e-05
2.2797527e-05
2.3439573e-05
2.4186048e-05
2.505588e-05
2.6056641e-05
2.7206699e-05
2.8524237e-05
3.0034059e-05
3.1765142e-05
3.375359e-05
3.6043583e-05
3.868963e-05
4.175819e-05
4.533091e-05
4.9508056e-05
5.4412873e-05
6.0196182e-05
6.7044023e-05
7.5186186e-05
8.4897809e-05
9.6520169e-05
0.00011047528
0.00012727771
0.00014755365
0.0001720739
0.00020177627
0.00023780363
0.0002815468
0.00033469164
0.00039928024
0.0004777779
0.00057315474
0.00068898236
0.00082956901
0.0010001104
0.0010356662
0.0010349229
0.0010339468
0.0010328781
0.0010317029
0.0010303987
0.0010289288
0.0010272239
0.0010251194
0.0010224096
0.0010193117
0.0010162917
0.0010136396
0.0010113317
0.0010093443
0.0010076676
0.0010062743
0.0010051862
0.0010042639
0.0010039642
0.0010033016
0.0010051069
0.001002808
0.0010049899
2.1704347e-06
1.6177581e-05
1.5534403e-05
1.9379484e-05
1.8251509e-05
1.9509735e-05
2.2196245e-05
1.9921558e-05
2.2632489e-05
1.9686246e-05
2.082534e-05
1.9129404e-05
1.9471809e-05
1.8718979e-05
1.8838238e-05
1.8613939e-05
1.8759042e-05
1.8844961e-05
1.9110162e-05
1.9413393e-05
1.9832488e-05
2.0327419e-05
2.092548e-05
2.1620719e-05
2.2428568e-05
2.3357461e-05
2.4423861e-05
2.5645163e-05
2.7044302e-05
2.8648432e-05
3.0491037e-05
3.2613213e-05
3.5065741e-05
3.7910457e-05
4.1223354e-05
4.5097874e-05
4.9648794e-05
5.5016862e-05
6.1374866e-05
6.8937485e-05
7.7962661e-05
8.8767719e-05
0.00010174396
0.00011737304
0.0001362371
0.00015905301
0.00018669454
0.00022022429
0.0002609371
0.00031040238
0.00037052279
0.00044359896
0.00053240769
0.00064029578
0.00077130158
0.00093030844
0.0010347931
0.0010340695
0.0010330765
0.0010319933
0.0010308079
0.0010295004
0.0010280407
0.0010263785
0.0010244152
0.0010219191
0.0010189185
0.001015927
0.001013301
0.0010110176
0.0010090529
0.0010073939
0.0010060247
0.0010049364
0.0010040731
0.0010036645
0.0010031314
0.0010045881
0.0010026563
0.0010045456
1.9589797e-06
1.5692067e-05
1.4413643e-05
1.7607359e-05
1.7109334e-05
1.7520778e-05
2.0546295e-05
1.7719136e-05
2.0229114e-05
1.7430503e-05
1.8392916e-05
1.6911553e-05
1.7175869e-05
1.6551016e-05
1.6642638e-05
1.6477268e-05
1.6610302e-05
1.6713666e-05
1.6965051e-05
1.7260423e-05
1.7656104e-05
1.8124707e-05
1.8686366e-05
1.9338864e-05
2.0094953e-05
2.0963711e-05
2.1960086e-05
2.3100769e-05
2.4407213e-05
2.5905038e-05
2.7625649e-05
2.9607528e-05
3.1898443e-05
3.4556456e-05
3.7652913e-05
4.1275691e-05
4.5532737e-05
5.0556406e-05
5.6509395e-05
6.3593632e-05
7.2051999e-05
8.2183703e-05
9.4356924e-05
0.00010902335
0.00012673177
0.00014815492
0.00017411507
0.00020561027
0.00024385782
0.00029033306
0.00034682564
0.00041550203
0.00049898088
0.0006004241
0.00072364963
0.00087328032
0.0010339147
0.0010332211
0.0010322096
0.0010311103
0.0010299124
0.0010285982
0.0010271419
0.0010255029
0.0010236097
0.0010213156
0.0010184476
0.0010154994
0.0010129118
0.0010106636
0.00100873
0.0010070972
0.0010057533
0.0010046775
0.0010038616
0.0010033793
0.0010029547
0.0010040832
0.0010024922
0.0010041424
1.7785226e-06
1.5160395e-05
1.3416036e-05
1.5941008e-05
1.6045644e-05
1.5662902e-05
1.8893382e-05
1.5745878e-05
1.7947344e-05
1.5408527e-05
1.6174659e-05
1.4920612e-05
1.5107087e-05
1.4604399e-05
1.4672355e-05
1.4561041e-05
1.4686065e-05
1.4805788e-05
1.504754e-05
1.533735e-05
1.5714704e-05
1.6161986e-05
1.6693975e-05
1.7311251e-05
1.8024593e-05
1.8843429e-05
1.9781634e-05
2.0855227e-05
2.2084494e-05
2.3493802e-05
2.5112855e-05
2.6977995e-05
2.9134514e-05
3.1637413e-05
3.455428e-05
3.7968406e-05
4.1982253e-05
4.6721568e-05
5.2340172e-05
5.9030558e-05
6.7023359e-05
7.6602879e-05
8.811799e-05
0.00010199779
0.00011876303
0.00013905151
0.0001636436
0.00019348539
0.00022973163
0.00027378176
0.00032733383
0.00039244522
0.00047160549
0.00056782487
0.00068474239
0.00082676709
0.00099923141
0.0010323755
0.0010313446
0.0010302279
0.0010290161
0.0010276932
0.0010262365
0.0010246121
0.0010227648
0.0010205953
0.0010179029
0.0010150127
0.0010124753
0.0010102727
0.0010083788
0.0010067799
0.0010054641
0.0010044109
0.0010036323
0.001003107
0.0010027706
0.0010035985
0.0010023242
0.0010037357
1.6210984e-06
1.4580182e-05
1.2470744e-05
1.4343026e-05
1.5045898e-05
1.3980552e-05
1.721504e-05
1.3965743e-05
1.5810773e-05
1.358871e-05
1.416222e-05
1.3130365e-05
1.3248198e-05
1.2856417e-05
1.290741e-05
1.2844034e-05
1.2965564e-05
1.3100355e-05
1.3336375e-05
1.3622681e-05
1.3986328e-05
1.4416809e-05
1.4925183e-05
1.5513955e-05
1.6192578e-05
1.6970616e-05
1.7861152e-05
1.8879625e-05
2.0045394e-05
2.1381827e-05
2.2917264e-05
2.468627e-05
2.6732165e-05
2.9107489e-05
3.18768e-05
3.5119655e-05
3.8934215e-05
4.3441001e-05
4.8786039e-05
5.5155799e-05
6.2770215e-05
7.1901182e-05
8.2881968e-05
9.6125673e-05
0.00011212874
0.00013150134
0.00015499031
0.00018349981
0.00021813459
0.00026023282
0.00031141867
0.0003736611
0.0004493446
0.00054135541
0.00065318682
0.00078907336
0.00095414477
0.0010315308
0.0010304801
0.0010293452
0.0010281188
0.0010267859
0.0010253266
0.0010237118
0.0010218966
0.0010198049
0.0010172897
0.0010144721
0.0010119962
0.001009849
0.0010080034
0.0010064454
0.0010051619
0.0010041384
0.0010033894
0.0010028476
0.0010025802
0.0010031428
0.0010021516
0.0010033436
1.4842041e-06
1.3917244e-05
1.1591694e-05
1.2807947e-05
1.4090223e-05
1.245652e-05
1.5500393e-05
1.2357048e-05
1.3831955e-05
1.194938e-05
1.2348336e-05
1.1520906e-05
1.1583748e-05
1.1288628e-05
1.1330128e-05
1.130821e-05
1.1430461e-05
1.1579027e-05
1.176442e-05
1.2041281e-05
1.2389351e-05
1.280225e-05
1.3287961e-05
1.3849859e-05
1.4496175e-05
1.5236282e-05
1.6082463e-05
1.7049471e-05
1.8155721e-05
1.9423623e-05
2.0880277e-05
2.2558512e-05
2.4499881e-05
2.6754678e-05
2.9384743e-05
3.24663e-05
3.6093655e-05
4.0383117e-05
4.577584e-05
5.1887854e-05
5.9198712e-05
6.7970334e-05
7.8523641e-05
9.1259913e-05
0.00010665553
0.0001252986
0.00014790999
0.0001753598
0.00020871349
0.00024926026
0.00029856514
0.00035852616
0.00043144322
0.00052010235
0.00062787873
0.00075886575
0.00091802725
0.0010306852
0.0010296151
0.001028462
0.0010272205
0.0010258773
0.0010244142
0.0010228063
0.0010210167
0.0010189872
0.0010166149
0.0010138841
0.0010114801
0.0010093976
0.0010076086
0.0010060978
0.0010048516
0.0010038629
0.0010031385
0.0010026007
0.0010023862
0.0010027277
0.0010019847
0.0010029453
1.3648175e-06
1.315672e-05
1.0767615e-05
1.1332212e-05
1.3144135e-05
1.1071426e-05
1.3773886e-05
1.0897624e-05
1.2017189e-05
1.0469894e-05
1.0721784e-05
1.0074272e-05
1.009791e-05
9.8848386e-06
9.8782433e-06
9.8748736e-06
9.9918684e-06
1.0147937e-05
1.0377933e-05
1.0660775e-05
1.100702e-05
1.1414006e-05
1.1888434e-05
1.2434738e-05
1.3060667e-05
1.3775679e-05
1.4591672e-05
1.5523036e-05
1.65876e-05
1.7807174e-05
1.9208136e-05
2.0821988e-05
2.2689126e-05
2.485833e-05
2.7389543e-05
3.0356593e-05
3.3850978e-05
3.7986962e-05
4.2901344e-05
4.8764133e-05
5.5783415e-05
6.42128e-05
7.4939695e-05
8.727991e-05
0.00010220205
0.00012027634
0.00014220467
0.00016882924
0.00020118552
0.00024052415
0.00028836354
0.00034654572
0.00041730366
0.00050334379
0.00060794741
0.00073509572
0.00088962059
0.0010298378
0.0010287491
0.0010275782
0.001026322
0.0010249683
0.0010235011
0.0010218985
0.0010201298
0.0010181494
0.0010158866
0.0010132567
0.0010109339
0.0010089246
0.0010071995
0.0010057419
0.0010045384
0.0010035878
0.0010028855
0.0010023664
0.001002191
0.0010023616
0.0010018313
0.0010026113
1.2611474e-06
1.2290291e-05
9.9997555e-06
9.9954125e-06
1.2178356e-05
9.8077168e-06
1.209516e-05
9.5705272e-06
1.0371538e-05
9.1346266e-06
9.2713366e-06
8.7764724e-06
8.7092501e-06
8.5434188e-06
8.5757041e-06
8.6168496e-06
8.7512425e-06
8.9267988e-06
9.1650167e-06
9.453444e-06
9.7993418e-06
1.0202469e-05
1.0668829e-05
1.120357e-05
1.1814094e-05
1.250991e-05
1.3302636e-05
1.420634e-05
1.5238381e-05
1.6420106e-05
1.7777485e-05
1.9340819e-05
2.1149712e-05
2.3251827e-05
2.5705738e-05
2.8583439e-05
3.197387e-05
3.5989947e-05
4.0765084e-05
4.6465759e-05
5.3295702e-05
6.1503639e-05
7.139702e-05
8.3347303e-05
9.7809299e-05
0.0001162933
0.00013770777
0.00016371025
0.00019531461
0.00023374194
0.00028047483
0.00033731221
0.00040643545
0.00049048959
0.00059268348
0.00071691203
0.00086790632
0.0010289879
0.0010278824
0.0010266944
0.0010254243
0.0010240608
0.0010225897
0.001020992
0.0010192413
0.0010173001
0.0010151135
0.0010125992
0.0010103655
0.0010084366
0.001006782
0.0010053831
0.0010042275
0.001003317
0.0010026363
0.0010021443
0.0010019955
0.001002044
0.0010016859
0.0010023217
1.1712339e-06
1.1316719e-05
9.28156e-06
8.7846005e-06
1.1159591e-05
8.65401e-06
1.0492704e-05
8.3644305e-06
8.8965079e-06
7.9318623e-06
7.9098773e-06
7.5048547e-06
7.4771339e-06
7.3877002e-06
7.4426381e-06
7.5195454e-06
7.6701431e-06
7.8621653e-06
8.1086216e-06
8.4026931e-06
8.7497715e-06
9.1511265e-06
9.6124218e-06
1.0139342e-05
1.0739001e-05
1.1420942e-05
1.2196593e-05
1.3079761e-05
1.4087398e-05
1.5240477e-05
1.6502201e-05
1.8014973e-05
1.9765475e-05
2.1800263e-05
2.417664e-05
2.6964981e-05
3.0424251e-05
3.4350818e-05
3.9022528e-05
4.4603502e-05
5.1294502e-05
5.9339234e-05
6.9042307e-05
8.0768132e-05
9.4965077e-05
0.00011218132
0.00013307893
0.00015983574
0.00019090188
0.00022867622
0.00027461484
0.00033048494
0.00039842976
0.00048104902
0.00058149806
0.0007036091
0.00085204084
0.0010281352
0.0010270157
0.001025812
0.0010245291
0.001023157
0.0010216828
0.0010200902
0.0010183568
0.0010164512
0.0010143281
0.0010119219
0.0010097834
0.0010079408
0.0010063622
0.0010050267
0.0010039235
0.0010030542
0.0010023962
0.0010019346
0.0010017992
0.0010017635
0.0010015486
0.0010020767
1.0939028e-06
1.024517e-05
8.6056831e-06
7.6870286e-06
1.0055578e-05
7.5990871e-06
8.9933509e-06
7.2683859e-06
7.5874415e-06
6.7333542e-06
6.6929219e-06
6.4207167e-06
6.41348e-06
6.3840818e-06
6.4607556e-06
6.5668084e-06
6.7326913e-06
6.9391073e-06
7.193989e-06
7.4940917e-06
7.8438804e-06
8.2455225e-06
8.7045356e-06
9.2057677e-06
9.7931287e-06
1.0460091e-05
1.1217697e-05
1.2079313e-05
1.306131e-05
1.4183933e-05
1.5471882e-05
1.6955511e-05
1.8672184e-05
2.0667977e-05
2.2999699e-05
2.5737454e-05
2.896779e-05
3.2797381e-05
3.7357449e-05
4.2810175e-05
4.9353907e-05
5.7660626e-05
6.7236343e-05
7.8812889e-05
9.2832506e-05
0.00010983949
0.00013048769
0.00015557838
0.00018777349
0.00022511992
0.00027053635
0.00032576827
0.00039293273
0.00047459835
0.00057388386
0.00069458015
0.00084129908
0.0010196447
0.0010261507
0.001024933
0.0010236391
0.0010222598
0.0010207837
0.0010191969
0.0010174808
0.0010156094
0.0010135458
0.0010112357
0.0010091969
0.0010074447
0.0010059461
0.0010046782
0.001003631
0.0010028034
0.0010021699
0.0010017385
0.001001603
0.001001506
0.0010014102
0.0010018667
1.0286741e-06
9.0884291e-06
7.9648709e-06
6.6914218e-06
8.909133e-06
6.6340263e-06
7.6203678e-06
6.2233254e-06
6.275292e-06
5.6923155e-06
5.6538768e-06
5.4841097e-06
5.4990208e-06
5.5170379e-06
5.6144621e-06
5.7447405e-06
5.9251416e-06
6.1445885e-06
6.4082051e-06
6.7149243e-06
7.0532163e-06
7.4527514e-06
7.9078142e-06
8.4241307e-06
9.0090282e-06
9.6714166e-06
1.0422322e-05
1.1275018e-05
1.2245647e-05
1.335431e-05
1.4625502e-05
1.6089353e-05
1.7783001e-05
1.9752272e-05
2.2053716e-05
2.4757156e-05
2.7948785e-05
3.1734664e-05
3.6245356e-05
4.1642939e-05
4.8126246e-05
5.5933143e-05
6.5358297e-05
7.676199e-05
9.1330287e-05
0.00010822202
0.00012873136
0.00015365804
0.0001839633
0.00022288679
0.0002680171
0.00032289661
0.00038962698
0.00047075826
0.00056938742
0.00068928248
0.00083503092
0.0010122119
0.00102529
0.0010240604
0.0010227575
0.0010213729
0.0010198966
0.0010183166
0.0010166176
0.0010147792
0.0010127723
0.001010552
0.0010086155
0.0010069559
0.0010055398
0.0010043426
0.001003354
0.0010025681
0.0010019617
0.0010015584
0.0010014116
0.001001273
0.0010012626
0.0010016781
9.7606496e-07
7.8606341e-06
7.3449648e-06
5.7875899e-06
7.7300144e-06
5.750356e-06
6.3937861e-06
5.1937786e-06
5.1967711e-06
4.7982424e-06
4.7701678e-06
4.6791762e-06
4.7170929e-06
4.773008e-06
4.890133e-06
5.041067e-06
5.2353736e-06
5.4670067e-06
5.7253864e-06
6.0358988e-06
6.3919306e-06
6.7968366e-06
7.2554756e-06
7.7737826e-06
8.3591441e-06
9.020454e-06
9.7687387e-06
1.0617273e-05
1.1581949e-05
1.2682842e-05
1.3944357e-05
1.5396554e-05
1.7076541e-05
1.9030141e-05
2.131395e-05
2.399791e-05
2.7168299e-05
3.0931027e-05
3.5416599e-05
4.078714e-05
4.7242049e-05
5.5017775e-05
6.4411127e-05
7.5783138e-05
8.9568783e-05
0.0001062981
0.00012770424
0.00015258084
0.00018282795
0.00021960809
0.00026684698
0.00032161894
0.0003882125
0.0004691707
0.00056758112
0.0006872053
0.00083262552
0.0010094198
0.0010244369
0.0010231979
0.0010218885
0.001020501
0.0010190264
0.0010174543
0.0010157724
0.001013965
0.0010120117
0.0010098824
0.0010080486
0.0010064819
0.0010051487
0.0010040241
0.0010030956
0.0010023519
0.001001775
0.0010013972
0.0010012322
0.001001062
0.0010011134
0.0010015045
9.3864048e-07
6.5773062e-06
6.7205043e-06
4.9709905e-06
6.5624736e-06
4.9336265e-06
5.4950782e-06
4.322268e-06
4.2902709e-06
4.0335668e-06
4.0226792e-06
3.9922728e-06
4.0533491e-06
4.1402099e-06
4.2759643e-06
4.4450002e-06
4.6403911e-06
4.8806024e-06
5.1601549e-06
5.4802811e-06
5.8441365e-06
6.2555111e-06
6.7194033e-06
7.2418713e-06
7.8303667e-06
8.4936997e-06
9.242916e-06
1.0069978e-05
1.1027086e-05
1.2117903e-05
1.3366573e-05
1.4802916e-05
1.6463835e-05
1.8394977e-05
2.0652841e-05
2.3307355e-05
2.6444731e-05
3.0170725e-05
3.4615804e-05
4.0203893e-05
4.6658518e-05
5.4436072e-05
6.3837849e-05
7.5224821e-05
8.9031498e-05
0.0001057899
0.00012614672
0.0001522227
0.00018252604
0.00021937599
0.00026417998
0.00032168399
0.00038838856
0.00046947689
0.00056803662
0.00068783694
0.0008334719
0.0010105387
0.0010235958
0.0010223503
0.0010210372
0.0010196494
0.001018179
0.0010166166
0.0010149519
0.0010131724
0.0010112635
0.0010092377
0.0010075056
0.0010060299
0.0010047783
0.0010037259
0.0010028576
0.0010021566
0.0010016112
0.0010012551
0.0010010724
0.0010008917
0.0010009759
0.0010013373
9.1999206e-07
5.4786084e-06
6.0791416e-06
4.5372592e-06
6.0449662e-06
4.2119797e-06
4.1254161e-06
3.5717154e-06
3.5380015e-06
3.3837844e-06
3.3951931e-06
3.4122848e-06
3.4959231e-06
3.6086445e-06
3.7525726e-06
3.9342471e-06
4.1524541e-06
4.4058482e-06
4.696375e-06
5.0260986e-06
5.3984004e-06
5.8173562e-06
6.2880646e-06
6.8166291e-06
7.3999068e-06
8.0644274e-06
8.8132436e-06
9.6593448e-06
1.0618662e-05
1.1710808e-05
1.2960013e-05
1.4396264e-05
1.605672e-05
1.798739e-05
2.0245321e-05
2.2901145e-05
2.6041815e-05
2.9774195e-05
3.4230835e-05
3.9574513e-05
4.5999801e-05
5.4137359e-05
6.3580139e-05
7.5020687e-05
8.8894358e-05
0.00010573598
0.00012619494
0.0001510606
0.00018290413
0.00021993525
0.00026495381
0.00031968519
0.00038983936
0.00047129973
0.00057030308
0.00069063809
0.00083692502
0.0010147967
0.0010227722
0.0010215231
0.0010202094
0.0010188246
0.0010173613
0.0010158114
0.0010141654
0.0010124129
0.0010105414
0.0010086282
0.0010069952
0.0010056071
0.0010044335
0.0010034506
0.0010026405
0.0010019827
0.0010014698
0.0010011304
0.00100093
0.0010007483
0.001000843
0.0010011696
9.2030989e-07
5.6548084e-06
5.4176386e-06
5.1008054e-06
5.3458916e-06
3.263123e-06
3.3254851e-06
2.9390608e-06
2.9162004e-06
2.8410622e-06
2.8755645e-06
2.9303987e-06
3.0351358e-06
3.1601716e-06
3.3264628e-06
3.5249897e-06
3.7568268e-06
4.0222032e-06
4.323333e-06
4.6628183e-06
5.0442232e-06
5.4717992e-06
5.9444427e-06
6.4784981e-06
7.0769223e-06
7.7484434e-06
8.5036741e-06
9.3555947e-06
1.0320161e-05
1.1417068e-05
1.2670714e-05
1.4111355e-05
1.577651e-05
1.7712711e-05
1.9977733e-05
2.2643034e-05
2.5796371e-05
2.9546013e-05
3.4026661e-05
3.9402073e-05
4.5867535e-05
5.3665961e-05
6.3575051e-05
7.5098025e-05
8.9073065e-05
0.00010603838
0.00012664687
0.00015169209
0.00018379479
0.00022108768
0.00026641736
0.00032151863
0.0003922182
0.00047422407
0.00057388364
0.00069501359
0.00084227153
0.0010213386
0.0010219722
0.0010207228
0.0010194118
0.0010180332
0.0010165805
0.0010150462
0.0010134222
0.0010116993
0.0010098667
0.0010080626
0.0010065247
0.0010052198
0.0010041193
0.0010032008
0.0010024447
0.001001829
0.0010013482
0.0010010216
0.0010008078
0.0010006305
0.0010007063
0.0010009928
8.3678013e-07
5.8144172e-06
4.7148743e-06
3.7748894e-06
3.463945e-06
2.6877955e-06
2.6423141e-06
2.4258237e-06
2.410872e-06
2.3948923e-06
2.4523924e-06
2.53679e-06
2.6526498e-06
2.8028524e-06
2.9856462e-06
3.1984869e-06
3.4426253e-06
3.7192698e-06
4.0308902e-06
4.3804192e-06
4.7715387e-06
5.2042182e-06
5.6906816e-06
6.2339674e-06
6.8412733e-06
7.5212929e-06
8.2846108e-06
9.1442122e-06
1.0116112e-05
1.1220141e-05
1.2480923e-05
1.3929053e-05
1.5602505e-05
1.7548468e-05
1.9825551e-05
2.2506005e-05
2.5678556e-05
2.9453531e-05
3.3967871e-05
3.9384887e-05
4.5900373e-05
5.416115e-05
6.3754172e-05
7.5377334e-05
8.9474459e-05
0.00010658778
0.00012737474
0.00015263415
0.00018500829
0.00022260796
0.00026830364
0.00032384212
0.00039512962
0.00047777619
0.00057821009
0.00070028191
0.00084869354
0.0010223954
0.0010212027
0.0010199563
0.0010186513
0.0010172823
0.0010158436
0.0010143284
0.0010127297
0.0010110393
0.0010092482
0.0010075478
0.0010061003
0.0010048735
0.0010038407
0.0010029804
0.0010022722
0.001001695
0.0010012446
0.0010009293
0.0010007014
0.0010005124
0.0010005601
0.0010007897
6.4475312e-07
5.5542353e-06
3.7433104e-06
2.5954698e-06
2.671484e-06
2.1620205e-06
2.1159454e-06
1.995532e-06
2.004932e-06
2.0314987e-06
2.1121381e-06
2.2149532e-06
2.3538902e-06
2.5216711e-06
2.7186251e-06
2.9441057e-06
3.1996786e-06
3.4871652e-06
3.8092254e-06
4.1689782e-06
4.5676561e-06
5.0135412e-06
5.5100386e-06
6.0631355e-06
6.6799846e-06
7.3692405e-06
8.1414724e-06
9.0096874e-06
9.9899863e-06
1.1102375e-05
1.2371749e-05
1.3829071e-05
1.5512849e-05
1.7471012e-05
1.9762949e-05
2.2461585e-05
2.5656961e-05
2.9461932e-05
3.4015025e-05
3.9477629e-05
4.6366064e-05
5.4364141e-05
6.4043938e-05
7.5771525e-05
8.9995593e-05
0.00010726207
0.00012823358
0.00015371409
0.00018633126
0.00022424139
0.00027030815
0.00032629106
0.00039812478
0.00048141741
0.00058263485
0.00070566323
0.00085525049
0.0010216605
0.0010204714
0.0010192312
0.0010179355
0.0010165795
0.001015158
0.0010136653
0.001012095
0.0010104401
0.001008693
0.0010070893
0.001005726
0.001004572
0.0010036017
0.0010027938
0.0010021276
0.001001584
0.0010011596
0.0010008528
0.0010006132
0.0010004152
0.0010004259
0.0010005677
4.9756977e-07
2.8936743e-06
2.9472702e-06
2.0988872e-06
2.0438618e-06
1.7368382e-06
1.7028704e-06
1.6514129e-06
1.6852113e-06
1.7450325e-06
1.8461807e-06
1.96938e-06
2.125026e-06
2.307198e-06
2.516442e-06
2.7532954e-06
3.0195928e-06
3.3175074e-06
3.6497985e-06
4.0196541e-06
4.4308036e-06
4.885286e-06
5.39176e-06
5.9546234e-06
6.5809856e-06
7.2794712e-06
8.0606481e-06
8.9375656e-06
9.9264306e-06
1.1047436e-05
1.2325749e-05
1.3792726e-05
1.5487446e-05
1.7458562e-05
1.9766061e-05
2.2483548e-05
2.5702666e-05
2.9698695e-05
3.4323496e-05
3.9870175e-05
4.6545121e-05
5.4608482e-05
6.4367154e-05
7.6189437e-05
9.0528005e-05
0.00010793164
0.00012906829
0.00015610428
0.00018752914
0.00022570604
0.00027209158
0.00032845695
0.00040069643
0.00048453656
0.00058642075
0.00071026707
0.00086086513
0.0010209694
0.0010197871
0.0010185562
0.001017273
0.0010159331
0.0010145319
0.0010130644
0.0010115252
0.0010099084
0.0010082073
0.0010066912
0.0010054043
0.0010043166
0.0010034032
0.0010026428
0.0010020145
0.0010015014
0.0010010992
0.001000799
0.0010005551
0.0010003614
0.0010003414
0.0010004182
3.9783233e-07
2.0633241e-06
2.2442765e-06
1.6430725e-06
1.5779756e-06
1.4012504e-06
1.3854952e-06
1.3829246e-06
1.4399503e-06
1.5257945e-06
1.6448467e-06
1.7863179e-06
1.9557433e-06
2.150112e-06
2.3703148e-06
2.6175651e-06
2.8938663e-06
3.2015631e-06
3.5434487e-06
3.922722e-06
4.3430752e-06
4.808785e-06
5.3248686e-06
5.8972825e-06
6.533189e-06
7.2413014e-06
8.0323236e-06
8.9195045e-06
9.9193272e-06
1.1052344e-05
1.2344175e-05
1.3826767e-05
1.5539995e-05
1.753333e-05
1.9867509e-05
2.2617585e-05
2.5877823e-05
2.9763942e-05
3.4411354e-05
3.99844e-05
4.6695763e-05
5.4806129e-05
6.4621215e-05
7.6511028e-05
9.0929385e-05
0.00010934166
0.00013074433
0.00015673215
0.00018829515
0.00022663548
0.00027321509
0.00033292707
0.0004021963
0.00048635797
0.00058863894
0.00071297985
0.00086420052
0.0010203316
0.001019159
0.0010179405
0.0010166725
0.0010153515
0.0010139732
0.0010125334
0.0010110274
0.0010094502
0.0010077962
0.0010063568
0.0010051366
0.0010041069
0.0010032433
0.0010025244
0.0010019299
0.0010014443
0.0010010617
0.0010007676
0.0010005244
0.0010003379
0.0010002926
0.0010003138
3.0707549e-07
1.596167e-06
1.6682451e-06
1.2941312e-06
1.2276166e-06
1.1372852e-06
1.1417857e-06
1.1751688e-06
1.2529726e-06
1.3591584e-06
1.4929548e-06
1.6492903e-06
1.8296297e-06
2.0338413e-06
2.263093e-06
2.5189589e-06
2.8035241e-06
3.1192057e-06
3.4688021e-06
3.8555103e-06
4.2829981e-06
4.755504e-06
5.2779948e-06
5.8563754e-06
6.4977567e-06
7.2108068e-06
8.0061968e-06
8.8971689e-06
9.9002297e-06
1.1035976e-05
1.2330118e-05
1.3814801e-05
1.5530131e-05
1.7525596e-05
1.9862089e-05
2.2615953e-05
2.5882475e-05
2.9775274e-05
3.4427245e-05
4.0007464e-05
4.6732631e-05
5.5262383e-05
6.5168635e-05
7.7164574e-05
9.1705669e-05
0.00010934495
0.00013075377
0.00015674746
0.00018831658
0.00022666165
0.00027573555
0.00033273162
0.00040197126
0.00048610349
0.00058835987
0.00071268868
0.00086392082
0.0010197576
0.0010185976
0.0010173941
0.001016144
0.001014844
0.0010134906
0.0010120801
0.0010106085
0.0010090716
0.0010074648
0.0010060892
0.0010049247
0.0010039433
0.0010031211
0.0010024367
0.0010018704
0.0010014081
0.0010010415
0.0010007535
0.0010005147
0.0010003363
0.001000271
0.0010002483
2.0359987e-07
1.2403005e-06
1.214138e-06
1.0323599e-06
9.7194133e-07
9.3904376e-07
9.6545723e-07
1.0272334e-06
1.1242448e-06
1.2475392e-06
1.3945765e-06
1.5634227e-06
1.7543236e-06
1.9680997e-06
2.2062407e-06
2.4701458e-06
2.7626862e-06
3.0860114e-06
3.4429425e-06
3.8367037e-06
4.2709584e-06
4.7498983e-06
5.2784494e-06
5.8624689e-06
6.5090115e-06
7.2266907e-06
8.0261264e-06
8.9205204e-06
9.926342e-06
1.106416e-05
1.2359711e-05
1.3845222e-05
1.5560692e-05
1.7555227e-05
1.9964301e-05
2.2735017e-05
2.6021363e-05
2.9933649e-05
3.4605988e-05
4.0214046e-05
4.6973836e-05
5.5135955e-05
6.5004795e-05
7.6954585e-05
9.1436989e-05
0.00010900193
0.00013031633
0.00015758447
0.0001892327
0.00022765733
0.00027431877
0.000330994
0.00039984708
0.00048351603
0.00058522036
0.00070889485
0.00085935593
0.0010192587
0.0010181141
0.0010169279
0.0010156977
0.0010144205
0.0010130934
0.0010117131
0.0010102761
0.001008779
0.0010072178
0.0010058915
0.00100477
0.0010038259
0.0010030354
0.0010023774
0.001001833
0.0010013885
0.0010010336
0.0010007502
0.0010005164
0.0010003432
0.0010002593
0.0010002005
2.346165e-07
9.9445587e-07
8.8420988e-07
8.2952863e-07
7.9575524e-07
7.973017e-07
8.4167794e-07
9.2165556e-07
1.0305838e-06
1.1630315e-06
1.3164979e-06
1.4903142e-06
1.6849876e-06
1.9016663e-06
2.1419254e-06
2.4076674e-06
2.7011017e-06
3.0247536e-06
3.3814829e-06
3.7744814e-06
4.2072085e-06
4.6835438e-06
5.2085013e-06
5.7879148e-06
6.4288085e-06
7.1397386e-06
7.9312555e-06
8.8164643e-06
9.8117052e-06
1.0937406e-05
1.2219181e-05
1.3689022e-05
1.5386369e-05
1.7359838e-05
1.9670737e-05
2.2395849e-05
2.5625931e-05
2.9467328e-05
3.4057031e-05
3.957128e-05
4.6216884e-05
5.4238114e-05
6.443179e-05
7.626474e-05
9.0602433e-05
0.00010798856
0.00012908321
0.0001546882
0.00018577788
0.0002235369
0.0002694065
0.00032514153
0.00039288036
0.00047523114
0.00057537864
0.0006972171
0.00084551577
0.0010188545
0.0010177288
0.0010165621
0.0010153536
0.0010141007
0.0010128007
0.0010114509
0.0010100483
0.00100859
0.0010070728
0.0010057777
0.0010046834
0.0010037627
0.001002992
0.0010023501
0.0010018191
0.0010013851
0.0010010361
0.0010007545
0.0010005249