/*--------------------------------*- C++ -*----------------------------------*\
  =========                 |
  \\      /  F ield         | OpenFOAM: The Open Source CFD Toolbox
   \\    /   O peration     | Website:  https://openfoam.org
    \\  /    A nd           | Version:  6
     \\/     M anipulation  |
\*---------------------------------------------------------------------------*/
FoamFile
{
    version     2.0;
    format      ascii;
    class       volScalarField;
    location    "400";
    object      omega;
}
// * * * * * * * * * * * * * * * * * * * * * * * * * * * * * * * * * * * * * //

dimensions      [0 0 -1 0 0 0 0];

internalField   nonuniform List<scalar> 
16000
(
1393.8789
1514.2942
787.1191
499.24046
337.49274
257.96226
193.33044
159.77016
129.21628
110.36215
93.461837
81.310419
70.760007
62.42052
55.314275
49.472342
44.497245
40.293799
36.677458
33.564364
30.858226
28.498092
26.426624
24.60173
22.987047
21.553809
20.277631
19.138487
18.119481
17.206488
16.387595
15.652743
14.993312
14.401851
13.871883
13.397718
12.974293
12.597056
12.261868
11.964916
11.702675
11.471933
11.269681
11.093097
10.939545
10.806581
10.691925
10.593477
10.509342
10.437837
10.37754
10.327352
10.286697
10.256113
10.235469
10.222553
10.214469
10.208146
10.201507
10.193339
10.183147
10.170585
10.155345
10.137093
10.115895
10.09282
10.069715
10.048716
10.030389
10.01511
10.001862
9.9923922
9.9830071
9.9792932
9.9733235
9.9825041
9.9791988
10.01565
9.9885583
10.027268
1306.4783
1555.7352
789.09841
506.49509
339.32125
261.65688
194.85199
161.76734
130.31609
111.41689
94.128523
81.816842
71.080787
62.637853
55.477098
49.602448
44.597027
40.372407
36.738782
33.612669
30.896439
28.528731
26.451591
24.622488
23.004736
21.569307
20.291618
19.151469
18.131824
17.218422
16.399252
15.664193
15.004584
14.412934
13.882739
13.408299
12.984548
12.606943
12.271359
11.973987
11.711288
11.480061
11.277312
11.100223
10.946162
10.812695
10.697546
10.598612
10.513988
10.441972
10.381095
10.330162
10.28834
10.255408
10.232434
10.218019
10.209276
10.202837
10.196377
10.189081
10.180416
10.16922
10.155219
10.138016
10.117517
10.094664
10.071402
10.050064
10.031566
10.015976
10.002757
9.9927786
9.98401
9.9800766
9.9742074
9.980873
9.9785575
10.012543
9.9893037
10.02813
1090.0088
1596.297
788.76355
512.90869
340.42306
264.84257
196.01038
163.42499
131.18133
112.20816
94.597471
82.097505
71.227409
62.750818
55.548593
49.649155
44.622255
40.383147
36.738819
33.605163
30.883911
28.513072
26.434323
24.604656
22.987147
21.552541
20.276097
19.137471
18.119514
17.20786
16.390407
15.65698
14.998898
14.408641
13.879696
13.406356
12.983556
12.606755
12.271853
11.975061
11.712821
11.481947
11.279461
11.102557
10.948607
10.815193
10.700048
10.601071
10.516357
10.444193
10.383088
10.331798
10.289374
10.255303
10.229922
10.213794
10.204243
10.197595
10.191123
10.183931
10.175804
10.166256
10.153751
10.137853
10.118298
10.095884
10.072591
10.051029
10.032392
10.016632
10.003424
9.993203
9.9847463
9.980619
9.9751937
9.9802517
9.9786646
10.009707
9.9895799
10.025672
1116.3638
1632.1909
786.5961
518.4272
340.90903
267.44134
196.86727
164.67198
131.82012
112.67696
94.849571
82.183963
71.256023
62.752924
55.524271
49.608062
44.569457
40.322938
36.675018
33.539678
30.818831
28.449619
26.373578
24.547226
22.933478
21.502881
20.230586
19.096135
18.082306
17.174645
16.360977
15.631091
14.976296
14.389057
13.862858
13.392003
12.971437
12.596624
12.263483
11.968263
11.707391
11.477695
11.27622
11.100177
10.946942
10.81412
10.699459
10.600868
10.516447
10.444478
10.383464
10.332133
10.28947
10.254793
10.227954
10.209881
10.199363
10.192442
10.185913
10.178709
10.170667
10.161523
10.15068
10.136383
10.11806
10.096341
10.073183
10.051509
10.032814
10.016985
10.003808
9.9934641
9.9852792
9.9806878
9.9761672
9.9802822
9.9790157
10.006321
9.990014
10.024411
1140.4805
1660.8023
782.96655
522.94268
340.8067
269.37371
197.42975
165.44879
132.22172
112.77576
94.851276
82.126332
71.166203
62.643974
55.403588
49.478885
44.438195
40.191505
36.547083
33.416017
30.701026
28.338244
26.269274
24.45016
22.843719
21.420351
20.155135
19.027539
18.020296
17.118895
16.3111
15.586674
14.936939
14.354354
13.832409
13.365426
12.948369
12.57672
12.246421
11.953765
11.695162
11.467462
11.267737
11.093221
10.941296
10.809595
10.695888
10.598097
10.514337
10.442895
10.382269
10.331178
10.288573
10.253685
10.226144
10.206305
10.194631
10.187369
10.180759
10.173504
10.165464
10.15644
10.146066
10.133528
10.116752
10.09601
10.073173
10.051502
10.032836
10.017035
10.003938
9.9935808
9.9856244
9.9807699
9.9769861
9.9801827
9.9795719
10.003249
9.9907008
10.021651
1162.3342
1678.6582
778.3736
526.33604
340.16118
270.54117
197.71367
165.67694
132.37049
112.61307
94.662932
81.922218
70.955489
62.421929
55.184496
49.260037
44.226977
39.987645
36.353953
33.23331
30.529756
28.178352
26.120922
24.313067
22.71757
21.304728
20.04959
18.931581
17.933431
17.040594
16.240795
15.523777
14.880899
14.304621
13.788452
13.326738
12.914474
12.547163
12.220776
11.93168
11.676244
11.451351
11.254107
11.081778
10.93175
10.801689
10.689398
10.592814
10.510075
10.439477
10.379525
10.328935
10.286642
10.251829
10.223991
10.203103
10.190042
10.18236
10.17565
10.168322
10.160247
10.151259
10.141081
10.129185
10.114306
10.094865
10.072558
10.051005
10.032462
10.016781
10.003814
9.9935347
9.9857876
9.9808146
9.977628
9.9799236
9.9802127
10.000933
9.9913698
10.019928
1181.9424
1682.6772
773.22575
528.44227
339.02404
270.82237
197.73317
165.26342
132.22449
112.25368
94.32792
81.571781
70.623005
62.086751
54.866532
48.951484
43.935645
39.711382
36.095675
32.991726
30.305229
27.970218
25.928836
24.136316
22.555434
21.156445
19.914407
18.808739
17.822199
16.940243
16.150568
15.442905
14.808672
14.240347
13.73146
13.276395
12.870192
12.508373
12.186932
11.902358
11.650964
11.429662
11.2356
11.066091
10.91852
10.790593
10.680154
10.585158
10.503778
10.434323
10.375309
10.325458
10.283702
10.249198
10.221367
10.20001
10.185599
10.1774
10.170575
10.163157
10.155026
10.146033
10.135956
10.124412
10.110647
10.092878
10.071339
10.050023
10.031699
10.016225
10.003453
9.993327
9.9857832
9.9808218
9.9781047
9.9795547
9.980846
9.9988138
9.9920077
10.017964
1199.3806
1674.6989
767.45997
529.04579
337.46779
270.07653
197.50628
164.54291
131.71819
111.70157
93.846833
81.07698
70.16883
61.639308
54.44979
48.553692
43.564406
39.363052
35.772546
32.691621
30.02783
27.71426
25.693475
23.9204
22.35783
20.976053
19.750161
18.659601
17.687196
16.818441
16.041021
15.344654
14.720845
14.162102
13.661985
13.214925
12.81602
12.460823
12.145326
11.8662
11.619691
11.402729
11.212513
11.046427
10.901842
10.776513
10.668334
10.575284
10.495576
10.427539
10.369707
10.320814
10.279794
10.245793
10.21819
10.196657
10.181314
10.172473
10.165521
10.158003
10.149799
10.14078
10.130752
10.119411
10.106211
10.090027
10.069535
10.048572
10.030565
10.015382
10.00287
9.9929657
9.9856334
9.9807815
9.9784393
9.979311
9.9814283
9.9967786
9.9924894
10.016203
1214.7973
1668.1185
760.44683
527.96637
335.5887
268.26278
197.01212
163.5656
130.99769
110.96586
93.222112
80.442158
69.594485
61.081902
53.93546
48.068048
43.114296
38.943659
35.385506
32.333933
29.698479
27.411405
25.41576
23.666259
22.125715
20.764512
19.557814
18.485127
17.529372
16.676126
15.913078
15.229923
14.618288
14.070721
13.580823
13.143079
12.752662
12.405177
12.096559
11.823759
11.582922
11.371003
11.185246
11.023139
10.882028
10.759717
10.654172
10.563388
10.485634
10.419264
10.362833
10.315091
10.274983
10.241655
10.21446
10.193002
10.177219
10.167564
10.160477
10.152851
10.144567
10.135506
10.125501
10.114298
10.101479
10.086284
10.067172
10.046679
10.029082
10.014273
10.002089
9.9924655
9.985366
9.980699
9.9786478
9.9791713
9.9819429
9.9948683
9.9928753
10.014305
1228.3624
1662.5599
752.51517
525.00231
333.4644
266.06427
196.18867
162.35532
130.12559
110.0549
92.45484
79.671278
68.901126
60.416548
53.324648
47.495905
42.586409
38.454314
34.935644
31.919789
29.318319
27.062818
25.096877
23.375098
21.860302
20.523045
19.338591
18.286534
17.349924
16.514467
15.767887
15.099821
14.502064
13.967222
13.488941
13.06176
12.680955
12.342224
12.04134
11.775675
11.541237
11.335009
11.154257
10.996634
10.859433
10.740514
10.637931
10.549694
10.47414
10.409653
10.354813
10.308392
10.269349
10.236835
10.210193
10.188984
10.173051
10.16266
10.155434
10.147696
10.139327
10.130217
10.12022
10.109118
10.096574
10.082007
10.064292
10.044382
10.027283
10.012926
10.001137
9.9918476
9.9850111
9.980581
9.9787561
9.9791282
9.9823899
9.993142
9.993154
10.012421
1240.2858
1657.5918
743.73172
519.81563
331.11653
263.52863
194.9256
160.92955
129.10251
108.97683
91.545877
78.768161
68.090006
59.6453
52.618678
46.838782
41.982133
37.896365
34.424381
31.450649
28.888848
26.670018
24.738365
23.048494
21.563178
20.25324
19.094076
18.065385
17.150374
16.334938
15.606885
14.955727
14.373489
13.852849
13.387509
12.972061
12.601896
12.272914
11.980504
11.722704
11.495317
11.295357
11.120074
10.967376
10.834467
10.71925
10.619913
10.534454
10.461306
10.398882
10.345792
10.300833
10.262983
10.231401
10.205428
10.184596
10.16867
10.157753
10.150385
10.142536
10.13408
10.124919
10.114922
10.103902
10.091584
10.077527
10.060944
10.041729
10.025211
10.011377
10.000045
9.991139
9.9846023
9.9804438
9.9787985
9.9791702
9.98278
9.9916827
9.9934026
10.010393
1250.8271
1652.6125
734.28442
512.12394
328.54704
260.72085
193.29833
159.30832
127.92885
107.74047
90.49653
77.736689
67.162653
58.770203
51.818998
46.098301
41.303091
37.271357
33.846942
30.921544
28.405311
26.228611
24.336268
22.682972
21.231325
19.952501
18.822054
17.819801
16.929123
16.136173
15.428942
14.796692
14.231766
13.726941
13.275988
12.873542
12.515093
12.196996
11.915001
11.665695
11.445917
11.252736
11.08328
10.935878
10.807581
10.696308
10.600446
10.517944
10.447359
10.387139
10.335924
10.29254
10.255985
10.225432
10.200223
10.179874
10.164088
10.152837
10.145326
10.137369
10.128831
10.11962
10.109621
10.098673
10.086545
10.072896
10.057188
10.038779
10.022913
10.009668
9.9988506
9.9903709
9.9841726
9.9803064
9.9788136
9.979288
9.9831248
9.9905495
9.9936788
10.00878
1260.2375
1646.7607
724.33565
503.93835
325.69218
257.69631
191.58214
157.50713
126.60131
106.35173
89.306439
76.578857
66.119616
57.792288
50.915024
45.261177
40.535665
36.567779
33.204481
30.335396
27.871724
25.743202
23.895474
22.283567
20.869758
19.625736
18.527278
17.554342
16.690492
15.922209
15.237879
14.626274
14.080189
13.592528
13.157164
12.76876
12.422766
12.116085
11.844347
11.604243
11.392698
11.206915
11.044505
10.902687
10.779263
10.672092
10.579884
10.500459
10.432544
10.374624
10.325374
10.283647
10.248464
10.219012
10.194641
10.174859
10.159328
10.147911
10.140256
10.1322
10.123586
10.114331
10.104333
10.093453
10.081495
10.068178
10.053087
10.035597
10.020445
10.007844
9.9975909
9.9895772
9.9837537
9.9801899
9.9788379
9.9794697
9.9834213
9.9897321
9.9939383
10.007433
1268.8319
1638.9245
714.02134
495.31787
322.40684
254.49433
189.77079
155.54323
125.11781
104.81682
87.976264
75.296675
64.936372
56.683914
49.900235
44.328536
39.685086
35.792101
32.499357
29.694775
27.290898
25.216704
23.418897
21.853266
20.481448
19.275861
18.212594
17.271772
16.437113
15.695451
15.036024
14.446643
13.920762
13.451451
13.032732
12.659339
12.326397
12.031749
11.77078
11.540306
11.337326
11.159029
11.00339
10.867509
10.749321
10.647028
10.558606
10.482311
10.417118
10.36155
10.314313
10.274292
10.240531
10.21223
10.18875
10.169599
10.154416
10.142983
10.135182
10.127037
10.118356
10.109067
10.099077
10.088267
10.076473
10.06346
10.048887
10.032259
10.017867
10.005954
9.9963053
9.9887921
9.9833738
9.9801145
9.9789028
9.9797074
9.983657
9.9891363
9.9941808
10.00636
1276.9116
1627.4509
703.47003
486.31354
318.39087
251.15009
187.84953
153.43075
123.47474
103.13901
86.462348
73.833986
63.602071
55.447784
48.774861
43.301509
38.753318
34.946781
31.734535
29.00286
26.666344
24.652761
22.910095
21.395721
20.069988
18.906359
17.881359
16.975329
16.172081
15.458596
14.823699
14.258004
13.753588
13.303714
12.902616
12.545316
12.227482
11.94532
11.695477
11.474932
11.280814
11.110082
10.961383
10.831548
10.718534
10.620833
10.53643
10.463831
10.401349
10.348134
10.302917
10.264619
10.232303
10.205181
10.182622
10.164144
10.149377
10.138072
10.130112
10.121892
10.113159
10.103847
10.093874
10.08314
10.071509
10.058789
10.044703
10.028842
10.015243
10.004049
9.9950332
9.9880487
9.9830584
9.9800999
9.9790352
9.9800016
9.9838316
9.9886458
9.9943342
10.00549
1284.7559
1609.8687
692.78082
476.97987
314.46903
247.69422
185.79407
151.17952
121.66685
101.22345
84.733507
72.19297
62.113125
54.082533
47.539302
42.181687
37.74307
34.03511
30.914
28.263776
26.002607
24.056072
22.373443
20.911624
19.635744
18.517355
17.533543
16.664947
15.895429
15.212467
14.605156
14.064365
13.582402
13.152744
12.769818
12.428815
12.12555
11.856356
11.61801
11.407695
11.222893
11.060852
10.919177
10.79548
10.687575
10.594445
10.513929
10.444815
10.38552
10.334603
10.291368
10.254771
10.223894
10.197958
10.176332
10.158547
10.144233
10.133125
10.125064
10.116785
10.108015
10.098694
10.088751
10.0781
10.06663
10.054193
10.040571
10.025428
10.01264
10.00218
9.9938116
9.9873763
9.9828286
9.980166
9.9792591
9.9803612
9.9839745
9.9882686
9.9943334
10.004722
1292.5912
1582.3971
682.00437
467.28445
310.71221
244.15719
183.57165
148.72292
119.52562
99.049687
82.77746
70.366432
60.465769
52.587209
46.195018
40.971891
36.658617
33.061816
30.0434
27.482925
25.299619
23.426349
21.809883
20.407771
19.185826
18.115907
17.175968
16.347168
15.613168
14.962159
14.383574
13.868583
13.409769
13.000864
12.63652
12.31213
12.023676
11.767618
11.540822
11.340582
11.164828
11.010782
10.876277
10.758997
10.656955
10.568367
10.491558
10.425748
10.369422
10.3212
10.279855
10.244894
10.215422
10.19066
10.169962
10.152872
10.139027
10.128151
10.120058
10.111739
10.102951
10.093639
10.08374
10.07318
10.06187
10.049698
10.036514
10.022096
10.010122
10.000393
9.9926742
9.9867972
9.9826983
9.9803277
9.9795915
9.9808006
9.9841353
9.9879823
9.9942402
10.00401
1300.5731
1539.0321
671.04902
457.13582
307.02139
240.56754
181.15981
145.87845
117.04075
96.597869
80.579476
68.346059
58.656705
50.962055
44.745435
39.676887
35.506697
32.033478
29.121008
26.660338
24.566607
22.773537
21.2288
19.890809
18.726487
17.707698
16.81365
16.026686
15.329515
14.711447
14.162311
13.673633
13.238316
12.85038
12.504738
12.197018
11.923404
11.680511
11.465264
11.274797
11.107915
10.961589
10.834025
10.722883
10.626213
10.542347
10.46975
10.407006
10.353447
10.307729
10.268584
10.235143
10.206999
10.183383
10.163594
10.147191
10.133818
10.123195
10.115122
10.106785
10.098
10.088716
10.078879
10.068422
10.057272
10.04534
10.03252
10.018922
10.007751
9.9987365
9.9916508
9.9863255
9.9826704
9.9805904
9.9800328
9.9813123
9.9843667
9.9879293
9.99416
10.003291
1308.6032
1484.5042
659.38774
446.36042
303.23704
236.92301
178.95432
142.61399
114.16347
93.839815
78.121648
66.122284
56.683508
49.209216
43.197132
38.30386
34.282546
30.948326
28.159779
25.809174
23.813108
22.106611
20.638558
19.368231
18.264831
17.299118
16.451785
15.705458
15.045871
14.461266
13.941917
13.479748
13.068016
12.701059
12.374075
12.082954
11.824122
11.594424
11.39103
11.211379
11.053128
10.914034
10.793105
10.687877
10.596352
10.516957
10.448257
10.388953
10.337878
10.294515
10.257385
10.22569
10.198738
10.176223
10.157311
10.141576
10.12867
10.118311
10.110292
10.101958
10.093198
10.083967
10.074213
10.063878
10.052898
10.041196
10.028684
10.015974
10.005581
9.997252
9.9907685
9.9859685
9.9827374
9.9809458
9.9805701
9.9818762
9.9846461
9.9880005
9.994036
10.002512
1316.3624
1427.5082
647.83623
437.29019
301.01444
233.23048
175.42659
138.83824
110.84776
90.74069
75.387004
63.689685
54.549325
47.33622
41.543582
36.849573
33.004861
29.825734
27.173272
24.941998
23.050639
21.436062
20.048923
18.848026
17.804582
16.893506
16.09444
15.390782
14.76894
14.217742
13.727969
13.291991
12.903453
12.557034
12.248236
11.973217
11.728643
11.511566
11.319333
11.149545
11.000053
10.868853
10.754058
10.654456
10.56781
10.492632
10.427564
10.371372
10.32295
10.281794
10.246529
10.216399
10.190746
10.169273
10.151194
10.1361
10.12365
10.11356
10.105606
10.097299
10.088588
10.079433
10.069786
10.059597
10.048809
10.037354
10.025159
10.013307
10.00366
9.995977
9.9900533
9.9857345
9.9828896
9.9813731
9.9811714
9.9824714
9.9849911
9.988182
9.9938053
10.00161
1323.4184
1396.2671
638.69641
437.08415
300.5177
227.73297
171.24937
134.45475
107.0393
87.277747
72.368933
61.05489
52.268909
45.340752
39.809246
35.34214
31.69386
28.684198
26.178153
24.073643
22.292295
20.773133
19.466058
18.337006
17.356332
16.500187
15.749269
15.087878
14.50319
13.984692
13.523729
13.11315
12.747015
12.42036
12.128996
11.869355
11.63835
11.433254
11.251599
11.091067
10.94963
10.825455
10.717362
10.623034
10.540957
10.469728
10.408064
10.354791
10.308865
10.269763
10.236235
10.207564
10.183123
10.162619
10.14532
10.130832
10.118824
10.109018
10.101108
10.092851
10.084213
10.075158
10.065643
10.055624
10.045049
10.033863
10.022002
10.010963
10.002021
9.9949412
9.9895311
9.9856408
9.983131
9.9818586
9.981815
9.9830956
9.9853604
9.9882694
9.9934222
10.000451
1328.4444
1390.6777
630.74549
434.01963
295.77806
221.61076
166.12064
129.4878
102.71411
83.452427
69.081447
58.241102
49.843486
43.260451
38.025583
33.810083
30.375065
27.54621
25.193954
23.220871
21.552692
20.12787
18.903987
17.846776
16.928296
16.126125
15.422164
14.801722
14.252821
13.765662
13.33219
12.945762
12.600863
12.292886
12.017946
11.772733
11.554394
11.360449
11.188755
11.036926
10.902961
10.785924
10.68344
10.59397
10.516092
10.448492
10.389961
10.339377
10.295793
10.258567
10.226628
10.199296
10.175969
10.156349
10.139761
10.125829
10.114233
10.104702
10.096845
10.088662
10.08012
10.071188
10.061828
10.052
10.041662
10.030764
10.019253
10.008969
10.000681
9.9941599
9.9892196
9.98571
9.9834856
9.982416
9.9824956
9.9837362
9.9857698
9.9884274
9.9930567
9.9990969
1329.1555
1412.0495
621.10089
423.24933
289.56327
214.28389
159.98669
123.81608
97.858985
79.269512
65.547218
55.258239
47.329464
41.139289
36.23174
32.287709
29.078334
26.437486
24.242348
22.400926
20.843366
19.516002
18.373934
17.386716
16.528311
15.777874
15.118609
14.536901
14.02167
13.56386
13.15604
12.792084
12.466909
12.17626
11.916538
11.684649
11.477881
11.293833
11.131392
10.987811
10.861268
10.750079
10.652689
10.56761
10.493503
10.429147
10.373445
10.325213
10.283901
10.248347
10.217824
10.191693
10.169389
10.150553
10.134597
10.121161
10.109934
10.100655
10.092873
10.084784
10.07636
10.067572
10.058387
10.048771
10.038687
10.028092
10.016943
10.007342
9.9996435
9.9936268
9.98911
9.98594
9.9839679
9.9830764
9.9832508
9.9844392
9.9863068
9.9888292
9.9930043
9.9982636
1322.4678
1378.3155
611.36329
411.38794
281.30989
205.63653
152.81193
117.47422
92.548722
74.821638
61.86378
52.202404
44.800156
39.037989
34.478313
30.817398
27.839478
25.388793
23.350543
21.639021
20.189328
18.951686
17.887453
16.966301
16.164192
15.461912
14.843995
14.297921
13.813505
13.382434
12.997896
12.654277
12.346929
12.071965
11.826097
11.606488
11.41064
11.236386
11.081776
10.944997
10.824355
10.718316
10.62548
10.544308
10.473511
10.411895
10.358847
10.312965
10.273365
10.239249
10.209929
10.184804
10.163489
10.145326
10.129913
10.116902
10.105994
10.096933
10.089248
10.081274
10.072986
10.06436
10.055367
10.045977
10.036159
10.025879
10.015097
10.006089
9.9989026
9.9933232
9.9891722
9.9862936
9.9845401
9.9838051
9.9840559
9.9851951
9.9869447
9.9893698
9.9931547
9.9977399
1305.0795
1321.8343
601.41568
396.87156
271.1513
195.80231
144.74997
110.63381
86.970129
70.280288
58.18092
49.197431
42.352583
37.033324
32.826913
29.448866
26.698317
24.432069
22.544333
20.95637
19.608716
18.455847
17.462462
16.600866
15.849099
15.189598
14.608208
14.093458
13.636008
13.228231
12.863869
12.537772
12.245676
11.984025
11.749821
11.5405
11.353631
11.187205
11.039382
10.90843
10.792741
10.690843
10.60204
10.524394
10.456683
10.397794
10.346711
10.302513
10.264377
10.231479
10.203151
10.179028
10.158383
10.140769
10.125798
10.113134
10.102485
10.093603
10.086031
10.078189
10.070055
10.061605
10.052816
10.043662
10.034117
10.024152
10.013735
10.005218
9.9984543
9.9932348
9.9893824
9.9867397
9.9851636
9.9845543
9.9848589
9.9859557
9.9876293
9.9899802
9.9934403
9.9974759
1272.3666
1264.7082
592.06216
379.73393
258.79827
184.68133
135.80885
103.37222
81.232924
65.746072
54.583383
46.312107
40.028705
35.152249
31.296766
28.198693
25.666472
23.574958
21.82806
20.354421
19.100228
18.024302
17.094691
16.286302
15.579209
14.957436
14.408082
13.920666
13.486637
13.098991
12.751974
12.440834
12.161623
11.911033
11.686244
11.485694
11.306497
11.146788
11.004833
10.879012
10.767853
10.669995
10.584143
10.509074
10.443543
10.386479
10.336902
10.293914
10.257041
10.225233
10.197855
10.174342
10.154201
10.136997
10.122353
10.109943
10.099484
10.090732
10.083289
10.075594
10.067625
10.059362
10.050785
10.041871
10.032599
10.022942
10.012875
10.004733
9.9982911
9.9933434
9.9897139
9.9872449
9.9857984
9.9852768
9.9856081
9.986662
9.9882778
9.9905522
9.9937249
9.9973059
1221.3894
1196.9711
581.91429
361.00805
244.29869
172.98198
126.97664
96.695136
76.222713
61.929269
51.636104
44.005077
38.200059
33.68593
30.10828
27.225348
24.868076
22.915699
21.280288
19.896683
18.71577
17.699911
16.81984
16.052573
15.379828
14.786921
14.261966
13.795288
13.37898
13.006557
12.672682
12.372951
12.103705
11.861871
11.644839
11.450278
11.276229
11.120913
10.98267
10.859971
10.751426
10.655723
10.571599
10.498435
10.434542
10.378895
10.330548
10.288641
10.252396
10.221113
10.194171
10.171019
10.15117
10.134201
10.11974
10.107464
10.097093
10.088386
10.081077
10.073542
10.065749
10.057682
10.049321
10.040649
10.031647
10.022294
10.012569
10.004668
9.9984309
9.9936542
9.9901605
9.9877931
9.9864186
9.9859381
9.986264
9.9872686
9.9888398
9.9910614
9.9940309
9.9973102
1161.5237
1120.0173
553.97915
333.81208
221.04788
154.94194
113.98429
87.418129
69.594757
57.154436
48.133328
41.384199
36.205889
32.146633
28.905074
26.274294
24.108789
22.304044
20.783537
19.49025
18.380932
17.422221
16.588294
15.858611
15.216732
14.649366
14.145686
13.696828
13.295511
12.935735
12.612544
12.321833
12.060173
11.824673
11.613657
11.424233
11.254568
11.102973
10.967881
10.84788
10.741656
10.647944
10.565537
10.493296
10.430152
10.37511
10.327253
10.285741
10.249814
10.218788
10.192051
10.169061
10.149341
10.13247
10.118082
10.105857
10.095518
10.086824
10.079567
10.072194
10.064575
10.056693
10.048534
10.04008
10.031314
10.022219
10.012775
10.004989
9.9988473
9.9941435
9.9906992
9.9883581
9.986989
9.9864873
9.9867542
9.9876774
9.9891815
9.9912959
9.9939966
9.9969795
1120.9534
1159.3622
565.27469
337.90107
221.98796
154.58691
113.27326
86.839551
69.201727
56.902291
47.989275
41.321382
36.200561
32.179963
28.962923
26.346416
24.187944
22.385251
20.863469
19.566749
18.452775
17.489078
16.650075
15.915469
15.26893
14.697219
14.189533
13.73701
13.332359
12.969568
12.643666
12.350532
12.086726
11.849351
11.635954
11.444339
11.27259
11.118998
10.982023
10.860274
10.752432
10.657228
10.573459
10.499985
10.435736
10.379713
10.330991
10.288724
10.252141
10.220548
10.193324
10.169919
10.149844
10.132671
10.118026
10.105582
10.095053
10.086195
10.078793
10.071606
10.064181
10.056503
10.048555
10.040322
10.031789
10.022937
10.013751
10.005843
9.9996076
9.9948296
9.9913233
9.9889278
9.9875074
9.9869484
9.9871457
9.9880004
9.9894477
9.991465
9.9939859
9.9968453
1151.1806
1223.0942
586.72307
353.08704
231.47881
161.14516
117.7652
90.032102
71.531122
58.654137
49.337167
42.377138
37.038243
32.851595
29.506259
26.789647
24.552464
22.687518
21.116274
19.780142
18.634647
17.645453
16.785634
16.033864
15.373051
14.789369
14.271551
13.810369
13.398233
13.02889
12.697172
12.398794
12.130183
11.888348
11.670774
11.475364
11.300183
11.143468
11.003667
10.879361
10.769194
10.671881
10.586209
10.511026
10.445251
10.387874
10.337958
10.294642
10.257145
10.224758
10.196849
10.172854
10.152276
10.134675
10.119667
10.106918
10.096135
10.087066
10.079492
10.072517
10.065307
10.057849
10.050128
10.042128
10.033835
10.025231
10.016301
10.008021
10.001466
9.9964126
9.9926674
9.9900643
9.9884613
9.9877364
9.9877816
9.9885038
9.9898326
9.9917121
9.9940726
9.9968395
30899.901
33960.643
19344.964
13294.141
9567.153
6930.6315
5036.7588
3683.7836
2714.3168
2017.2799
1507.6683
1134.7251
856.66899
653.44279
495.75039
379.08515
287.06175
218.00766
166.83705
129.28515
101.41469
80.931778
65.786569
54.560095
46.180837
39.855353
35.011856
31.214946
28.196632
25.736451
23.681756
21.936787
20.434034
19.125822
17.977897
16.965254
16.069089
15.27477
14.570634
13.947258
13.396503
12.911104
12.48474
12.111796
11.787081
11.505772
11.26343
11.056134
10.880994
10.734347
10.613205
10.513363
10.431214
10.365371
10.314552
10.277742
10.251936
10.233508
10.218948
10.206366
10.193418
10.180516
10.164263
10.147975
10.124958
10.1055
10.073882
10.053926
10.024221
10.010679
9.9862559
9.9809322
9.9571118
9.9651694
9.9411813
9.9681272
9.9442407
9.9885255
9.9557984
9.9904911
33923.042
28953.766
22013.246
16564.237
12182.636
8813.6863
6357.3322
4596.1658
3342.8828
2448.3065
1804.6421
1336.7467
994.52079
742.27688
555.82151
417.65693
315.12718
239.15194
182.85712
141.21489
110.28214
87.449284
70.556179
58.073823
48.784635
41.806524
36.48959
32.343043
29.07672
26.440935
24.251993
22.402504
20.817581
19.443553
18.242082
17.185293
16.252391
15.427272
14.697212
14.051991
13.482795
12.981854
12.542442
12.158553
11.824704
11.535823
11.2872
11.074604
10.895166
10.74501
10.621045
10.518231
10.433596
10.365679
10.313992
10.276746
10.250831
10.232542
10.218231
10.205959
10.193289
10.180705
10.164673
10.148668
10.125727
10.106501
10.074806
10.054804
10.025325
10.011974
9.9872626
9.9822032
9.9581339
9.9663021
9.9423087
9.9690803
9.9455278
9.9896443
9.957035
9.9919412
37351.429
20579.183
13140.26
8218.7091
4428.1404
2094.4565
948.64156
460.90299
266.93818
184.41574
145.15425
120.69177
104.39289
91.02946
80.615982
72.284367
64.860073
58.909813
53.359721
48.873884
44.606028
41.084151
37.769787
34.966809
32.3761
30.087108
27.992448
26.04572
24.330061
22.768362
21.344239
20.060529
18.905019
17.864424
16.92781
16.085636
15.329486
14.65163
14.045484
13.505267
13.025181
12.599935
12.224909
11.895747
11.608305
11.358633
11.142989
10.958072
10.802245
10.671611
10.563311
10.472182
10.396946
10.337525
10.293553
10.262588
10.241252
10.226006
10.213377
10.202163
10.189825
10.17768
10.161342
10.145706
10.122029
10.103666
10.070773
10.052799
10.022831
10.011537
9.985799
9.9826966
9.9574121
9.9675355
9.9421391
9.9708961
9.9458046
9.9915154
9.9575813
9.9934857
34570.872
24074.67
13879.246
7462.3506
3291.7089
1250.6445
499.35391
264.34353
188.97286
151.70851
129.99909
111.55333
98.590816
86.50774
77.274574
69.733349
62.700425
57.253339
51.869541
47.696031
43.502569
40.210528
36.908776
34.293892
31.686701
29.53114
27.42309
25.560587
23.872464
22.348113
20.975061
19.738182
18.624127
17.620393
16.716361
15.9029
15.171989
14.516308
13.929656
13.406442
12.941121
12.528747
12.164919
11.845465
11.566388
11.323901
11.114396
10.934717
10.783444
10.656593
10.550495
10.460957
10.387297
10.330084
10.287986
10.258508
10.238278
10.223808
10.211696
10.200836
10.188743
10.176762
10.160545
10.144963
10.121372
10.103012
10.070361
10.052787
10.02306
10.012398
9.9862896
9.9838538
9.9581422
9.9689181
9.9431428
9.9723932
9.9468866
9.9932319
9.9586427
9.9950775
36617.2
23563.675
13343.291
6942.6905
2966.3644
1089.6628
443.04276
247.14839
182.39885
147.11479
126.14758
108.11704
95.626612
84.085104
75.621306
67.780069
61.406902
55.648832
50.794266
46.432027
42.65107
39.227426
36.230613
33.501181
31.077312
28.851275
26.849822
25.041966
23.413856
21.947341
20.626626
19.435902
18.361855
17.393011
16.519433
15.732602
15.025013
14.389796
13.821127
13.313626
12.862016
12.461646
12.108297
11.797938
11.52673
11.291019
11.087317
10.912601
10.765656
10.642337
10.53812
10.450052
10.378373
10.323308
10.282987
10.25489
10.235698
10.22192
10.210296
10.199716
10.187873
10.175975
10.159923
10.144288
10.120876
10.102364
10.070142
10.052538
10.023294
10.01251
9.9868345
9.9840726
9.9589574
9.9694687
9.9441168
9.9733726
9.9479469
9.9946735
9.9596883
9.9965348
37197.766
23150.76
12869.537
6332.2845
2451.6599
833.57779
358.65398
221.54271
173.79028
141.48768
122.50867
104.64351
92.838572
81.49381
73.466964
65.805357
59.70959
54.112913
49.454243
45.235852
41.582383
38.302878
35.393623
32.774203
30.416001
28.279363
26.342605
24.593406
23.019002
21.60056
20.322154
19.168708
18.127731
17.18823
16.340707
15.577036
14.89001
14.273069
13.720619
13.227375
12.788305
12.398986
12.055324
11.753418
11.489548
11.260174
11.061911
10.891859
10.748994
10.628749
10.5262
10.439654
10.370336
10.317298
10.278618
10.25179
10.233537
10.220376
10.209173
10.19883
10.18719
10.175349
10.159422
10.143723
10.120458
10.101791
10.070033
10.052458
10.023699
10.013131
9.9873848
9.984935
9.9598091
9.9704281
9.9451405
9.9744859
9.9490291
9.9961698
9.9607436
9.9980022
38167.785
22795.016
12346.539
5760.3687
2110.7429
700.09264
321.38363
211.1408
169.14007
138.50221
119.89989
102.36216
90.805923
79.564282
71.808835
64.239476
58.358633
52.889151
48.380424
44.26696
40.724054
37.525314
34.700795
32.148951
29.859517
27.777703
25.894768
24.195867
22.666874
21.289058
20.047102
18.926264
17.914453
17.001028
16.176792
15.433919
14.765449
14.165078
13.62738
13.147152
12.719604
12.340483
12.005795
11.711744
11.454716
11.231268
11.038104
10.872434
10.733414
10.615741
10.514683
10.430263
10.363201
10.31204
10.274867
10.249193
10.231784
10.219164
10.20832
10.198164
10.186688
10.174867
10.159043
10.143253
10.120124
10.101275
10.070021
10.052439
10.024041
10.013048
9.9879515
9.9852495
9.9606904
9.971192
9.9461459
9.9755223
9.9501137
9.9976323
9.9617991
9.9994485
38961.139