/*--------------------------------*- C++ -*----------------------------------*\
  =========                 |
  \\      /  F ield         | OpenFOAM: The Open Source CFD Toolbox
   \\    /   O peration     | Website:  https://openfoam.org
    \\  /    A nd           | Version:  6
     \\/     M anipulation  |
\*---------------------------------------------------------------------------*/
FoamFile
{
    version     2.0;
    format      ascii;
    class       volScalarField;
    location    "400";
    object      p;
}
// * * * * * * * * * * * * * * * * * * * * * * * * * * * * * * * * * * * * * //

dimensions      [1 -1 -2 0 0 0 0];

internalField   nonuniform List<scalar> 
16000
(
98890.443
98950.136
98954.273
99011.956
99024.379
99077.169
99098.97
99147.314
99177.18
99222.868
99258.861
99303.679
99344.12
99389.336
99433.023
99479.338
99525.467
99573.136
99621.144
99670.12
99719.545
99769.584
99819.977
99870.701
99921.58
99972.512
100023.34
100073.93
100124.13
100173.77
100222.71
100270.77
100317.79
100363.62
100408.09
100451.05
100492.36
100531.89
100569.51
100605.1
100638.56
100669.8
100698.75
100725.35
100749.55
100771.32
100790.65
100807.54
100821.99
100834.02
100843.68
100851
100856.03
100858.84
100859.49
100858.05
100854.58
100849.18
100841.91
100832.87
100822.11
100809.74
100795.78
100780.44
100763.49
100745.59
100725.61
100705.84
100682.16
100662.21
100632.06
100616.87
100572.09
100577.17
100491.05
100555.45
100364.65
100580.88
100178.44
100633.01
98933.197
98997.17
99001.281
99063.592
99076.317
99133.415
99156.254
99208.376
99240.006
99289.021
99327.304
99375.165
99418.19
99466.291
99512.678
99561.77
99610.588
99660.917
99711.507
99762.98
99814.797
99867.1
99919.614
99972.29
100024.94
100077.43
100129.59
100181.27
100232.29
100282.47
100331.66
100379.66
100426.32
100471.46
100514.93
100556.57
100596.25
100633.83
100669.22
100702.3
100733.01
100761.27
100787.04
100810.29
100830.99
100849.16
100864.81
100877.96
100888.67
100896.97
100902.94
100906.64
100908.14
100907.53
100904.88
100900.29
100893.84
100885.61
100875.68
100864.15
100851.08
100836.56
100820.64
100803.44
100784.92
100765.33
100744.31
100722.71
100698.94
100676.16
100648.29
100626.98
100589.49
100580.21
100514.1
100548.93
100396.3
100564.05
100207.91
100621.24
98996.909
99066.109
99070.224
99137.558
99151.014
99212.497
99236.914
99292.797
99326.688
99379.026
99419.986
99470.922
99516.806
99567.845
99617.105
99669.021
99720.615
99773.616
99826.794
99880.717
99934.85
99989.294
100043.76
100098.18
100152.33
100206.07
100259.2
100311.54
100362.91
100413.12
100461.97
100509.3
100554.91
100598.66
100640.37
100679.9
100717.14
100751.96
100784.27
100814.01
100841.12
100865.56
100887.32
100906.4
100922.82
100936.62
100947.85
100956.57
100962.86
100966.8
100968.48
100968
100965.44
100960.92
100954.53
100946.37
100936.53
100925.11
100912.19
100897.86
100882.2
100865.27
100847.15
100827.91
100807.56
100786.22
100763.77
100740.54
100715.93
100691.2
100663.71
100638.84
100605.2
100586.72
100533.08
100547.68
100422.35
100551.66
100234.77
100611.9
99083.515
99158.362
99162.478
99235.36
99249.619
99315.945
99342.129
99402.14
99438.568
99494.535
99538.478
99592.763
99641.794
99696.014
99748.392
99803.331
99857.881
99913.69
99969.556
100025.98
100082.43
100138.96
100195.27
100251.24
100306.65
100361.32
100415.03
100467.59
100518.78
100568.41
100616.27
100662.19
100705.98
100747.48
100786.55
100823.05
100856.88
100887.96
100916.21
100941.59
100964.09
100983.71
101000.47
101014.43
101025.63
101034.16
101040.11
101043.57
101044.66
101043.5
101040.19
101034.87
101027.65
101018.66
101007.99
100995.78
100982.11
100967.1
100950.83
100933.37
100914.82
100895.24
100874.69
100853.21
100830.86
100807.67
100783.63
100758.85
100733.11
100706.87
100679.05
100651.93
100620.09
100596.01
100550.06
100549.79
100445.96
100545.03
100261.28
100612.76
99192.154
99273.367
99277.609
99356.742
99372.083
99443.789
99472.156
99536.697
99576.13
99636.059
99683.421
99741.351
99793.889
99851.546
99907.309
99965.462
100023.13
100081.85
100140.45
100199.35
100258.03
100316.49
100374.42
100431.65
100487.94
100543.08
100596.84
100648.99
100699.31
100747.59
100793.64
100837.26
100878.27
100916.54
100951.94
100984.35
101013.7
101039.94
101063.05
101083.01
101099.86
101113.65
101124.44
101132.33
101137.42
101139.84
101139.72
101137.19
101132.4
101125.5
101116.63
101105.95
101093.58
101079.67
101064.34
101047.71
101029.9
101011
100991.11
100970.31
100948.66
100926.24
100903.09
100879.25
100854.76
100829.65
100803.9
100777.56
100750.53
100722.96
100694.4
100665.73
100634.54
100606.77
100566.08
100554.36
100467.63
100542.39
100286.37
100616.72
99324.319
99412.778
99417.327
99503.513
99520.245
99597.92
99628.927
99698.418
99741.351
99805.582
99856.807
99918.679
99975.079
100036.42
100095.81
100157.34
100218.26
100279.93
100341.26
100402.56
100463.32
100523.47
100582.68
100640.75
100697.41
100752.42
100805.52
100856.49
100905.08
100951.08
100994.29
101034.53
101071.65
101105.52
101136.05
101163.16
101186.82
101207.03
101223.8
101237.18
101247.26
101254.14
101257.95
101258.81
101256.9
101252.37
101245.4
101236.17
101224.85
101211.63
101196.68
101180.15
101162.21
101143.01
101122.68
101101.34
101079.12
101056.11
101032.4
101008.07
100983.17
100957.78
100931.92
100905.64
100878.94
100851.85
100824.35
100796.45
100768.09
100739.3
100709.87
100680.05
100648.91
100618.78
100581.62
100561.49
100488.61
100542.77
100311.85
100624.14
99482.462
99579.485
99584.342
99678.28
99696.573
99780.654
99814.691
99889.429
99936.308
100005.1
100060.59
100126.64
100187.21
100252.43
100315.65
100380.66
100444.88
100509.49
100573.44
100636.94
100699.48
100760.93
100820.92
100879.23
100935.55
100989.62
101041.16
101089.92
101135.68
101178.23
101217.36
101252.94
101284.83
101312.95
101337.25
101357.7
101374.33
101387.19
101396.36
101401.96
101404.13
101403.02
101398.83
101391.74
101381.97
101369.73
101355.23
101338.68
101320.29
101300.27
101278.8
101256.08
101232.25
101207.49
101181.93
101155.7
101128.91
101101.65
101074.01
101046.05
101017.84
100989.42
100960.81
100932.04
100903.11
100874.04
100844.79
100815.35
100785.67
100755.72
100725.38
100694.67
100663.29
100631.69
100596.92
100570.65
100509.34
100545.13
100337.56
100634.39
99667.598
99774.229
99779.182
99881.743
99901.924
99992.964
100030.59
100110.98
100162.4
100236.11
100296.37
100366.93
100432.02
100501.36
100568.6
100637.19
100704.73
100772.17
100838.54
100903.93
100967.8
101029.97
101090.06
101147.77
101202.8
101254.85
101303.65
101348.94
101390.51
101428.15
101461.72
101491.1
101516.21
101537.03
101553.56
101565.84
101573.98
101578.1
101578.35
101574.92
101568.02
101557.88
101544.73
101528.84
101510.45
101489.81
101467.19
101442.81
101416.92
101389.73
101361.46
101332.28
101302.37
101271.9
101240.99
101209.76
101178.33
101146.78
101115.18
101083.59
101052.06
101020.61
100989.27
100958.05
100926.93
100895.9
100864.95
100834.02
100803.08
100772.06
100740.87
100709.46
100677.71
100645.3
100612.06
100581.41
100530.05
100549.53
100364.65
100647.22
99879.179
99996.844
100002.22
100114.56
100137.25
100236.03
100278.05
100364.66
100421.38
100500.49
100566.11
100641.55
100711.57
100785.25
100856.67
100928.88
100999.62
101069.68
101138.08
101204.82
101269.35
101331.42
101390.6
101446.6
101499.06
101547.7
101592.24
101632.45
101668.13
101699.13
101725.36
101746.75
101763.3
101775.07
101782.14
101784.64
101782.76
101776.69
101766.7
101753.03
101735.96
101715.8
101692.85
101667.39
101639.74
101610.18
101578.98
101546.42
101512.74
101478.17
101442.92
101407.19
101371.13
101334.91
101298.64
101262.45
101226.42
101190.63
101155.14
101119.99
101085.21
101050.82
101016.83
100983.23
100950
100917.12
100884.54
100852.23
100820.11
100788.13
100756.19
100724.23
100692.11
100659.39
100627.09
100593.63
100550.72
100555.69
100393.36
100661.29
100119.45
100249.87
100255.86
100379.23
100405.1
100512.38
100559.67
100653.06
100715.87
100800.84
100872.4
100953.08
101028.34
101106.53
101182.16
101257.85
101331.53
101403.73
101473.53
101540.8
101604.98
101665.74
101722.66
101775.4
101823.62
101867.03
101905.4
101938.53
101966.28
101988.57
102005.38
102016.75
102022.77
102023.59
102019.39
102010.43
101996.97
101979.31
101957.8
101932.76
101904.56
101873.54
101840.07
101804.47
101767.09
101728.23
101688.2
101647.26
101605.68
101563.67
101521.45
101479.19
101437.06
101395.19
101353.69
101312.66
101272.18
101232.3
101193.07
101154.51
101116.64
101079.47
101042.97
101007.14
100971.94
100937.33
100903.26
100869.69
100836.53
100803.72
100771.16
100738.8
100706.41
100673.77
100642
100607.09
100571.23
100563.6
100424.01
100675.92
100390.45
100535.52
100542.34
100678.06
100707.91
100824.53
100878.1
100978.87
101048.67
101139.99
101218.08
101304.32
101385.06
101467.78
101547.49
101626.31
101702.35
101775.9
101846.09
101912.64
101975
102032.78
102085.57
102133.01
102174.81
102210.71
102240.53
102264.16
102281.56
102292.74
102297.8
102296.89
102290.24
102278.12
102260.83
102238.74
102212.21
102181.67
102147.51
102110.15
102070.02
102027.52
101983.03
101936.93
101889.57
101841.27
101792.34
101743.05
101693.64
101644.32
101595.29
101546.71
101498.71
101451.42
101404.93
101359.32
101314.63
101270.91
101228.18
101186.44
101145.71
101105.96
101067.17
101029.3
100992.31
100956.16
100920.78
100886.1
100852.07
100818.59
100785.57
100752.95
100720.47
100688.18
100656.71
100621.54
100591.33
100573.06
100455.38
100689.95
100693.57
100855.77
100863.93
101013.61
101048.58
101175.5
101236.61
101345.46
101423.18
101521.37
101606.51
101698.55
101784.81
101871.87
101955.18
102036.41
102113.8
102187.44
102256.44
102320.45
102378.91
102431.42
102477.58
102517.08
102549.69
102575.23
102593.65
102604.94
102609.19
102606.58
102597.35
102581.8
102560.3
102533.26
102501.13
102464.38
102423.49
102378.96
102331.27
102280.91
102228.33
102173.98
102118.27
102061.57
102004.25
101946.62
101888.96
101831.54
101774.57
101718.26
101662.75
101608.19
101554.7
101502.36
101451.24
101401.38
101352.83
101305.6
101259.69
101215.09
101171.77
101129.72
101088.89
101049.23
101010.69
100973.21
100936.72
100901.15
100866.43
100832.46
100799.16
100766.46
100734.08
100702.34
100671.09
100636.63
100610.73
100583.75
100486.6
100702.97
101032.46
101214.5
101224.54
101389.88
101431.27
101569.43
101639.42
101757
101843.56
101949.03
102041.55
102139.34
102230.85
102321.63
102407.6
102489.95
102567.06
102638.79
102704.3
102763.18
102814.89
102859.05
102895.34
102923.55
102943.57
102955.36
102959.04
102954.77
102942.84
102923.59
102897.46
102864.91
102826.49
102782.75
102734.25
102681.59
102625.35
102566.08
102504.33
102440.62
102375.44
102309.22
102242.39
102175.32
102108.33
102041.72
101975.76
101910.66
101846.61
101783.79
101722.3
101662.27
101603.76
101546.84
101491.55
101437.91
101385.92
101335.59
101286.88
101239.77
101194.23
101150.19
101107.63
101066.46
101026.64
100988.08
100950.72
100914.49
100879.29
100845.03
100811.67
100779.05
100747
100715.95
100684.97
100651.99
100629.19
100595.38
100517.23
100715.47
101410.5
101615.58
101628.26
101811.1
101860.52
102010.9
102091.24
102218.18
102314.38
102427.37
102527.27
102630.42
102726.35
102819.62
102906.56
102987.93
103062.22
103129.13
103187.88
103238.05
103279.2
103311.04
103333.4
103346.24
103349.64
103343.81
103329.06
103305.8
103274.54
103235.83
103190.33
103138.67
103081.56
103019.67
102953.71
102884.33
102812.19
102737.89
102661.99
102585.02
102507.46
102429.75
102352.26
102275.33
102199.26
102124.31
102050.68
101978.57
101908.11
101839.43
101772.61
101707.72
101644.8
101583.88
101524.97
101468.07
101413.14
101360.16
101309.1
101259.9
101212.51
101166.86
101122.9
101080.55
101039.73
101000.38
100962.42
100925.75
100890.31
100856
100822.76
100790.43
100758.95
100728.69
100698.16
100667.25
100646.55
100607.65
100546.94
100726.99
101831.88
102063.83
102080.25
102282.55
102341.99
102505.48
102597.73
102734.51
102840.86
102961.22
103067.97
103175.37
103274.06
103367.62
103452.77
103529.88
103597.59
103655.52
103703.01
103739.74
103765.43
103780.02
103783.58
103776.34
103758.65
103731.01
103694.03
103648.39
103594.84
103534.17
103467.23
103394.82
103317.79
103236.91
103152.96
103066.64
102978.63
102889.53
102799.9
102710.24
102620.98
102532.52
102445.17
102359.24
102274.95
102192.51
102112.09
102033.8
101957.74
101883.99
101812.59
101743.57
101676.93
101612.66
101550.75
101491.16
101433.83
101378.73
101325.79
101274.94
101226.12
101179.25
101134.26
101091.06
101049.57
101009.72
100971.43
100934.6
100899.15
100865.02
100832.12
100800.28
100769.6
100740.2
100710.41
100681.99
100662.51
100620.48
100575.87
100736.74
102301.83
102565.11
102586.75
102810.46
102882.31
103059.64
103165.32
103312.24
103428.64
103555.52
103667.6
103777
103875.5
103965.71
104044.77
104112.79
104168.59
104211.87
104242.21
104259.5
104263.8
104255.36
104234.63
104202.19
104158.78
104105.24
104042.48
103971.48
103893.25
103808.77
103719.05
103625.03
103527.61
103427.64
103325.91
103223.12
103119.91
103016.85
102914.43
102813.1
102713.23
102615.13
102519.06
102425.23
102333.81
102244.95
102158.75
102075.26
101994.55
101916.62
101841.48
101769.12
101699.5
101632.58
101568.32
101506.65
101447.5
101390.81
101336.48
101284.46
101234.64
101186.95
101141.3
101097.6
101055.77
101015.73
100977.38
100940.65
100905.46
100871.73
100839.37
100808.25
100778.55
100750.1
100721.39
100695.67
100676.67
100633.67
100603.72
100744.18
102826.13
103125.8
103154.68
103401.76
103489.25
103681.04
103801.15
103957.88
104083.23
104214.35
104328.73
104436.19
104529.65
104610.93
104677.63
104729.75
104766.49
104787.8
104793.65
104784.38
104760.51
104722.76
104672.06
104609.44
104536.05
104453.08
104361.77
104263.34
104158.99
104049.87
103937.04
103821.52
103704.21
103585.94
103467.44
103349.37
103232.27
103116.64
103002.88
102891.33
102782.3
102675.98
102572.54
102472.14
102374.86
102280.78
102189.93
102102.33
102017.96
101936.8
101858.8
101783.93
101712.1
101643.25
101577.31
101514.19
101453.79
101396.04
101340.84
101288.1
101237.72
101189.61
101143.67
101099.83
101057.98
101018.04
100979.93
100943.56
100908.86
100875.75
100844.14
100813.95
100785.38
100757.96
100730.71
100707.68
100688.41
100646.45
100629.66
100749.28
103412.87
103755.46
103795.23
104066.9
104172.96
104379.28
104512.9
104676.63
104808.47
104939.9
105051.34
105150.52
105231.55
105295.71
105341.28
105368.44
105377
105367.44
105340.36
105296.71
105237.65
105164.5
105078.69
104981.73
104875.16
104760.48
104639.16
104512.59
104382.05
104248.74
104113.71
103977.92
103842.22
103707.32
103573.86
103442.36
103313.27
103186.95
103063.68
102943.7
102827.2
102714.28
102605.03
102499.5
102397.73
102299.7
102205.4
102114.78
102027.79
101944.35
101864.4
101787.83
101714.56
101644.49
101577.53
101513.56
101452.49
101394.21
101338.62
101285.61
101235.09
101186.95
101141.1
101097.44
101055.88
101016.34
100978.73
100942.97
100908.99
100876.71
100846.04
100816.98
100789.64
100763.36
100737.88
100717.29
100697.38
100658.13
100652.57
100751.68
104079.92
104471.9
104528.1
104822.46
104944.13
105159.49
105306.67
105474.77
105607.33
105731.74
105831.31
105912.14
105969.75
106005.39
106018.28
106009.24
105978.96
105928.72
105859.98
105774.46
105674.01
105560.55
105436.01
105302.27
105161.14
105014.31
104863.33
104709.6
104554.37
104398.74
104243.66
104089.94
103938.27
103789.21
103643.23
103500.71
103361.93
103227.12
103096.44
102970.01
102847.9
102730.11
102616.65
102507.5
102402.61
102301.92
102205.36
102112.82
102024.21
101939.43
101858.37
101780.91
101706.93
101636.32
101568.96
101504.73
101443.52
101385.2
101329.68
101276.84
101226.56
101178.76
101133.33
101090.17
101049.2
101010.32
100973.46
100938.53
100905.49
100874.23
100844.68
100816.89
100790.87
100765.88
100742.37
100723.82
100703.39
100668.3
100671.47
100751.01
104842.18
105280.53
105348.77
105660.41
105807.81
106043.01
106192.53
106354.52
106476.51
106580.95
106654.77
106702.78
106722.33
106715.16
106681.84
106624.23
106544.19
106444.03
106326.14
106193.02
106047.13
105890.86
105726.46
105555.99
105381.32
105204.11
105025.83
104847.71
104670.83
104496.07
104324.18
104155.75
103991.25
103831.05
103675.43
103524.6
103378.69
103237.77
103101.87
102971.03
102845.19
102724.27
102608.18
102496.86
102390.2
102288.07
102190.37
102096.94
102007.67
101922.42
101841.06
101763.44
101689.43
101618.9
101551.72
101487.76
101426.9
101369.01
101313.97
101261.68
101212.02
101164.89
101120.18
101077.81
101037.68
100999.71
100963.82
100929.94
100898
100867.92
100839.65
100813.26
100788.62
100765.07
100743.6
100726.82
100706.8
100676.16
100685.19
100746.8
105698.85
106184.7
106277.94
106626.52
106786.41
107010.65
107159.15
107300.41
107396.47
107463.75
107493.66
107490.87
107455.1
107389.4
107296.09
107178.42
107039.54
106882.78
106711.33
106528.25
106336.35
106138.17
105935.98
105731.73
105527.11
105323.53
105122.16
104923.97
104729.72
104540.01
104355.3
104175.93
104002.15
103834.12
103671.93
103515.6
103365.14
103220.47
103081.53
102948.26
102820.49
102698.05
102580.84
102468.71
102361.5
102259.07
102161.25
102067.89
101978.82
101893.89
101812.94
101735.83
101662.4
101592.52
101526.03
101462.82
101402.74
101345.68
101291.51
101240.11
101191.38
101145.21
101101.51
101060.17
101021.11
100984.26
100949.52
100916.85
100886.17
100857.4
100830.53
100805.62
100782.44
100760.47
100741.09
100726.04
100706.73
100679.47
100693.48
100740.18
106686.69
107230.93
107352.98
107699.44
107866.12
108071.39
108194.4
108292.88
108337.65
108343.4
108305.98
108231.44
108122.31
107983.42
107818.95
107633.46
107431.13
107215.91
106991.35
106760.61
106526.38
106290.99
106056.34
105824.01
105595.26
105371.08
105152.24
104939.31
104732.71
104532.72
104339.52
104153.2
103973.77
103801.2
103635.42
103476.32
103323.75
103177.55
103037.59
102903.7
102775.61
102653.14
102536.14
102424.41
102317.77
102216.03
102119.01
102026.53
101938.42
101854.49
101774.6
101698.57
101626.25
101557.5
101492.17
101430.11
101371.2
101315.31
101262.33
101212.13
101164.6
101119.64
101077.16
101037.07
100999.27
100963.7
100930.27
100898.94
100869.63
100842.27
100816.87
100793.47
100771.76
100751.45
100734.09
100720.35
100701.89
100679.06
100695.49
100729.42
107840.92
108423.75
108565.56
108893.59
109038.44
109192.2
109256.29
109278.91
109241.27
109157.9
109029.83
108865.15
108669.22
108448.52
108208.57
107954.59
107691.09
107421.96
107150.45
106879.24
106610.46
106345.82
106086.62
105833.83
105588.18
105350.15
105120.06
104898.1
104684.33
104478.75
104281.28
104091.79
103910.11
103736.05
103569.42
103409.98
103257.49
103111.73
102972.51
102839.56
102712.56
102591.34
102475.69
102365.41
102260.27
102160.08
102064.64
101973.75
101887.23
101804.9
101726.6
101652.15
101581.39
101514.18
101450.37
101389.82
101332.4
101277.99
101226.46
101177.7
101131.6
101088.07
101047
101008.32
100971.94
100937.78
100905.78
100875.87
100848.01
100822.12
100798.24
100776.34
100756.11
100737.51
100722
100709.28
100692.18
100674.19
100690.37
100713.01
109175.92
109751.82
109879.9
110150.99
110235.41
110296.48
110261.7
110172.87
110022.63
109827.07
109592.25
109328.21
109042.19
108741.33
108431.32
108117.02
107802.27
107490.1
107182.86
106882.27
106589.61
106305.75
106031.27
105766.51
105511.63
105266.65
105031.48
104805.99
104589.95
104383.12
104185.22
103995.97
103815.07
103642.22
103477.12
103319.47
103168.95
103025.33
102888.36
102757.67
102632.97
102514.09
102400.79
102292.83
102190
102092.09
101998.88
101910.19
101825.81
101745.59
101669.33
101596.87
101528.06
101462.75
101400.79
101342.05
101286.39
101233.7
101183.85
101136.75
101092.27
101050.33
101010.83
100973.69
100938.83
100906.18
100875.69
100847.28
100820.9
100796.52
100774.14
100753.72
100734.96
100718.06
100704.17
100692.3
100676.98
100663.49
100677.83
100691.23
110594.22
111149.11
111232.83
111390.81
111361.62
111278.32
111101.16
110868.57
110584.54
110266.45
109923.5
109565.79
109200.45
108833.47
108469.26
108111.13
107761.45
107421.85
107093.4
106776.73
106472.16
106179.79
105899.52
105631.15
105374.4
105128.92
104894.33
104670.25
104456.27
104251.98
104056.99
103870.91
103693.35
103523.97
103362.39
103208.26
103061.29
102921.21
102787.69
102660.34
102538.94
102423.28
102313.11
102208.2
102108.32
102013.26
101922.82
101836.8
101755
101677.27
101603.42
101533.29
101466.73
101403.59
101343.73
101287.02
101233.34
101182.56
101134.57
101089.26
101046.54
101006.31
100968.48
100932.98
100899.72
100868.64
100839.69
100812.8
100787.92
100765.02
100744.11
100725.09
100707.77
100692.44
100679.92
100668.84
100655.48
100645.78
100657.37
100663.62
112138.59
112559.58
112531.68
112483.01
112272.62
111997.27
111650.55
111265.33
110852.21
110426.17
109995.65
109568.04
109148.05
108739.09
108343.27
107961.91
107595.64
107244.7
106909.03
106588.35
106282.25
105990.25
105711.79
105446.3
105193.22
104951.99
104722.04
104502.84
104293.9
104094.73
103904.86
103723.86
103551.32
103386.85
103230.06
103080.59
102938.17
102802.5
102673.17
102549.87
102432.4
102320.52
102214
102112.59
102016.09
101924.27
101836.94
101753.91
101675
101600.03
101528.85
101461.28
101397.19
101336.43
101278.87
101224.37
101172.82
101124.1
101078.1
101034.72
100993.87
100955.45
100919.38
100885.58
100853.98
100824.51
100797.13
100771.76
100748.37
100726.94
100707.45
100689.78
100673.85
100659.97
100648.6
100638.32
100626.95
100620.17
100628.64
100630.15
113629.54
113651.88
113422.79
113101.85
112683.16
112219.55
111725.49
111222.6
110720.81
110228.84
109751.22
109291.13
108850.08
108428.75
108027.11
107644.8
107281.19
106935.51
106606.95
106294.67
105997.8
105715.49
105446.95
105191.42
104948.21
104716.66
104496.16
104286.13
104086.05
103895.41
103713.74
103540.61
103375.61
103218.34
103068.41
102925.52
102789.39
102659.67
102535.96
102418.05
102305.73
102198.75
102096.9
101999.95
101907.69
101819.92
101736.46
101657.12
101581.73
101510.13
101442.16
101377.67
101316.52
101258.58
101203.72
101151.81
101102.74
101056.4
101012.69
100971.5
100932.76
100896.36
100862.23
100830.3
100800.49
100772.75
100747.02
100723.25
100701.39
100681.42
100663.31
100646.96
100632.33
100619.73
100609.3
100599.75
100590.12
100585.64
100592.03
100589.17
114280.46
113974.14
113531.84
113010.78
112454.33
111890.28
111332.6
110791.26
110270.6
109773.34
109300.14
108850.81
108424.53
108020.26
107636.85
107273.1
106927.86
106599.99
106288.45
105992.25
105710.56
105442.57
105187.51
104944.65
104713.32
104492.92
104282.86
104082.62
103891.7
103709.63
103535.99
103370.38
103212.41
103061.7
102917.92
102780.85
102650.18
102525.54
102406.65
102293.34
102185.38
102082.55
101984.64
101891.43
101802.73
101718.35
101638.12
101561.86
101489.42
101420.64
101355.36
101293.46
101234.78
101179.21
101126.62
101076.9
101029.92
100985.6
100943.82
100904.5
100867.54
100832.87
100800.39
100770.04
100741.76
100715.48
100691.14
100668.7
100648.11
100629.35
100612.37
100597.1
100583.55
100571.88
100562.09
100553.4
100545.52
100541.51
100543.77
100541.4
113182.5
112894.82
112468.18
111967.51
111447.4
110926.78
110418.31
109927.79
109457.66
109008.87
108581.3
108174.46
107787.53
107419.6
107069.71
106736.89
106420.21
106118.77
105831.73
105558.27
105297.61
105049.17
104812.32
104586.49
104371.13
104165.73
103969.8
103782.89
103604.56
103434.41
103272.08
103117.22
102969.47
102828.53
102694.13
102566.03
102443.86
102327.3
102216.16
102110.24
102009.32
101913.2
101821.68
101734.58
101651.71
101572.9
101497.99
101426.83
101359.25
101295.13
101234.32
101176.69
101122.11
101070.46
101021.63
100975.5
100931.97
100890.95
100852.33
100816.03
100781.96
100750.03
100720.18
100692.34
100666.43
100642.4
100620.19
100599.75
100581.04
100564.03
100548.67
100534.92
100522.78
100512.31
100503.46
100495.9
100489.67
100485.96
100485.47
100484.22
109015.11
109824.71
109896.91
109858.89
109654.1
109389.7
109078.92
108749.62
108410.89
108071.89
107736.84
107409.04
107090.23
106781.56
106483.6
106196.62
105920.66
105655.61
105401.28
105157.4
104923.65
104699.64
104485.01
104279.4
104082.47
103893.9
103713.35
103540.52
103375.1
103216.83
103065.42
102920.61
102782.14
102649.78
102523.36
102402.57
102287.12
102176.82
102071.51
101971.01
101875.14
101783.74
101696.62
101613.64
101534.63
101459.44
101387.94
101319.99
101255.44
101194.17
101136.05
101080.97
101028.81
100979.45
100932.79
100888.73
100847.16
100808
100771.15
100736.52
100704.04
100673.62
100645.2
100618.69
100594.05
100571.2
100550.08
100530.66
100512.88
100496.71
100482.09
100469
100457.43
100447.36
100438.76
100431.55
100425.77
100421.63
100419.24
100418.17
110603.06
110649.58
110527.17
110271.1
109895.42
109450.64
108964.41
108457.41
107941.3
107422.47
106914.73
106417.51
105941.49
105481.79
105043.86
104637.29
104257.43
103918.68
103613.91
103341.55
103100.76
102887.09
102698.8
102532.77
102386.03
102254.93
102136.85
102029.38
101931.93
101848.09
101773.06
101703.75
101639.4
101579.03
101521.99
101467.77
101416.06
101366.64
101319.34
101274.02
101230.63
101189.09
101149.33
101111.37
101075.13
101040.58
101007.64
100976.27
100946.39
100917.96
100890.89
100865.14
100840.57
100817.21
100794.8
100773.53
100752.85
100733.38
100713.88
100696.03
100676.94
100660.8
100640.91
100627.15
100604.44
100594.86
100565.8
100563.97
100522.73
100536.3
100471.81
100513.61
100409.81
100499.15
100331.07
100498.86
100230.66
100517.34
100103.04
100564.91
96908.876
97112.578
97515.669
97952.589
98420.715
98919.208
99343.769
99708.118
100049.65
100356.12
100620.57
100851.51
101050.31
101219.84
101363.68
101482.54
101580.54
101658.02
101717.96
101760.85
101789.68
101805.24
101810.33
101804.19
101789.15
101765.69
101736.03
101703.56
101667.12
101628.75
101588.48
101546.65
101503.2
101459.15
101415.18
101371.7
101329.04
101287.46
101247.12
101208.14
101170.52
101134.31
101099.52
101066.12
101034.12
101003.49
100974.19
100946.19
100919.45
100893.92
100869.54
100846.27
100824
100802.76
100782.29
100762.8
100743.77
100725.77
100707.66
100691
100673.11
100657.82
100639.07
100625.74
100604.29
100594.55
100567.08
100564.6
100525.71
100537.21
100476.66
100514.51
100415.16
100500.68
100336.69
100501.15
100234.34
100522.72
100103.48
100572.75
104128.29
104163.32
104161.86
104132.05
104072.36
103990.31
103891.83
103780.97
103661.45
103537.78
103410.91
103283.78
103156.45
103031.08
102907.17
102788.89
102672.54
102564.82
102459.83
102364.87
102268.66
102183.91
102095.9
102020.69
101947.98
101885.25
101827.35
101771.29
101720.56
101659.19
101601.84
101547.81
101496.22
101447.11
101400.2
101355.29
101312.23
101270.88
101231.13
101192.93
101156.27
101121.09
101087.37
101055.04
101024.09
100994.49
100966.19
100939.17
100913.37
100888.76
100865.27
100842.87
100821.43
100800.99
100781.27
100762.5
100744.11
100726.75
100709.18
100693.03
100675.56
100660.68
100642.24
100629.18
100607.97
100598.3
100571.1
100568.44
100529.33
100540.65
100480.82
100517.17
100419.9
100502.54
100341.53
100502.38
100239
100524.21
100106.83
100575.49
101567.65
101569.88
101577.83
101593.04
101612.61
101633.13
101654.8
101678.06
101700.95
101724.08
101745.63
101766.4
101784.36
101799.83
101811.33
101819.71
101823.54
101823.56
101818.37
101809.15
101795.85
101779.02
101759.1
101734.27
101704.63
101671.58
101636.78
101598.91
101560.85
101522.99
101484.33
101445.7
101407.13
101368.79
101330.88
101293.54
101256.91
101221.13
101186.28
101152.44
101119.68
101088.04
101057.54
101028.19
100999.99
100972.94
100947.02
100922.22
100898.49
100875.82
100854.13
100833.4
100813.52
100794.52
100776.13
100758.59
100741.33
100725
100708.33
100693.05
100676.28
100662.12
100644.17
100631.71
100610.77
100601.64
100574.55
100572.34
100533.25
100544.83
100484.31
100521.62
100423.3
100506.93
100344.57
100506.84
100241.68
100528.34
100108.8
100579.24
101972.32
101980.17
101981.23
101979.63
101976.08
101970.3
101963
101955.47
101946.48
101936.84
101925.09
101913.31
101899.24
101884.98
101868.57
101849.8
101830.41
101807.26
101784.44
101757.18
101731.03
101700.1
101670.88
101637.23
101605.84
101570.5
101536.39
101501.97
101467.55
101433.06
101398.74
101364.63
101330.85
101297.48
101264.59
101232.24
101200.48
101169.39
101139.01
101109.4
101080.6
101052.66
101025.62
100999.48
100974.29
100950.03
100926.72
100904.34
100882.87
100862.29
100842.55
100823.63
100805.42
100787.97
100771.01
100754.77
100738.69
100723.42
100707.73
100693.3
100677.29
100663.78
100646.4
100634.4
100613.88
100605.03
100578.25
100576.13
100537.07
100548.67
100488.54
100525.41
100427.49
100510.52
100348.6
100510.03
100245.17
100531.55
100111.26
100582.33
101438.51
101443.92
101449.12
101456.54
101463.6
101470.8
101475.96
101482.55
101486.39
101491.71
101493.85
101496.19
101495.86
101495.61
101492.85
101489.63
101484.37
101478.6
101470.9
101462.49
101452.2
101441.35
101428.38
101414.55
101398.6
101381.58
101362.86
101342.95
101321.85
101299.81
101276.92
101253.33
101229.2
101204.66
101179.85
101154.92
101129.98
101105.17
101080.58
101056.33
101032.49
101009.15
100986.37
100964.2
100942.68
100921.85
100901.72
100882.3
100863.57
100845.54
100828.15
100811.41
100795.2
100779.58
100764.3
100749.58
100734.9
100720.87
100706.31
100692.85
100677.74
100664.95
100648.25
100636.76
100616.75
100608.2
100581.8
100579.77
100541.13
100552.52
100492.43
100529.2
100431.38
100514.18
100352.19
100513.53
100248.39
100534.8
100113.57
100585.27
101250.53
101257.59
101262.94
101268.96
101275.34
101281.48
101286.33
101291.6
101294.25
101298.61
101299.67
101303.29
101303.38
101305.52
101305.08
101304.52
101301.67
101299.02
101294.59
101289.69
101283.35
101276.15
101267.72
101258.25
101247.68
101236.05
101223.4
101209.81
101195.31
101180
101163.91
101147.15
101129.79
101111.92
101093.65
101075.05
101056.23
101037.29
101018.29
100999.36
100980.57
100962
100943.71
100925.76
100908.2
100891.07
100874.39
100858.19
100842.46
100827.2
100812.38
100798.01
100783.98
100770.35
100756.91
100743.84
100730.66
100717.97
100704.62
100692.19
100678.04
100666.01
100650.06
100639.06
100619.62
100611.31
100585.39
100583.33
100545.11
100556.24
100496.51
100532.82
100435.52
100517.66
100356.18
100516.72
100251.78
100537.84
100115.94
100587.98
100983.9
100991.02
100996.8
101003.64
101010.73
101017.98
101024.34
101032.42