/*--------------------------------*- C++ -*----------------------------------*\
  =========                 |
  \\      /  F ield         | OpenFOAM: The Open Source CFD Toolbox
   \\    /   O peration     | Website:  https://openfoam.org
    \\  /    A nd           | Version:  6
     \\/     M anipulation  |
\*---------------------------------------------------------------------------*/
FoamFile
{
    version     2.0;
    format      ascii;
    class       surfaceScalarField;
    location    "400";
    object      phi;
}
// * * * * * * * * * * * * * * * * * * * * * * * * * * * * * * * * * * * * * //

dimensions      [1 0 -1 0 0 0 0];

internalField   nonuniform List<scalar> 
31760
(
-0.00058578893
-0.038740413
0.039326192
-0.0013029423
-0.043071414
0.043788556
-0.0020379979
-0.044149426
0.044884474
-0.0028277926
-0.046754177
0.047543963
-0.0036370338
-0.048587657
0.049396893
-0.0045016562
-0.051072373
0.051936988
-0.0053948371
-0.053305097
0.054198275
-0.0063408049
-0.055884211
0.056830173
-0.0073239811
-0.058420366
0.059403539
-0.0083596515
-0.061181181
0.062216846
-0.0094403428
-0.06399754
0.065078229
-0.010575396
-0.066990284
0.068125332
-0.011761652
-0.070090164
0.071276418
-0.013005313
-0.073352303
0.074595959
-0.014306187
-0.076751642
0.078052515
-0.015668645
-0.080315164
0.081677618
-0.017093838
-0.084037805
0.085462996
-0.018585114
-0.087934504
0.089425776
-0.020144457
-0.092009123
0.093568465
-0.021774966
-0.096272366
0.097902872
-0.02347889
-0.10073187
0.1024358
-0.025259332
-0.10539767
0.10717811
-0.027118286
-0.11027938
0.11213834
-0.029058666
-0.11538754
0.11732792
-0.031082817
-0.12073289
0.12275704
-0.033192839
-0.12632761
0.12843763
-0.035391086
-0.13218327
0.13438151
-0.03767988
-0.13831329
0.14060209
-0.040060862
-0.14473123
0.14711221
-0.042535446
-0.15145177
0.15392635
-0.045105374
-0.1584899
0.16105982
-0.047771471
-0.16586228
0.16852837
-0.050534758
-0.1735854
0.17634868
-0.053395163
-0.18167781
0.18453821
-0.056352677
-0.19015859
0.1931161
-0.059406995
-0.19904773
0.20210204
-0.062557367
-0.20836627
0.21151664
-0.065801678
-0.2181374
0.22138171
-0.06913807
-0.22838443
0.23172082
-0.072563506
-0.2391323
0.24255773
-0.076074666
-0.25040729
0.25391845
-0.079666925
-0.26223727
0.26582953
-0.083335392
-0.27465096
0.27831942
-0.087073576
-0.2876797
0.29141788
-0.090874627
-0.30135496
0.30515601
-0.094730483
-0.31571116
0.31956702
-0.098631362
-0.33078357
0.33468444
-0.10256686
-0.34660983
0.35054533
-0.10652492
-0.36322899
0.36718704
-0.11049132
-0.38068276
0.38464916
-0.11445092
-0.39901394
0.40297353
-0.11838577
-0.41826831
0.42220316
-0.12227607
-0.43849354
0.44238384
-0.12609911
-0.45973987
0.46356291
-0.1298301
-0.48205951
0.48579051
-0.1334404
-0.50550805
0.50911835
-0.13689832
-0.53014354
0.53360145
-0.14016747
-0.55602713
0.55929628
-0.14320786
-0.58322159
0.58626197
-0.14597395
-0.61179406
0.61456015
-0.14841472
-0.64181516
0.64425593
-0.15047287
-0.67335731
0.67541546
-0.15208534
-0.70649908
0.70811154
-0.15317839
-0.74131906
0.74241211
-0.15367562
-0.7779043
0.77840153
-0.15347951
-0.81633695
0.81614084
-0.1525027
-0.85671657
0.85573976
-0.15060551
-0.89910673
0.89720954
-0.14771423
-0.94365088
0.94075961
-0.14359688
-0.99033984
0.98622249
-0.13826113
-1.0394705
1.0341347
-0.13127211
-1.0907755
1.0837865
-0.12288175
-1.1450706
1.1366803
-0.11213782
-1.2011154
1.1903715
-0.099947422
-1.2614663
1.2492759
-0.084372921
-1.3216067
1.3060322
-0.067472341
-1.389485
1.3725845
-0.04600134
-1.4520114
1.4305404
-0.022868453
-1.528924
1.5057911
-1.5946473
1.5661044
-0.00056511858
-0.038175299
-0.0012396656
-0.042396871
-0.0019345552
-0.043454539
-0.0026802336
-0.046008503
-0.0034484984
-0.047819395
-0.0042655883
-0.050255288
-0.0051130702
-0.052457618
-0.0060094053
-0.054987881
-0.006943645
-0.057486128
-0.0079276056
-0.060197225
-0.008956064
-0.062969083
-0.010036841
-0.065909511
-0.011168
-0.068959005
-0.012355297
-0.07216501
-0.013598308
-0.075508631
-0.014901608
-0.079011868
-0.016266344
-0.082673068
-0.017696082
-0.086504769
-0.019192778
-0.090512428
-0.020759433
-0.094705713
-0.022398408
-0.099092899
-0.024112335
-0.10368375
-0.025904153
-0.10848757
-0.027776017
-0.11351568
-0.029730257
-0.11877865
-0.031769545
-0.12428832
-0.033895948
-0.13005686
-0.036111555
-0.13609769
-0.038417837
-0.14242495
-0.040816834
-0.14905278
-0.04330971
-0.15599702
-0.045897509
-0.16327448
-0.048580912
-0.170902
-0.05135991
-0.17889881
-0.054234883
-0.18728362
-0.057204941
-0.19607767
-0.060268812
-0.2053024
-0.063425478
-0.21498073
-0.066672636
-0.22513727
-0.070007341
-0.2357976
-0.07342635
-0.24698828
-0.076925493
-0.25873813
-0.080499621
-0.27107683
-0.084143215
-0.28403611
-0.08784951
-0.29764866
-0.091611053
-0.31194962
-0.095418857
-0.32697576
-0.09926316
-0.34276553
-0.10313252
-0.35935963
-0.10701458
-0.3768007
-0.11089468
-0.39513383
-0.11475691
-0.41440608
-0.11858307
-0.43466738
-0.12235262
-0.45597031
-0.12604253
-0.4783696
-0.12962697
-0.50192362
-0.13307671
-0.5266938
-0.13635968
-0.55274416
-0.13943848
-0.58014278
-0.14227182
-0.60896072
-0.14481418
-0.63927281
-0.14701273
-0.67115875
-0.14881039
-0.70470141
-0.15014066
-0.73998879
-0.15093168
-0.77711328
-0.15110095
-0.81616768
-0.15055901
-0.85725851
-0.14919534
-0.9004704
-0.14691494
-0.94593129
-0.14354992
-0.99370486
-0.13903445
-1.0439859
-0.1330836
-1.0967264
-0.12575832
-1.1523959
-0.11646561
-1.2104081
-0.10563626
-1.2722957
-0.091986484
-1.3352565
-0.076813868
-1.4046577
-0.057758422
-1.4710669
-0.037073698
-1.5496087
-1.6200931
-0.00053154356
-0.03764376
-0.0011803998
-0.041748021
-0.0018347184
-0.042800224
-0.0025436574
-0.04529957
-0.0032699338
-0.047093121
-0.00404793
-0.049477298
-0.0048527431
-0.051652806
-0.0057075674
-0.054133062
-0.0065978836
-0.056595812
-0.0075384867
-0.059256627
-0.008521884
-0.061985686
-0.0095572368
-0.064874163
-0.010642209
-0.067874033
-0.011782279
-0.071024944
-0.012978158
-0.074312752
-0.014233247
-0.077756782
-0.015549751
-0.081356563
-0.016930231
-0.085124292
-0.018377654
-0.089065003
-0.01989439
-0.09318898
-0.021483272
-0.097504016
-0.023147137
-0.10201989
-0.024887773
-0.10674693
-0.026708594
-0.11169486
-0.028611789
-0.11687546
-0.030599506
-0.12230061
-0.032673909
-0.12798246
-0.03483692
-0.13393468
-0.03709059
-0.14017128
-0.039436344
-0.14670703
-0.041875053
-0.15355831
-0.04440829
-0.16074125
-0.047036011
-0.16827428
-0.049759058
-0.17617577
-0.052576844
-0.18446583
-0.055488869
-0.19316565
-0.058493905
-0.20229736
-0.061590248
-0.21188439
-0.064776063
-0.22195146
-0.068049073
-0.23252459
-0.0714052
-0.24363216
-0.07484105
-0.25530228
-0.07835194
-0.26756594
-0.081932656
-0.2804554
-0.085576873
-0.29400445
-0.089277483
-0.30824901
-0.093026716
-0.32322653
-0.096815479
-0.33897677
-0.10063376
-0.35554135
-0.10446993
-0.37296453
-0.10831112
-0.39129265
-0.11214287
-0.41057434
-0.1159486
-0.43086164
-0.11971018
-0.45220874
-0.12340699
-0.47467279
-0.12701559
-0.49831502
-0.13051005
-0.52319934
-0.13386099
-0.54939322
-0.13703536
-0.57696841
-0.1399962
-0.60599988
-0.14270163
-0.63656738
-0.1451054
-0.66875498
-0.14715482
-0.702652
-0.14879163
-0.73835198
-0.14995002
-0.77595489
-0.15055392
-0.81556378
-0.15052726
-0.85728517
-0.14976864
-0.90122902
-0.14818323
-0.9475167
-0.14564124
-0.99624685
-0.14204829
-1.0475789
-0.13719846
-1.1015762
-0.13105771
-1.1585367
-0.12323419
-1.2182316
-0.11392023
-1.2816096
-0.10221541
-1.3469613
-0.088951811
-1.4179213
-0.072365876
-1.4876528
-0.05404544
-1.5679291
-1.6423662
-0.00050069975
-0.037143063
-0.0011293786
-0.041119346
-0.0017493715
-0.042180233
-0.0024272672
-0.044621679
-0.0031186374
-0.046401752
-0.0038635023
-0.048732437
-0.0046329263
-0.050883383
-0.0054529323
-0.05331306
-0.0063073016
-0.055741444
-0.0072119379
-0.058351995
-0.0081590307
-0.061038594
-0.0091578519
-0.063875345
-0.010205989
-0.066825896
-0.011309442
-0.069921493
-0.012468272
-0.073153921
-0.013686736
-0.076538321
-0.014966389
-0.080076909
-0.01631073
-0.083779954
-0.017721961
-0.08765377
-0.019203256
-0.091707688
-0.020756942
-0.095950329
-0.022385651
-0.10039118
-0.024092402
-0.10504018
-0.025879546
-0.10990772
-0.027749285
-0.11500572
-0.029704257
-0.12034564
-0.031746226
-0.12594049
-0.033877486
-0.13180343
-0.036099482
-0.13794928
-0.038413815
-0.1443927
-0.04082152
-0.15115061
-0.043323412
-0.15823936
-0.045920281
-0.16567741
-0.048611822
-0.17348423
-0.051397847
-0.18167981
-0.054278023
-0.19028548
-0.057251039
-0.19932435
-0.060315172
-0.20882026
-0.06346845
-0.21879818
-0.066708471
-0.22928457
-0.070032353
-0.24030828
-0.073436264
-0.25189837
-0.076916001
-0.2640862
-0.080466821
-0.27690458
-0.084083153
-0.29038812
-0.087758767
-0.3045734
-0.091486632
-0.31949867
-0.095258784
-0.33520462
-0.099066189
-0.35173394
-0.1028987
-0.36913202
-0.10674532
-0.38744603
-0.11059261
-0.40672705
-0.11442675
-0.42702751
-0.11823151
-0.44840398
-0.12198818
-0.47091612
-0.12567674
-0.49462646
-0.12927442
-0.51960166
-0.13275466
-0.54591297
-0.13608859
-0.57363448
-0.13924348
-0.60284499
-0.14218234
-0.63362852
-0.14486373
-0.66607358
-0.14724143
-0.70027429
-0.14926288
-0.73633054
-0.15087
-0.77434777
-0.15199703
-0.81443675
-0.15257
-0.8567122
-0.15250425
-0.90129478
-0.15171235
-0.94830859
-0.15008308
-0.99787613
-0.14751418
-1.0501478
-0.14385417
-1.1052362
-0.13902165
-1.1633692
-0.13273834
-1.224515
-0.12507447
-1.2892735
-0.11537204
-1.3566637
-0.10416689
-1.4291264
-0.090112559
-1.5017072
-0.074425736
-1.583616
-1.6614686
-0.00047272246
-0.036670342
-0.0010860442
-0.040506026
-0.0016767199
-0.04158956
-0.0023292165
-0.043969185
-0.0029915636
-0.045739407
-0.0037097799
-0.048014225
-0.0044508032
-0.050142362
-0.0052435639
-0.052520304
-0.0060702224
-0.054914787
-0.0069473318
-0.05747489
-0.0078673646
-0.060118562
-0.0088397008
-0.062903013
-0.0098619678
-0.065803629
-0.010939799
-0.068843666
-0.012073957
-0.072019763
-0.013268666
-0.075343615
-0.014525627
-0.078819947
-0.015848348
-0.082457236
-0.017239096
-0.086263022
-0.018700792
-0.090245995
-0.020236505
-0.094414616
-0.021848742
-0.098778947
-0.023540293
-0.10334863
-0.025313247
-0.10813477
-0.02717067
-0.1131483
-0.029114388
-0.11840193
-0.031146715
-0.12390816
-0.033269142
-0.129681
-0.035483771
-0.13573465
-0.037791262
-0.14208521
-0.04019328
-0.14874859
-0.042690189
-0.15574245
-0.045282469
-0.16308513
-0.047970192
-0.17079651
-0.050753051
-0.17889695
-0.053629964
-0.18740857
-0.056600237
-0.19635407
-0.059662475
-0.20575803
-0.062814309
-0.21564635
-0.066053374
-0.2260455
-0.069377497
-0.23698415
-0.07278306
-0.24849281
-0.076266406
-0.26060286
-0.079823543
-0.27334744
-0.083449458
-0.2867622
-0.087139056
-0.3008838
-0.090885989
-0.31575174
-0.094683482
-0.33140713
-0.098524043
-0.34789338
-0.10239914
-0.36525692
-0.10629867
-0.3835465
-0.11021234
-0.40281338
-0.11412749
-0.42311236
-0.11803034
-0.44450113
-0.12190558
-0.46704088
-0.12573531
-0.49079673
-0.12949959
-0.51583738
-0.13317631
-0.54223625
-0.13674015
-0.57007064
-0.14016262
-0.59942252
-0.14341135
-0.63037979
-0.14645057
-0.66303436
-0.14923956
-0.6974853
-0.15173273
-0.73383736
-0.15387893
-0.77220157
-0.15562018
-0.81269551
-0.15689141
-0.85544097
-0.1576202
-0.90056599
-0.15772613
-0.94820265
-0.15711094
-0.99849132
-0.15568554
-1.0515732
-0.15332098
-1.1076008
-0.14992596
-1.1667642
-0.14529026
-1.2291506
-0.1394087
-1.2951551
-0.13181197
-1.3642605
-0.12282328
-1.4381151
-0.11138374
-1.5131467
-0.098442419
-1.5965573
-1.6773144
-0.0004498715
-0.036220477
-0.0010470634
-0.039908842
-0.0016149124
-0.041021715
-0.0022489297
-0.043335174
-0.0028899204
-0.04509842
-0.003589343
-0.047314808
-0.0043106798
-0.049421028
-0.0050851375
-0.051745852
-0.0058937941
-0.054106132
-0.0067541057
-0.056614583
-0.0076580065
-0.059214662
-0.0086153026
-0.061945721
-0.0096240544
-0.064794877
-0.010689867
-0.067777856
-0.011813712
-0.070895917
-0.012999322
-0.074158009
-0.014249384
-0.077569884
-0.015566759
-0.081139864
-0.016954513
-0.084875268
-0.018415609
-0.088784902
-0.019952425
-0.0928778
-0.021568423
-0.097162952
-0.023265586
-0.10165146
-0.025047028
-0.10635333
-0.026914774
-0.11128055
-0.028871046
-0.11644566
-0.030918004
-0.12186121
-0.033057211
-0.1275418
-0.03529016
-0.13350171
-0.037618076
-0.13975729
-0.040041929
-0.14632474
-0.042561932
-0.15322245
-0.045178692
-0.16046837
-0.047891956
-0.16808325
-0.050701337
-0.17608757
-0.053606136
-0.18450377
-0.056605305
-0.1933549
-0.059697449
-0.20266589
-0.062880772
-0.21246302
-0.066153226
-0.22277305
-0.069512438
-0.23362494
-0.072955723
-0.24504952
-0.076480284
-0.2570783
-0.080082207
-0.26974552
-0.08375787
-0.28308654
-0.087502875
-0.2971388
-0.09131243
-0.31194218
-0.095181241
-0.32753832
-0.099102598
-0.34397203
-0.10306997
-0.36128954
-0.10707564
-0.37954084
-0.1111105
-0.39877852
-0.11516475
-0.4190581
-0.11922689
-0.44043899
-0.12328398
-0.46298379
-0.1273217
-0.48675901
-0.13132352
-0.51183557
-0.13527045
-0.53828933
-0.13914161
-0.56619947
-0.1429123
-0.59565183
-0.14655617
-0.62673592
-0.15004177
-0.65954876
-0.15333495
-0.69419211
-0.1563966
-0.73077571
-0.1591827
-0.76941547
-0.16164344
-0.81023477
-0.16372385
-0.85336056
-0.16536018
-0.89892966
-0.16647848
-0.94708436
-0.16700332
-0.99796648
-0.16684378
-1.0517327
-0.16590169
-1.1085429
-0.1640791
-1.1685868
-0.16122172
-1.232008
-0.15728184
-1.2990949
-0.15190831
-1.369634
-0.14530554
-1.4447179
-0.13661678
-1.5218355
-0.12661316
-1.6065609
-1.6898063
-0.00043381058
-0.03578667
-0.0010089547
-0.039333703
-0.0015616792
-0.040468994
-0.0021854408
-0.042711418
-0.002813846
-0.044470017
-0.0035035242
-0.046625135
-0.0042151015
-0.048709452
-0.0049813488
-0.050979609
-0.0057832398
-0.053304242
-0.0066381146
-0.055759712
-0.007538672
-0.058314104
-0.0084942609
-0.060990135
-0.0095033795
-0.063785758
-0.010571558
-0.06670968
-0.011700668
-0.069766807
-0.012894167
-0.072964512
-0.014154661
-0.07630939
-0.015485867
-0.079808661
-0.016890069
-0.083471065
-0.018370847
-0.087304128
-0.019930889
-0.091317758
-0.021572847
-0.095520997
-0.023299875
-0.099924436
-0.025113918
-0.10453929
-0.027017338
-0.10937713
-0.029012616
-0.11445038
-0.031101275
-0.11977255
-0.03328506
-0.12535802
-0.035564951
-0.13122181
-0.037942122
-0.13738013
-0.040417341
-0.14384952
-0.04299104
-0.15064875
-0.045663085
-0.15779632
-0.048433627
-0.16531271
-0.051301901
-0.1732193
-0.054267371
-0.1815383
-0.057329119
-0.19029316
-0.060485495
-0.19950951
-0.063735799
-0.20921272
-0.067077752
-0.2194311
-0.07050964
-0.23019305
-0.074029658
-0.24152951
-0.077635148
-0.25347281
-0.081323944
-0.26605673
-0.08509313
-0.27931735
-0.088939448
-0.29329248
-0.0928593
-0.30802233
-0.096848726
-0.32354889
-0.10090363
-0.33991712
-0.10501853
-0.35717464
-0.10918781
-0.37537156
-0.11340464
-0.39456169
-0.11766168
-0.41480106
-0.12195022
-0.43615045
-0.12626013
-0.45867387
-0.13058022
-0.48243892
-0.13489706
-0.50751873
-0.13919616
-0.53399022
-0.14345998
-0.56193565
-0.14766968
-0.59144214
-0.15180238
-0.62260322
-0.15583338
-0.65551775
-0.15973378
-0.69029172
-0.16347158
-0.72703791
-0.16701031
-0.76587674
-0.17030882
-0.80693626
-0.17331832
-0.85035105
-0.17598578
-0.89626221
-0.1782533
-0.94481684
-0.18005152
-0.99616825
-0.18130558
-1.0504787
-0.18192982
-1.1079186
-0.18183936
-1.1686772
-0.18090976
-1.2329376
-0.17907887
-1.3009258
-0.17608142
-1.3726314
-0.17204406
-1.4487552
-0.16626899
-1.5276105
-0.15938159
-1.6134483
-1.6988112
-0.00042457294
-0.035362101
-0.0009892624
-0.038769019
-0.0015339691
-0.03992429
-0.0021550322
-0.04209036
-0.0027794503
-0.043845601
-0.0034681065
-0.045936484
-0.0041798476
-0.047997712
-0.0049483973
-0.050211064
-0.0057549146
-0.052497725
-0.0066164923
-0.054898138
-0.0075268689
-0.057403728
-0.0084946433
-0.060022364
-0.0095196487
-0.062760752
-0.010607051
-0.065622281
-0.011758619
-0.068615239
-0.01297858
-0.071744554
-0.014269588
-0.075018381
-0.015634916
-0.078443337
-0.017078001
-0.08202798
-0.018601471
-0.08578066
-0.020208687
-0.089710541
-0.02190218
-0.093827507
-0.023684575
-0.098142041
-0.025558543
-0.10266533
-0.027526051
-0.10740962
-0.029588848
-0.11238759
-0.03174874
-0.11761265
-0.034006942
-0.12309982
-0.036364759
-0.128864
-0.038822767
-0.13492212
-0.041381476
-0.14129081
-0.04404108
-0.14798915
-0.046801662
-0.15503574
-0.049662692
-0.16245168
-0.052624096
-0.17025789
-0.055685248
-0.17847715
-0.058844773
-0.18713363
-0.062102504
-0.19625178
-0.065457019
-0.20585821
-0.068907482
-0.21598064
-0.072452194
-0.22664834
-0.076090382
-0.23789132
-0.079820721
-0.24974247
-0.083641664
-0.26223578
-0.087551516
-0.2754075
-0.091548402
-0.2892956
-0.095630825
-0.30393991
-0.099796285
-0.31938343
-0.1040418
-0.33567161
-0.10836475
-0.35285169
-0.11276133
-0.37097498
-0.11722741
-0.39009562
-0.12175798
-0.41027049
-0.126347
-0.43156143
-0.13098805
-0.45403282
-0.13567225
-0.47775472
-0.14039088
-0.5028001
-0.14513261
-0.52924849
-0.14988494
-0.55718332
-0.15463272
-0.58669436
-0.15935949
-0.61787645
-0.16404527
-0.65083197
-0.16866793
-0.68566906
-0.17320195
-0.72250388
-0.17761824
-0.76146046
-0.18188393
-0.80267056
-0.18596049
-0.84627449
-0.1898057
-0.892417
-0.19336812
-0.94125442
-0.19659451
-0.99294186
-0.19941997
-1.0476532
-0.20177452
-1.1055641
-0.20358835
-1.1668634
-0.20476433
-1.2317617
-0.20523278
-1.3004574
-0.20479778
-1.3730664
-0.20352703
-1.450026
-0.20085439
-1.5302832
-0.19729191
-1.6170108
-1.7041505
-0.00042037774
-0.034941726
-0.00098971625
-0.038199685
-0.0015338769
-0.039380132
-0.0021601714
-0.04146407
-0.0027898424
-0.043215932
-0.0034871896
-0.045239141
-0.0042102605
-0.047274642
-0.0049926249
-0.049428704
-0.0058169152
-0.051673434
-0.0066991497
-0.054015907
-0.0076345137
-0.056468363
-0.0086310701
-0.059025811
-0.0096893668
-0.061702455
-0.010814358
-0.064497292
-0.012008555
-0.067421042
-0.01327608
-0.070477032
-0.014619801
-0.07367466
-0.016043347
-0.077019794
-0.017549655
-0.080521672
-0.019142137
-0.084188181
-0.020823604
-0.088029074
-0.022596776
-0.092054338
-0.024463982
-0.096274835
-0.02642742
-0.10070189
-0.028489396
-0.10534765
-0.03065126
-0.11022573
-0.032914303
-0.11534961
-0.035279776
-0.12073435
-0.037748305
-0.12639547
-0.040320698
-0.13234973
-0.042996668
-0.13861484
-0.045776797
-0.14520902
-0.048660493
-0.15215204
-0.051647868
-0.1594643
-0.054738549
-0.16716721
-0.057931627
-0.17528407
-0.061227393
-0.18383787
-0.064624934
-0.19285424
-0.068123808
-0.20235933
-0.071723833
-0.21238061
-0.075424985
-0.22294719
-0.079226442
-0.23408987
-0.083128178
-0.24584073
-0.087130224
-0.25823374
-0.091232678
-0.27130505
-0.095434993
-0.28509328
-0.099737012
-0.29963789
-0.10413828
-0.31498216
-0.10863838
-0.33117151
-0.11323623
-0.34825385
-0.11793076
-0.36628045
-0.1227204
-0.38530598
-0.12760268
-0.4053882
-0.13257498
-0.42658914
-0.13763322
-0.44897458
-0.14277346
-0.47261448
-0.14798946
-0.4975841
-0.15327479
-0.52396316
-0.15862102
-0.55183709
-0.16401838
-0.581297
-0.16945499
-0.61243984
-0.17491748
-0.64536948
-0.18039
-0.68019654
-0.18585369
-0.71704019
-0.19128768
-0.75602647
-0.1966669
-0.79729134
-0.20196377
-0.84097762
-0.20714234
-0.88723842
-0.2121682
-0.93622856
-0.21699351
-0.98811655
-0.22157073
-1.043076
-0.22584615
-1.1012886
-0.22975674
-1.1629528
-0.23323472
-1.2282837
-0.2362164
-1.2974757
-0.23855379
-1.370729
-0.24027461
-1.4483052
-0.24092619
-1.5296316
-0.24091671
-1.6170203
-1.7055945
-0.00042322063
-0.03451851
-0.0010044519
-0.037618459
-0.0015577309
-0.038826855
-0.0021995612
-0.040822245
-0.0028460628
-0.042569432
-0.0035640132
-0.044521195
-0.0043117901
-0.046526866
-0.0051221086
-0.048618389
-0.0059795224
-0.05081602
-0.0068989021
-0.053096531
-0.0078769521
-0.055490313
-0.0089211378
-0.057981628
-0.010033016
-0.060590576
-0.011217294
-0.063313017
-0.012477257
-0.066161077
-0.013816475
-0.069137817
-0.01523862
-0.072252515
-0.016747005
-0.075511412
-0.018345099
-0.078923578
-0.02003571
-0.082497572
-0.021821487
-0.086243297
-0.023705247
-0.090170581
-0.025689179
-0.094290904
-0.027775293
-0.09861578
-0.029964791
-0.10315815
-0.032259399
-0.10793112
-0.03466008
-0.11294893
-0.03716747
-0.11822696
-0.039781672
-0.12378127
-0.042503356
-0.12962805
-0.045332426
-0.13578577
-0.048268803
-0.14227265
-0.051312236
-0.14910861
-0.054462938
-0.1563136
-0.05772024
-0.16390991
-0.061084695
-0.17191962
-0.064555928
-0.18036663
-0.068134206
-0.18927596
-0.071820454
-0.19867309
-0.0756148
-0.20858627
-0.07951793
-0.21904406
-0.083531302
-0.2300765
-0.087655875
-0.24171616
-0.091893207
-0.25399641
-0.096244444
-0.26695381
-0.10071181
-0.28062592
-0.1052964
-0.2950533
-0.11000038
-0.31027818
-0.1148251
-0.32634679
-0.11977209
-0.34330686
-0.12484288
-0.36120966
-0.13003831
-0.38011055
-0.13535937
-0.40006715
-0.14080597
-0.42114254
-0.14637848
-0.44340207
-0.15207549
-0.46691747
-0.15789551
-0.49176407
-0.16383617
-0.51802251
-0.16989377
-0.54577949
-0.17606346
-0.5751273
-0.18233964
-0.60616366
-0.18871437
-0.63899475
-0.19517808
-0.67373283
-0.20172011
-0.71049816
-0.20832664
-0.74941994
-0.21498192
-0.79063605
-0.22166568
-0.83429386
-0.22835804
-0.88054607
-0.23502831
-0.92955829
-0.24164804
-0.98149682
-0.2481801
-1.0365439
-0.25458287
-1.0948859
-0.26080997
-1.1567257
-0.26681588
-1.2222778
-0.27254197
-1.2917496
-0.27789503
-1.365376
-0.2828619
-1.4433383
-0.28709384
-1.5253997
-0.29089663
-1.6132176
-1.7028658
-0.00043407505
-0.034084439
-0.0010378618
-0.037014678
-0.0016112609
-0.038253459
-0.0022798361
-0.040153675
-0.0029560101
-0.04189326
-0.0037078996
-0.04376931
-0.0044953923
-0.045739374
-0.0053496005
-0.047764185
-0.0062576461
-0.049907976
-0.0072328741
-0.052121306
-0.008273946
-0.054449241
-0.0093874944
-0.056868083
-0.010576164
-0.059401907
-0.011844571
-0.062044613
-0.013196124
-0.064809524
-0.014634887
-0.067699057
-0.016164496
-0.070722907
-0.017788166
-0.073887745
-0.019509112
-0.077202632
-0.021330157
-0.08067653
-0.023254122
-0.084319332
-0.025282839
-0.088141866
-0.027418344
-0.092155399
-0.02966193
-0.096372197
-0.032015096
-0.10080498
-0.034478576
-0.10546764
-0.037052733
-0.11037477
-0.039737912
-0.11554178
-0.042534498
-0.12098468
-0.045441991
-0.12672056
-0.048460875
-0.13276689
-0.051590559
-0.13914297
-0.054831571
-0.1458676
-0.05818365
-0.15296153
-0.061647459
-0.1604461
-0.065223144
-0.16834394
-0.068912036
-0.17667774
-0.07271503
-0.18547297
-0.076633606
-0.19475451
-0.080669691
-0.20455019
-0.084825649
-0.2148881
-0.089103384
-0.22579876
-0.093506592
-0.23731295
-0.098037643
-0.24946536
-0.10270051
-0.26229095
-0.1074984
-0.27582803
-0.11243559
-0.29011611
-0.11751555
-0.30519822
-0.12274263
-0.32111972
-0.12812098
-0.3379285
-0.13365461
-0.35567603
-0.13934745
-0.37441771
-0.14520342
-0.39421118
-0.15122637
-0.41511959
-0.15741922
-0.43720922
-0.16378533
-0.46055136
-0.17032746
-0.48522194
-0.1770471
-0.51130287
-0.18394617
-0.53888042
-0.19102525
-0.56804822
-0.19828347
-0.59890544
-0.20572021
-0.63155801
-0.21333289
-0.66612016
-0.22111749
-0.70271355
-0.22906877
-0.74146867
-0.23717996
-0.78252486
-0.24544228
-0.82603154
-0.25384249
-0.87214586
-0.26236644
-0.92103434
-0.27099204
-0.97287121
-0.27969953
-1.0278364
-0.28846256
-1.0861228
-0.2972518
-1.1479365
-0.30603611
-1.2134935
-0.31477281
-1.2830129
-0.32340354
-1.3567452
-0.33190237
-1.4348395
-0.34000396
-1.5172981
-0.34793066
-1.6052909
-1.6956431
-0.00045231652
-0.033632125
-0.001088842
-0.036378156
-0.0016937491
-0.037648554
-0.0024014193
-0.039446008
-0.0031216216
-0.041173058
-0.0039225358
-0.042968399
-0.0047669054
-0.044895005
-0.0056833253
-0.046847768
-0.0066621668
-0.048929134
-0.0077149933
-0.051068482
-0.0088424512
-0.053321783
-0.01005059
-0.055659947
-0.011342882
-0.058109615
-0.012723832
-0.060663665
-0.014197391
-0.063335966
-0.015767266
-0.066129185
-0.017437172
-0.069053001
-0.019210179
-0.072114741
-0.021089215
-0.075323595
-0.023076813
-0.078688935
-0.025175036
-0.082221108
-0.027385585
-0.08593132
-0.029709962
-0.089831022
-0.032148875
-0.093933286
-0.034702884
-0.098250972
-0.037372309
-0.10279822
-0.040157277
-0.10758981
-0.043057657
-0.1126414
-0.046073424
-0.11796891
-0.049204444
-0.12358954
-0.052450372
-0.12952096
-0.055811721
-0.13578162
-0.059288775
-0.14239054
-0.062882
-0.1493683
-0.066592729
-0.15673537
-0.070422406
-0.16451426
-0.074372929
-0.17272722
-0.078446854
-0.18139905
-0.082646564
-0.1905548
-0.086975938
-0.20022081
-0.091438514
-0.21042552
-0.09603896
-0.22119832
-0.10078126
-0.23257065
-0.10567122
-0.2445754
-0.11071403
-0.25724814
-0.11591562
-0.27062643
-0.12128214
-0.28474959
-0.12681989
-0.29966046
-0.13253573
-0.31540388
-0.13843645
-0.33202778
-0.14452885
-0.34958364
-0.15082048
-0.36812608
-0.15731818
-0.38771348
-0.16402939
-0.40840838
-0.17096127
-0.43027734
-0.17812093
-0.4533917
-0.18551534
-0.47782753
-0.1931516
-0.50366661
-0.20103568
-0.53099635
-0.20917444
-0.55990945
-0.21757348
-0.59050641
-0.22623793
-0.62289356
-0.2351727
-0.65718538
-0.24438181
-0.69350444
-0.25386856
-0.73198191
-0.26363481
-0.77275861
-0.27368186
-0.81598449
-0.28400905
-0.86181867
-0.29461195
-0.91043144
-0.30548487
-0.9619983
-0.31661827
-1.016703
-0.3280026
-1.0747385
-0.33962211
-1.136317
-0.35146177
-1.2016538
-0.36350074
-1.270974
-0.37571222
-1.3445338
-0.38806271
-1.422489
-0.40035784
-1.505003
-0.4127558
-1.5928929
-1.6835621
-0.00048065208
-0.033151475
-0.0011625403
-0.035696271
-0.0018131374
-0.036997958
-0.0025745408
-0.038684608
-0.0033558167
-0.040391783
-0.0042237357
-0.042100483
-0.0051450577
-0.043973684
-0.0061453659
-0.045847462
-0.0072185799
-0.047855921
-0.0083745537
-0.049912512
-0.0096158393
-0.052080498
-0.010947792
-0.054327997
-0.012374831
-0.056682577
-0.013901115
-0.059137383
-0.015530811
-0.061706271
-0.017267514
-0.064392484
-0.019114323
-0.067206192
-0.02107449
-0.070154577
-0.023150174
-0.073247911
-0.02534334
-0.076495772
-0.0276552
-0.079909249
-0.030086871
-0.083499651
-0.032638924
-0.087278969
-0.035311606
-0.091260606
-0.038104735
-0.095457844
-0.041018114
-0.099884841
-0.04405131
-0.10455661
-0.047204211
-0.1094885
-0.05047617
-0.11469695
-0.053867384
-0.12019832
-0.057378335
-0.12601001
-0.061009384
-0.13215057
-0.064761639
-0.13863829
-0.068636689
-0.14549325
-0.072636794
-0.15273527
-0.07676493
-0.16038613
-0.081023802
-0.16846835
-0.085417983
-0.17700487
-0.089951772
-0.18602101
-0.094630169
-0.19554242
-0.09945917
-0.20559652
-0.10444478
-0.21621271
-0.10959391
-0.22742152
-0.114914
-0.23925531
-0.12041266
-0.25174948
-0.12609839
-0.26494071
-0.13197953
-0.27886845
-0.13806527
-0.29357472
-0.14436526
-0.30910389
-0.15088894
-0.3255041
-0.1576467
-0.34282588
-0.16464887
-0.36112391
-0.17190619
-0.38045616
-0.17942965
-0.40088492
-0.18723067
-0.42247631
-0.19532075
-0.44530163
-0.20371142
-0.46943686
-0.21241467
-0.49496335
-0.22144257
-0.52196844
-0.23080708
-0.55054495
-0.24052072
-0.58079276
-0.25059546
-0.61281883
-0.26104366
-0.64673718
-0.27187718
-0.68267092
-0.28310838
-0.72075072
-0.29474892
-0.76111806
-0.3068105
-0.80392291
-0.31930311
-0.84932606
-0.33223507
-0.89749947
-0.34561794
-0.94861542
-0.35945238
-1.0028686
-0.37374025
-1.0604506
-0.38848787
-1.1215694
-0.40369896
-1.1864427
-0.4193651
-1.2553078
-0.43548834
-1.3284105
-0.45204425
-1.4059331
-0.46890534
-1.4881419
-0.48617771
-1.5756206
-1.6662368
-0.00051977219
-0.032631704
-0.0012608937
-0.034955152
-0.0019729545
-0.036285898
-0.0028047367
-0.037852827
-0.0036665491
-0.039529971
-0.004622179
-0.041144855
-0.0056438171
-0.042952046
-0.0067533541
-0.044737928
-0.0079485121
-0.046660763
-0.0092374364
-0.04862359
-0.010624359
-0.050693576
-0.012114112
-0.052838246
-0.013711606
-0.055085083
-0.015420696
-0.057428296
-0.01724542
-0.059881546
-0.019188811
-0.062449096
-0.021253809
-0.065141193
-0.023442253
-0.067966136
-0.025755803
-0.070934361
-0.028195527
-0.074056051
-0.030761811
-0.077342965
-0.033454912
-0.080806551
-0.036274103
-0.084459778
-0.039219194
-0.088315517
-0.042289221
-0.092387817
-0.04548366
-0.096690403
-0.0488016
-0.10123867
-0.052242809
-0.1060473
-0.055807522
-0.11113224
-0.0594959
-0.11650995
-0.063308891
-0.12219702
-0.067247998
-0.12821146
-0.071315613
-0.13457068
-0.075514756
-0.14129411
-0.079848744
-0.14840128
-0.084321845
-0.15591303
-0.088939749
-0.16385044
-0.093707609
-0.17223701
-0.09863244
-0.18109618
-0.10372115
-0.1904537
-0.10898163
-0.20033605
-0.1144224
-0.21077194
-0.12005273
-0.22179118
-0.12588201
-0.23342603
-0.13192062
-0.24571088
-0.13817926
-0.25868206
-0.14466932
-0.27237839
-0.15140296
-0.28684109
-0.15839211
-0.30211474
-0.16565016
-0.31824604
-0.17319008
-0.33528596
-0.18102625
-0.35328774
-0.18917314
-0.37230927
-0.19764562
-0.39241244
-0.20645914
-0.41366279
-0.21563007
-0.4361307
-0.22517502
-0.4598919
-0.2351112
-0.48502717
-0.24545659
-0.51162306
-0.25622923
-0.53977231
-0.26744844
-0.56957355
-0.27913347
-0.60113381
-0.29130452
-0.63456613
-0.30398227
-0.66999317
-0.31718762
-0.70754537
-0.33094318
-0.7473625
-0.34527066
-0.78959543
-0.36019259
-0.83440413
-0.37573234
-0.88195972
-0.39190903
-0.93243873
-0.40874254
-0.98603508
-0.42625491
-1.0429383
-0.44446181
-1.1033625
-0.46338378
-1.1675207
-0.48303587
-1.2356557
-0.50344047
-1.3080059
-0.52459181
-1.3847818
-0.54642243
-1.4663113
-0.56900807
-1.5530349
-1.6432143
-0.0005705344
-0.032061171
-0.0013862628
-0.034139426
-0.0021781983
-0.035493964
-0.0030995981
-0.03693143
-0.0040648983
-0.038564672
-0.0051329873
-0.040076769
-0.0062824315
-0.041802602
-0.0075313871
-0.043488975
-0.0088810363
-0.045311114
-0.010337986
-0.047166643
-0.011907869
-0.049123694
-0.013594831
-0.051151286
-0.015403909
-0.053276006
-0.017338331
-0.055493876
-0.019401534
-0.057818344
-0.021595722
-0.060254909
-0.023922682
-0.062814233
-0.026383332
-0.065505488
-0.028978123
-0.06833957
-0.031706667
-0.071327508
-0.034568511
-0.074481121
-0.037562236
-0.077812828
-0.040686989
-0.081335024
-0.043941216
-0.085061292
-0.047324048
-0.089004985
-0.050834215
-0.093180238
-0.054471559
-0.097601328
-0.058236062
-0.10228279
-0.062127948
-0.10724036
-0.066149154
-0.11248874
-0.070301196
-0.11804498
-0.074587714
-0.12392495
-0.079011961
-0.13014643
-0.083578856
-0.13672722
-0.088293693
-0.14368644
-0.093163238
-0.15104348