/*--------------------------------*- C++ -*----------------------------------*\
  =========                 |
  \\      /  F ield         | OpenFOAM: The Open Source CFD Toolbox
   \\    /   O peration     | Website:  https://openfoam.org
    \\  /    A nd           | Version:  6
     \\/     M anipulation  |
\*---------------------------------------------------------------------------*/
FoamFile
{
    version     2.0;
    format      ascii;
    class       volScalarField;
    location    "400";
    object      rho;
}
// * * * * * * * * * * * * * * * * * * * * * * * * * * * * * * * * * * * * * //

dimensions      [1 -3 0 0 0 0 0];

internalField   nonuniform List<scalar> 
16000
(
1.1550802
1.1609134
1.1591341
1.1605437
1.1600447
1.1607946
1.1607272
1.1612383
1.1613675
1.1617793
1.1620133
1.1623855
1.1626812
1.1630442
1.1633788
1.163747
1.1641083
1.1644876
1.1648684
1.1652601
1.1656557
1.1660582
1.1664646
1.1668751
1.167288
1.1677026
1.1681176
1.1685318
1.1689438
1.1693525
1.1697565
1.1701544
1.1705449
1.1709266
1.1712962
1.1716546
1.1720006
1.1723332
1.1726509
1.1729528
1.173238
1.1735056
1.173755
1.1739857
1.1741973
1.1743894
1.174562
1.1747149
1.1748481
1.1749619
1.1750564
1.1751318
1.1751886
1.1752272
1.1752478
1.1752512
1.1752377
1.1752079
1.1751622
1.1751013
1.1750257
1.1749362
1.1748327
1.1747173
1.1745874
1.1744487
1.1742903
1.1741316
1.1739346
1.1737663
1.1735026
1.1733657
1.1729595
1.1729897
1.1721907
1.17273
1.1709208
1.172832
1.1689279
1.1731912
1.1554335
1.1612874
1.1594285
1.1609102
1.1603903
1.1611939
1.1611259
1.1616771
1.1618175
1.1622608
1.162514
1.1629136
1.163232
1.1636204
1.163979
1.1643717
1.1647569
1.1651597
1.1655636
1.1659774
1.1663945
1.1668173
1.1672428
1.167671
1.1681
1.1685291
1.1689566
1.1693813
1.1698017
1.1702164
1.1706239
1.1710227
1.1714115
1.1717888
1.1721534
1.1725033
1.1728366
1.1731538
1.1734541
1.1737363
1.1739997
1.1742435
1.1744674
1.1746712
1.1748546
1.1750175
1.1751602
1.1752828
1.1753856
1.175469
1.1755335
1.1755794
1.1756075
1.1756181
1.175612
1.1755898
1.175552
1.1754993
1.1754322
1.1753513
1.1752572
1.1751504
1.1750314
1.1749012
1.1747591
1.1746071
1.1744412
1.1742681
1.1740725
1.1738809
1.1736391
1.1734497
1.1731097
1.1730144
1.1723949
1.1726763
1.1712088
1.1726944
1.1691836
1.1731334
1.1559485
1.1618184
1.1599053
1.1614551
1.1609254
1.1617754
1.1617158
1.1623018
1.1624606
1.1629328
1.1632092
1.1636349
1.1639783
1.1643917
1.1647753
1.1651921
1.1656014
1.1660272
1.1664536
1.1668887
1.1673261
1.1677677
1.1682105
1.1686543
1.1690971
1.1695377
1.1699745
1.170406
1.1708307
1.1712469
1.1716531
1.1720478
1.1724295
1.1727968
1.1731483
1.1734828
1.1737995
1.1740951
1.174371
1.174627
1.1748621
1.1750757
1.1752679
1.1754385
1.1755878
1.175716
1.1758234
1.1759106
1.1759781
1.1760266
1.1760567
1.1760692
1.1760648
1.1760442
1.1760081
1.1759573
1.1758926
1.1758145
1.1757236
1.1756205
1.1755057
1.17538
1.1752436
1.1750972
1.1749408
1.174775
1.1745983
1.1744126
1.1742113
1.1740042
1.1737674
1.1735477
1.1732435
1.1730672
1.1725613
1.1726627
1.1714409
1.1725841
1.1694254
1.1730481
1.1566559
1.162526
1.1605777
1.1621974
1.1616599
1.1625594
1.1625104
1.1631341
1.1633137
1.1638173
1.1641196
1.1645738
1.1649448
1.1653853
1.1657963
1.1662391
1.1666743
1.1671246
1.1675746
1.1680317
1.1684896
1.1689499
1.1694094
1.1698676
1.1703223
1.1707721
1.1712153
1.1716502
1.172075
1.172488
1.1728877
1.1732724
1.1736406
1.1739909
1.1743222
1.1746333
1.1749231
1.1751913
1.1754351
1.175656
1.1758544
1.1760295
1.1761815
1.176311
1.1764182
1.1765038
1.1765686
1.1766132
1.1766386
1.1766457
1.1766354
1.1766087
1.1765664
1.1765095
1.1764389
1.1763553
1.1762596
1.1761524
1.1760345
1.1759063
1.1757683
1.1756212
1.1754654
1.1753012
1.1751288
1.1749485
1.1747595
1.1745619
1.1743524
1.1741339
1.1738958
1.1736577
1.1733709
1.1731459
1.1727111
1.1726788
1.1716563
1.1725273
1.169669
1.173067
1.1575454
1.163397
1.1614398
1.1631311
1.1625912
1.1635418
1.1635087
1.1641718
1.1643771
1.164914
1.1652462
1.1657309
1.1661327
1.1666023
1.1670427
1.1675131
1.1679755
1.168451
1.1689251
1.169404
1.1698818
1.1703595
1.1708339
1.171304
1.1717676
1.172223
1.1726682
1.1731014
1.1735207
1.1739244
1.1743108
1.1746782
1.1750252
1.1753506
1.1756532
1.1759322
1.1761868
1.1764164
1.1766212
1.1767986
1.1769515
1.1770798
1.1771838
1.1772644
1.1773223
1.1773586
1.1773742
1.1773704
1.1773481
1.1773087
1.1772533
1.1771831
1.1770991
1.1770024
1.1768939
1.1767746
1.1766453
1.1765068
1.1763596
1.1762044
1.1760416
1.1758716
1.175695
1.1755119
1.1753225
1.1751269
1.1749245
1.1747148
1.1744957
1.1742672
1.1740243
1.173774
1.1734946
1.1732378
1.1728527
1.1727181
1.171855
1.1725033
1.1699038
1.173106
1.1586272
1.1644441
1.1625028
1.1642684
1.1637322
1.1647368
1.1647252
1.1654302
1.1656664
1.166239
1.1666056
1.1671233
1.1675591
1.1680599
1.1685322
1.1690317
1.1695227
1.170024
1.1705223
1.1710226
1.1715193
1.1720126
1.1724994
1.1729782
1.1734466
1.1739028
1.1743445
1.1747699
1.1751768
1.1755636
1.1759284
1.1762699
1.1765867
1.1768776
1.1771418
1.1773788
1.1775881
1.1777696
1.1779234
1.1780498
1.1781476
1.1782204
1.178268
1.1782917
1.1782928
1.1782727
1.1782328
1.1781745
1.1780991
1.1780083
1.1779033
1.1777855
1.1776561
1.1775163
1.1773672
1.1772096
1.1770444
1.1768725
1.1766944
1.1765106
1.1763215
1.1761276
1.1759291
1.1757263
1.1755193
1.1753079
1.1750917
1.1748699
1.1746408
1.1744033
1.1741545
1.1738955
1.1736181
1.1733415
1.1729906
1.1727808
1.1720487
1.1725058
1.1701451
1.1731774
1.1599184
1.165705
1.1637894
1.165631
1.1651034
1.1661634
1.1661786
1.1669269
1.1671988
1.1678088
1.1682135
1.1687661
1.1692387
1.1697724
1.1702784
1.1708079
1.171328
1.1718552
1.1723769
1.1728972
1.1734105
1.1739164
1.1744117
1.1748945
1.1753622
1.1758126
1.1762435
1.1766529
1.1770386
1.1773989
1.1777322
1.1780373
1.1783129
1.1785583
1.1787731
1.1789569
1.1791099
1.1792325
1.1793253
1.179389
1.1794241
1.1794319
1.1794148
1.179374
1.1793113
1.1792285
1.1791273
1.1790093
1.1788764
1.1787301
1.178572
1.1784036
1.1782262
1.1780411
1.1778493
1.1776518
1.1774494
1.1772429
1.1770328
1.1768196
1.1766037
1.1763853
1.1761645
1.1759417
1.1757167
1.1754895
1.1752594
1.1750256
1.1747866
1.1745407
1.1742855
1.1740203
1.1737421
1.1734537
1.1731265
1.1728616
1.1722416
1.1725267
1.1703912
1.1732724
1.1614308
1.1672287
1.1653079
1.1672281
1.1667148
1.167832
1.1678802
1.1686739
1.168987
1.1696368
1.1700841
1.170674
1.1711865
1.1717552
1.1722965
1.172857
1.1734065
1.1739588
1.1745026
1.1750404
1.1755669
1.1760809
1.1765791
1.1770593
1.1775187
1.1779549
1.1783655
1.1787485
1.179102
1.1794242
1.1797139
1.17997
1.1801919
1.1803791
1.1805318
1.1806502
1.180735
1.1807871
1.1808079
1.1807988
1.1807615
1.1806956
1.1806058
1.1804933
1.1803604
1.1802093
1.1800417
1.1798599
1.1796657
1.1794609
1.1792471
1.1790259
1.1787988
1.1785669
1.1783313
1.178093
1.1778527
1.1776112
1.1773689
1.1771261
1.1768832
1.1766403
1.1763974
1.1761547
1.175912
1.1756691
1.1754255
1.1751802
1.1749316
1.174678
1.174417
1.1741472
1.1738672
1.1735729
1.1732617
1.1729579
1.1724353
1.1725679
1.1706524
1.1733959
1.1631549
1.1689746
1.1670589
1.1690628
1.1685723
1.1697509
1.1698404
1.1706831
1.1710444
1.1717376
1.1722327
1.172863
1.1734188
1.1740244
1.1746026
1.1751945
1.1757728
1.1763487
1.1769116
1.1774628
1.1779971
1.1785128
1.1790061
1.1794747
1.1799155
1.1803261
1.1807043
1.181048
1.1813555
1.1816255
1.1818571
1.1820498
1.1822033
1.1823181
1.1823948
1.1824344
1.1824384
1.1824083
1.1823461
1.1822539
1.1821339
1.1819875
1.1818177
1.1816273
1.1814189
1.1811948
1.1809572
1.1807085
1.1804505
1.1801852
1.1799143
1.1796394
1.1793618
1.1790828
1.1788033
1.1785243
1.1782464
1.1779702
1.1776961
1.1774243
1.1771549
1.1768881
1.1766237
1.1763618
1.176102
1.1758442
1.1755877
1.1753315
1.1750741
1.1748136
1.1745477
1.1742748
1.173993
1.1736974
1.1733967
1.1730684
1.1726301
1.1726268
1.1709318
1.1735362
1.1651088
1.1709724
1.1690615
1.1711553
1.1706962
1.1719403
1.17208
1.1729751
1.1733921
1.1741321
1.1746802
1.1753538
1.1759559
1.1766
1.1772155
1.1778381
1.1784431
1.179039
1.1796162
1.1801744
1.1807086
1.1812164
1.181694
1.1821386
1.1825475
1.182918
1.1832483
1.1835365
1.1837814
1.1839823
1.1841389
1.1842514
1.1843205
1.1843472
1.1843331
1.1842801
1.1841904
1.1840663
1.1839106
1.1837261
1.1835153
1.1832811
1.1830254
1.1827522
1.1824641
1.182164
1.181854
1.1815366
1.1812138
1.1808874
1.1805593
1.1802308
1.1799033
1.1795778
1.1792554
1.1789366
1.1786222
1.1783125
1.1780077
1.1777081
1.1774135
1.1771239
1.1768392
1.1765591
1.1762834
1.1760117
1.1757433
1.1754773
1.1752121
1.1749459
1.1746763
1.1744015
1.1741189
1.1738256
1.1735314
1.1731916
1.1728248
1.1727034
1.1712354
1.1736817
1.1673122
1.1732316
1.1713332
1.1735233
1.1731057
1.1744198
1.1746196
1.1755716
1.176052
1.176843
1.1774492
1.1781691
1.1788197
1.1795028
1.1801548
1.1808057
1.1814331
1.1820431
1.1826265
1.183182
1.1837045
1.1841911
1.184638
1.1850424
1.1854017
1.1857136
1.1859767
1.1861898
1.1863524
1.1864646
1.1865271
1.186541
1.186508
1.1864303
1.1863103
1.1861509
1.1859551
1.1857262
1.1854676
1.1851826
1.1848746
1.1845471
1.1842012
1.183842
1.1834722
1.1830945
1.1827115
1.1823254
1.1819382
1.1815517
1.1811675
1.1807869
1.1804112
1.1800411
1.1796775
1.179321
1.178972
1.1786306
1.1782972
1.1779715
1.1776535
1.1773429
1.1770395
1.1767429
1.1764527
1.1761685
1.1758896
1.175615
1.1753434
1.1750728
1.1748008
1.1745257
1.1742438
1.1739553
1.1736655
1.1733254
1.1730171
1.1727962
1.171553
1.1738287
1.1697852
1.1757667
1.1738907
1.1761867
1.1758232
1.1772135
1.1774854
1.1784993
1.1790519
1.1798981
1.1805672
1.1813356
1.1820355
1.1827565
1.1834418
1.1841155
1.1847576
1.1853717
1.185949
1.1864874
1.1869817
1.1874286
1.1878248
1.1881676
1.1884549
1.1886852
1.1888578
1.1889726
1.1890301
1.1890317
1.1889792
1.188875
1.188722
1.1885234
1.188283
1.1880044
1.1876917
1.1873488
1.1869798
1.1865886
1.1861787
1.1857546
1.1853167
1.1848705
1.1844188
1.1839644
1.1835096
1.1830565
1.182607
1.1821628
1.1817251
1.1812952
1.180874
1.1804622
1.1800604
1.1796689
1.1792879
1.1789176
1.178558
1.1782087
1.1778696
1.1775402
1.1772201
1.176909
1.1766062
1.1763113
1.1760235
1.175742
1.1754655
1.175192
1.1749193
1.1746452
1.174366
1.1740844
1.1737979
1.1734671
1.1732047
1.1729031
1.1718724
1.173964
1.1725676
1.1786104
1.1767673
1.1791786
1.1788834
1.1803555
1.1807121
1.1817928
1.1824257
1.1833306
1.1840658
1.184883
1.1856304
1.1863849
1.1870961
1.1877828
1.1884268
1.1890295
1.1895826
1.1900831
1.1905262
1.1909089
1.1912282
1.1914823
1.19167
1.1917911
1.191846
1.1918361
1.1917635
1.191631
1.1914419
1.1912001
1.1909098
1.1905755
1.1902018
1.1897936
1.1893555
1.1888922
1.1884082
1.1879076
1.1873944
1.1868728
1.1863438
1.1858122
1.1852808
1.1847524
1.184229
1.1837125
1.1832046
1.1827065
1.1822193
1.181744
1.1812813
1.1808315
1.1803951
1.1799722
1.1795628
1.1791668
1.178784
1.1784141
1.1780566
1.177711
1.1773768
1.1770534
1.1767403
1.1764367
1.176142
1.1758554
1.1755756
1.1753009
1.1750292
1.1747578
1.1744836
1.1742102
1.1739277
1.1736134
1.1733853
1.1730221
1.1721894
1.1740977
1.175673
1.1817926
1.179995
1.1825322
1.1823222
1.1838823
1.1843373
1.1854898
1.1862103
1.1871764
1.1879784
1.1888418
1.1896308
1.1904095
1.1911339
1.1918171
1.192443
1.1930111
1.1935138
1.1939478
1.1943092
1.1945954
1.1948049
1.1949372
1.1949925
1.1949725
1.1948794
1.1947166
1.1944879
1.1941979
1.1938517
1.1934546
1.1930121
1.19253
1.1920137
1.1914688
1.1909006
1.1903141
1.189714
1.1891044
1.1884895
1.1878733
1.1872566
1.1866436
1.1860373
1.1854398
1.184853
1.1842783
1.1837171
1.1831704
1.1826389
1.1821232
1.1816237
1.1811406
1.1806741
1.1802239
1.1797901
1.1793721
1.1789698
1.1785826
1.1782099
1.177851
1.1775054
1.1771724
1.1768513
1.1765413
1.1762419
1.1759522
1.175671
1.1753968
1.1751278
1.1748609
1.174594
1.1743299
1.1740532
1.173761
1.1735572
1.1731507
1.1724992
1.1742256
1.1791366
1.185351
1.1836153
1.1862903
1.1861859
1.1878394
1.1884074
1.1896355
1.1904488
1.1914759
1.1923412
1.1932427
1.1940607
1.1948467
1.1955624
1.1962164
1.1967944
1.1972947
1.1977107
1.1980401
1.1982801
1.1984299
1.1984899
1.1984616
1.1983478
1.1981523
1.1978798
1.1975358
1.1971264
1.196658
1.1961373
1.195571
1.1949658
1.1943283
1.1936648
1.192981
1.1922825
1.1915744
1.1908612
1.1901471
1.1894356
1.1887308
1.1880326
1.187345
1.1866705
1.1860109
1.1853675
1.1847414
1.1841335
1.1835445
1.1829747
1.1824245
1.1818938
1.1813827
1.1808909
1.1804182
1.1799642
1.1795285
1.1791105
1.1787095
1.178325
1.177956
1.177602
1.1772621
1.1769356
1.1766218
1.1763199
1.1760292
1.1757485
1.1754767
1.1752121
1.1749515
1.1746941
1.1744402
1.1741722
1.1739063
1.173718
1.1732874
1.1728032
1.1743413
1.1830021
1.1893316
1.1876784
1.1905027
1.1905275
1.1922788
1.192975
1.1942822
1.1951886
1.1962703
1.1971879
1.1981105
1.1989343
1.1996992
1.2003722
1.2009585
1.2014459
1.2018328
1.2021147
1.2022907
1.2023609
1.202327
1.2021923
1.2019615
1.2016401
1.2012351
1.2007536
1.2002036
1.1995932
1.1989306
1.1982238
1.1974806
1.1967085
1.1959143
1.1951047
1.1942853
1.1934616
1.1926384
1.1918197
1.191009
1.1902098
1.1894252
1.1886544
1.1879011
1.1871671
1.1864539
1.1857621
1.1850926
1.1844456
1.1838214
1.1832202
1.1826417
1.1820859
1.1815523
1.1810407
1.1805504
1.1800809
1.1796317
1.179202
1.1787911
1.1783982
1.1780225
1.1776631
1.1773192
1.1769901
1.1766748
1.1763728
1.1760832
1.1758051
1.1755375
1.1752788
1.1750265
1.1747803
1.1745377
1.1742819
1.1740441
1.1738634
1.1734288
1.1730989
1.1744399
1.1873219
1.1937862
1.192241
1.1952237
1.1954078
1.1972608
1.1980958
1.1994832
1.2004758
1.2015945
1.2025411
1.2034544
1.204246
1.2049458
1.2055261
1.2059903
1.2063294
1.2065436
1.2066316
1.2065961
1.2064407
1.2061714
1.205795
1.2053201
1.2047556
1.2041114
1.2033974
1.2026236
1.2017998
1.2009353
1.2000391
1.1991193
1.1981836
1.1972387
1.1962908
1.1953452
1.1944067
1.1934794
1.1925666
1.1916711
1.1907958
1.1899429
1.1891102
1.1883018
1.1875186
1.1867614
1.1860305
1.1853261
1.1846482
1.1839966
1.183371
1.1827711
1.1821963
1.1816462
1.18112
1.1806172
1.1801369
1.1796785
1.1792412
1.1788241
1.1784264
1.1780471
1.1776854
1.1773404
1.1770113
1.1766972
1.1763974
1.176111
1.1758374
1.1755758
1.1753246
1.175082
1.1748486
1.1746182
1.1743786
1.1741692
1.1739896
1.1735684
1.1733782
1.174521
1.1921692
1.1987843
1.1973911
1.2005395
1.200917
1.2028769
1.203836
1.2052768
1.2063414
1.2074689
1.2084042
1.2092592
1.2099602
1.2105297
1.2109467
1.2112154
1.211332
1.2113005
1.2111253
1.2108137
1.2103747
1.2098189
1.2091579
1.2084038
1.207569
1.2066658
1.2057064
1.2047019
1.2036632
1.2025998
1.2015208
1.2004339
1.1993463
1.1982639
1.1971921
1.1961352
1.195097
1.1940806
1.1930884
1.1921224
1.191185
1.1902766
1.1893944
1.1885427
1.1877214
1.1869306
1.1861702
1.18544
1.1847394
1.1840681
1.1834254
1.1828107
1.1822233
1.1816623
1.181127
1.1806165
1.1801301
1.1796667
1.1792257
1.1788061
1.1784069
1.1780272
1.1776662
1.1773228
1.1769963
1.1766858
1.1763904
1.1761095
1.1758423
1.1755882
1.1753458
1.1751145
1.1748944
1.1746773
1.1744575
1.1742752
1.1740935
1.1737005
1.1736299
1.1745802
1.1976805
1.2044548
1.2032902
1.2065829
1.2071384
1.2091554
1.210257
1.2117343
1.2128204
1.2139001
1.2147524
1.2154685
1.2159901
1.2163368
1.2164965
1.2164776
1.2162838
1.2159258
1.2154147
1.2147644
1.2139896
1.2131059
1.212129
1.2110743
1.2099566
1.2087897
1.2075865
1.2063586
1.2051162
1.2038686
1.2026237
1.2013882
1.200168
1.1989679
1.1977917
1.1966427
1.1955235
1.194436
1.1933814
1.192361
1.1913764
1.190426
1.1895078
1.1886249
1.1877766
1.1869626
1.1861824
1.1854351
1.1847202
1.1840368
1.183384
1.182761
1.1821668
1.1816005
1.1810611
1.1805477
1.1800593
1.1795951
1.1791541
1.1787354
1.1783379
1.1779608
1.1776031
1.1772639
1.1769424
1.1766376
1.1763488
1.1760752
1.1758163
1.1755712
1.175339
1.1751198
1.1749132
1.1747104
1.1745129
1.1743555
1.1741728
1.1738202
1.1738426
1.1746127
1.2040392
1.2108786
1.2099517
1.2133125
1.21415
1.216274
1.217429
1.2188685
1.2198912
1.2208207
1.2214795
1.2219398
1.2221629
1.2221697
1.2219606
1.2215516
1.2209566
1.2201945
1.2192844
1.2182465
1.2171008
1.215867
1.2145634
1.213207
1.2118133
1.210396
1.2089673
1.2075375
1.2061156
1.2047092
1.2033243
1.2019661
1.2006386
1.1993451
1.1980879
1.1968688
1.1956892
1.1945497
1.1934505
1.1923924
1.1913759
1.1903974
1.1894561
1.1885537
1.1876894
1.1868622
1.1860712
1.1853154
1.1845939
1.1839054
1.1832491
1.1826237
1.1820283
1.1814617
1.1809229
1.1804109
1.1799246
1.1794632
1.1790255
1.1786107
1.1782178
1.1778459
1.177494
1.1771613
1.1768468
1.1765498
1.1762694
1.1760049
1.1757558
1.1755211
1.1753002
1.1750939
1.1749008
1.1747129
1.1745382
1.1744034
1.1742272
1.17392
1.1740063
1.1746159
1.211203
1.2180658
1.2174805
1.2210483
1.222047
1.224142
1.2253067
1.2265815
1.2274136
1.2280505
1.228366
1.2284224
1.2282041
1.2277406
1.2270475
1.226152
1.225079
1.2238556
1.2225079
1.2210608
1.2195374
1.2179589
1.2163438
1.2147084
1.2130667
1.2114307
1.2098101
1.208213
1.206646
1.2051142
1.2036216
1.2021712
1.2007652
1.1994051
1.1980916
1.1968254
1.1956065
1.1944341
1.1933079
1.1922286
1.1911947
1.1902009
1.1892487
1.1883379
1.1874676
1.1866364
1.1858431
1.1850865
1.1843653
1.1836782
1.1830242
1.1824018
1.1818101
1.1812478
1.1807138
1.180207
1.1797264
1.1792709
1.1788396
1.1784315
1.1780457
1.1776812
1.1773372
1.1770128
1.1767072
1.1764195
1.1761491
1.1758951
1.175657
1.1754338
1.1752254
1.1750325
1.1748526
1.17468
1.1745275
1.1744132
1.1742475
1.1739822
1.1741202
1.1745936
1.219452
1.2263919
1.2261868
1.2297135
1.230815
1.2327465
1.2337606
1.2346976
1.2351398
1.235289
1.2350706
1.2345509
1.2337414
1.2326848
1.2314131
1.2299643
1.228372
1.2266691
1.2248846
1.2230447
1.2211717
1.219285
1.2174004
1.2155314
1.2136884
1.2118799
1.2101126
1.2083913
1.2067198
1.2051005
1.2035353
1.2020249
1.2005698
1.1991699
1.1978245
1.1965333
1.1952949
1.1941077
1.1929713
1.1918856
1.190847
1.1898497
1.1888975
1.1879883
1.187121
1.1862939
1.1855058
1.184755
1.1840403
1.1833603
1.1827137
1.1820991
1.1815154
1.1809613
1.1804356
1.1799374
1.1794654
1.1790186
1.1785962
1.1781971
1.1778205
1.1774653
1.1771309
1.1768164
1.176521
1.1762439
1.1759845
1.175742
1.1755158
1.1753051
1.1751099
1.1749305
1.1747638
1.1746065
1.174474
1.1743735
1.1742187
1.1740068
1.1741795
1.1745299
1.229141
1.2359214
1.2360769
1.2393993
1.2404232
1.2419271
1.2425031
1.2428318
1.2426205
1.2420505
1.2410998
1.2398472
1.2383302
1.2366043
1.2347135
1.2327015
1.230605
1.2284565
1.2262829
1.2241067
1.2219458
1.2198145
1.2177239
1.2156825
1.2136964
1.21177
1.2099063
1.208107
1.206373
1.2047043
1.2031007
1.2015613
1.2000847
1.1986697
1.1973149
1.1960184
1.1947781
1.1935922
1.1924604
1.1913808
1.1903475
1.1893586
1.1884155
1.1875165
1.1866598
1.1858439
1.1850671
1.184328
1.183625
1.1829568
1.1823219
1.181719
1.1811469
1.1806043
1.1800901
1.1796031
1.1791423
1.1787066
1.1782952
1.177907
1.1775411
1.1771969
1.1768733
1.1765698
1.1762855
1.1760199
1.1757721
1.1755417
1.175328
1.1751302
1.1749485
1.1747827
1.1746294
1.174488
1.1743733
1.1742829
1.1741431
1.1739856
1.1741611
1.1744097
1.2405103
1.2465963
1.2468905
1.2496892
1.2503009
1.2510443
1.2508465
1.2502702
1.2491511
1.2476669
1.2458457
1.2437789
1.241522
1.2391356
1.236666
1.2341539
1.2316313
1.2291236
1.2266506
1.2242272
1.2218642
1.2195692
1.2173476
1.2152024
1.2131355
1.2111472
1.2092372
1.2074046
1.2056479
1.2039653
1.2023547
1.200814
1.1993407
1.1979328
1.1965879
1.1953035
1.1940767
1.1929063
1.1917917
1.1907285
1.1897102
1.1887385
1.1878127
1.186931
1.1860916
1.1852927
1.1845328
1.1838102
1.1831234
1.182471
1.1818516
1.1812638
1.1807064
1.1801781
1.1796779
1.1792045
1.1787569
1.1783342
1.1779355
1.1775597
1.1772061
1.1768738
1.1765622
1.1762704
1.1759979
1.1757441
1.1755083
1.17529
1.1750886
1.1749037
1.1747352
1.1745826
1.1744428
1.1743171
1.1742178
1.1741352
1.174013
1.1739044
1.1740664
1.1742293
1.2527133
1.2579692
1.2581193
1.2599257
1.2596918
1.2592432
1.2579062
1.2561516
1.2539414
1.2514496
1.2487381
1.2458967
1.2429818
1.2400446
1.2371215
1.2342409
1.2314227
1.2286813
1.2260259
1.2234625
1.2209943
1.2186224
1.2163467
1.2141658
1.2120777
1.2100801
1.20817
1.2063445
1.2046004
1.2029348
1.2013445
1.1998263
1.1983774
1.196995
1.1956764
1.1944181
1.1932178
1.1920749
1.190987
1.1899478
1.1889529
1.1880058
1.1871038
1.1862452
1.1854283
1.1846512
1.1839123
1.18321
1.1825429
1.1819094
1.1813083
1.1807381
1.1801977
1.1796859
1.1792015
1.1787434
1.1783106
1.1779023
1.1775174
1.1771551
1.1768145
1.176495
1.1761958
1.1759162
1.1756557
1.1754136
1.1751896
1.174983
1.1747933
1.1746204
1.1744642
1.1743237
1.1741967
1.174086
1.1739998
1.1739245
1.1738213
1.17375
1.1738882
1.1739805
1.265375
1.2695584
1.2690708
1.2690959
1.2674567
1.2654101
1.2626957
1.2596772
1.2564014
1.2530107
1.2495678
1.2461382
1.2427603
1.2394639
1.2362672
1.2331822
1.2302149
1.2273683
1.2246424
1.2220356
1.2195452
1.2171674
1.2148983
1.2127336
1.2106687
1.2086995
1.2068215
1.2050307
1.203323
1.2016948
1.2001422
1.1986617
1.1972503
1.1959049
1.1946222
1.1933988
1.1922334
1.1911249
1.1900685
1.1890573
1.1880926
1.1871742
1.1863
1.1854681
1.1846769
1.1839245
1.1832093
1.1825298
1.1818846
1.1812721
1.1806911
1.1801403
1.1796185
1.1791246
1.1786573
1.1782157
1.1777989
1.1774058
1.1770357
1.1766876
1.1763607
1.1760545
1.1757681
1.1755009
1.1752524
1.1750221
1.1748094
1.1746139
1.1744353
1.1742733
1.1741278
1.1739979
1.1738823
1.1737842
1.1737085
1.1736407
1.1735575
1.1735155
1.1736245
1.1736589
1.2779738
1.2788522
1.2769723
1.2745693
1.2712397
1.2675815
1.2636353
1.2596139
1.2555828
1.2516223
1.247768
1.2440488
1.2404777
1.2370614
1.2338007
1.2306936
1.2277355
1.2249209
1.2222435
1.2196969
1.2172742
1.2149689
1.2127748
1.210686
1.2086971
1.2068029
1.2049985
1.2032794
1.2016413
1.2000802
1.1985923
1.1971742
1.1958227
1.1945345
1.1933059
1.1921347
1.1910202
1.1899596
1.1889461
1.1879758
1.1870521
1.1861725
1.1853354
1.1845388
1.1837811
1.1830606
1.1823759
1.1817254
1.1811077
1.1805215
1.1799656
1.1794387
1.1789396
1.1784673
1.1780208
1.1775989
1.1772009
1.1768258
1.1764727
1.176141
1.1758298
1.1755384
1.1752662
1.1750125
1.1747769
1.1745589
1.174358
1.1741737
1.1740057
1.1738538
1.173718
1.1735971
1.1734907
1.173402
1.1733327
1.1732697
1.1732024
1.1731827
1.1732715
1.1732721
1.2848126
1.2823535
1.2788227
1.2746418
1.2701454
1.2655839
1.2610586
1.2566615
1.2524249
1.2483741
1.244514
1.2408445
1.2373598
1.2340521
1.2309127
1.2279323
1.2251017
1.2224122
1.2198556
1.2174243
1.2151115
1.2129105
1.2108151
1.2088193
1.2069178
1.2051055
1.203378
1.2017308
1.20016
1.1986617
1.1972325
1.1958692
1.1945689
1.1933281
1.1921439
1.1910155
1.1899417
1.1889171
1.1879351
1.1869985
1.1861062
1.1852565
1.1844477
1.1836779
1.1829456
1.1822493
1.1815875
1.1809588
1.1803619
1.1797954
1.1792583
1.1787493
1.1782672
1.1778112
1.1773801
1.176973
1.1765891
1.1762273
1.1758871
1.1755675
1.1752678
1.1749874
1.1747256
1.1744819
1.1742557
1.1740465
1.1738539
1.1736775
1.1735169
1.1733719
1.1732422
1.1731272
1.1730268
1.1729429
1.1728756
1.1728168
1.1727635
1.1727462
1.172791
1.1727905
1.2781462
1.2748564
1.2711772
1.2668947
1.2625246
1.2581736
1.2539415
1.2498696
1.2459736
1.2422605
1.2387271
1.2353686
1.232177
1.2291442
1.2262615
1.2235206
1.2209134
1.2184322
1.2160698
1.2138192
1.2116746
1.2096308
1.2076824
1.2058247
1.2040532
1.2023635
1.2007517
1.199214
1.1977468
1.196347
1.1950114
1.1937373
1.1925218
1.191362
1.1902559
1.1892027
1.1881992
1.1872389
1.1863201
1.1854448
1.1846109
1.1838169
1.183061
1.1823417
1.1816576
1.1810072
1.1803893
1.1798024
1.1792454
1.1787171
1.1782163
1.177742
1.1772931
1.1768687
1.1764677
1.1760893
1.1757327
1.1753969
1.1750813
1.1747851
1.1745076
1.1742481
1.1740061
1.1737809
1.173572
1.173379
1.1732014
1.1730388
1.1728909
1.1727573
1.1726379
1.1725321
1.1724401
1.1723625
1.172299
1.1722461
1.172204
1.1721848
1.1721964
1.1721996
1.2456106
1.2516738
1.2516909
1.2509304
1.2489415
1.2465397
1.2438122
1.2409751
1.2380883
1.2352217
1.2324028
1.2296556
1.226991
1.2244166
1.2219351
1.2195478
1.2172539
1.215052
1.2129398
1.2109148
1.2089737
1.2071134
1.2053309
1.2036233
1.2019878
1.2004214
1.1989217
1.197486
1.1961118
1.1947969
1.193539
1.192336
1.1911853
1.1900849
1.1890343
1.188032
1.1870725
1.186151
1.1852713
1.1844316
1.1836306
1.1828667
1.1821386
1.181445
1.1807847
1.1801562
1.1795586
1.1789906
1.1784511
1.177939
1.1774532
1.1769929
1.176557
1.1761446
1.1757548
1.1753868
1.1750397
1.1747128
1.1744052
1.1741164
1.1738456
1.1735922
1.1733555
1.173135
1.1729301
1.1727404
1.1725654
1.1724047
1.1722579
1.1721247
1.1720047
1.1718977
1.1718036
1.1717223
1.1716536
1.1715967
1.1715519
1.1715215
1.1715064
1.1715029
1.2510949
1.2512402
1.2517031
1.25177
1.2510405
1.2493274
1.2466205
1.2431837
1.2392571
1.2349936
1.2307031
1.226322
1.2220351
1.2178125
1.2137687
1.2100052
1.2065012
1.2033945
1.200611
1.1981207
1.1959394
1.1940016
1.1923077
1.1908227
1.189521
1.1883447
1.1872855
1.1863185
1.1854517
1.1847042
1.1840304
1.1834056
1.1828237
1.1822766
1.1817588
1.1812661
1.1807962
1.1803475
1.1799194
1.1795087
1.1791153
1.1787397
1.1783796
1.1780361
1.1777097
1.1773996
1.1771047
1.1768246
1.1765584
1.1763057
1.1760657
1.175838
1.1756212
1.1754157
1.1752187
1.1750323
1.174851
1.1746811
1.17451
1.1743548
1.1741863
1.1740467
1.1738693
1.1737518
1.1735463
1.1734675
1.1732005
1.1731929
1.1728021
1.1729337
1.1723167
1.1727008
1.1717012
1.1725247
1.1708921
1.172452
1.1697778
1.1725266
1.168226
1.172859
1.0994301
1.1043189
1.1117263
1.1201304
1.1290252
1.1377332
1.1449166
1.1508074
1.1559711
1.1604513
1.1642681
1.1675877
1.1704603
1.1729469
1.1751145
1.1769442
1.1785255
1.1798168
1.180901
1.1817342
1.1824065
1.1828699
1.1832127
1.1833774
1.1834348
1.1833675
1.1832216
1.1830204
1.1827718
1.1824833
1.1821602
1.1818109
1.1814387
1.1810556
1.1806692
1.1802849
1.1799063
1.1795364
1.1791787
1.1788323
1.1784974
1.1781758
1.1778672
1.17757
1.1772865
1.1770159
1.1767577
1.1765116
1.1762768
1.1760532
1.17584
1.1756371
1.1754431
1.1752586
1.1750809
1.1749122
1.1747471
1.1745918
1.1744345
1.174291
1.1741345
1.1740034
1.1738374
1.1737243
1.1735316
1.1734514
1.1732017
1.1731861
1.1728216
1.172929
1.1723503
1.1726979
1.1717453
1.1725275
1.1709385
1.1724642
1.1698088
1.1725655
1.1682291
1.1729209
1.2071326
1.207934
1.2102501
1.2130248
1.2138235
1.212966
1.2115033
1.2097756
1.2078983
1.2059844
1.2040704
1.2022088
1.2003992
1.1986731
1.197025
1.1954628
1.1940057
1.1926355
1.1914097
1.1902946
1.1892472
1.1883029
1.1873872
1.186585
1.1858637
1.1852222
1.1846721
1.1841287
1.1836102
1.1830109
1.1824575
1.1819435
1.1814593
1.181004
1.1805727
1.1801625
1.1797712
1.1793974
1.1790406
1.1786949
1.1783654
1.1780508
1.1777486
1.1774605
1.1771857
1.1769233
1.1766729
1.1764343
1.1762071
1.1759909
1.1757851
1.1755893
1.1754024
1.1752246
1.1750534
1.1748909
1.1747317
1.174582
1.1744298
1.1742909
1.1741388
1.1740111
1.1738492
1.1737377
1.1735494
1.173468
1.1732244
1.1732042
1.1728433
1.1729428
1.1723804
1.1727034
1.1717826
1.172524
1.1709832
1.1724531
1.1698537
1.1725596
1.168262
1.1729319
1.1668655
1.1668873
1.1696866
1.1750059
1.1782632
1.179255
1.179755
1.1801891
1.1805844
1.1810308
1.1814836
1.1819356
1.182335
1.1827104
1.1828502
1.1832621
1.1832819
1.183625
1.1835175
1.1837346
1.1835349
1.1836403
1.1833809
1.1833599
1.1830432
1.1828644
1.182552
1.1822507
1.1819266
1.1816026
1.1812681
1.1809295
1.1805888
1.1802481
1.1799097
1.1795755
1.1792474
1.1789268
1.1786139
1.1783096
1.1780165
1.1777343
1.1774627
1.1772019
1.1769517
1.1767122
1.1764833
1.1762648
1.1760563
1.1758576
1.1756681
1.1754875
1.1753147
1.17515
1.174991
1.1748397
1.1746908
1.1745506
1.1744069
1.174276
1.1741307
1.1740097
1.1738528
1.1737471
1.1735618
1.1734857
1.1732437
1.1732281
1.1728677
1.1729709
1.1724043
1.1727351
1.1718061
1.1725571
1.1710027
1.1724878
1.1698733
1.1725895
1.1682777
1.1729582
1.1747733
1.1766117
1.1808187
1.1854673
1.1870421
1.1873223
1.1870839
1.1869388
1.1867668
1.1866289
1.186434
1.1862541
1.1860399
1.1858396
1.1856145
1.1853757
1.1851311
1.1848573
1.1845902
1.1842682
1.1839938
1.1836117
1.1833129
1.1829267
1.1826114
1.1822447
1.1819096
1.1815712
1.1812403
1.1809107
1.1805847
1.1802638
1.1799486
1.1796394
1.1793363
1.1790396
1.1787497
1.1784672
1.178191
1.1779221
1.1776625
1.1774117
1.1771695
1.1769361
1.1767117
1.1764962
1.1762897
1.176092
1.175903
1.1757225
1.1755498
1.175385
1.1752268
1.1750757
1.1749293
1.1747895
1.1746512
1.1745206
1.1743857
1.1742625
1.1741244
1.1740092
1.1738582
1.1737565
1.1735761
1.1735021
1.1732648
1.1732489
1.1728918
1.1729932
1.1724328
1.172757
1.1718375
1.1725771
1.1710375
1.1725035
1.1699043
1.1726067
1.1683002
1.172977
1.1682114
1.1699384
1.174341
1.1792188
1.181386
1.181719
1.181553
1.1816409
1.1816484
1.1817302
1.181713
1.181722
1.1816835
1.1816622
1.1816064
1.1815586
1.1814851
1.1814166
1.181326
1.1812406
1.1811277
1.1810305
1.1808988
1.1807739
1.1806183
1.1804604
1.1802831
1.1800958
1.1798978
1.1796918
1.1794775
1.1792577
1.1790336
1.1788063
1.1785771
1.1783473
1.1781182
1.1778911
1.1776655
1.1774436
1.1772273
1.1770165
1.1768113
1.1766122
1.1764197
1.1762339
1.176055
1.175883
1.1757179
1.1755595
1.1754074
1.1752616
1.175121
1.174986
1.1748544
1.1747281
1.1746023
1.1744827
1.1743581
1.1742436
1.1741138
1.1740053
1.1738609
1.1737639
1.1735889
1.1735176
1.1732846
1.1732694
1.1729173
1.1730164
1.17246
1.1727807
1.1718661
1.1726004
1.1710642
1.1725254
1.1699311
1.1726258
1.1683205
1.1729952
1.1673246
1.1694463
1.1743029
1.178879
1.180453
1.1807433
1.1806423
1.180644
1.1805685
1.1805653
1.1804962
1.1804867
1.1804225
1.1803973
1.180337
1.1802878
1.1802122
1.1801448
1.1800596
1.1799733
1.1798761
1.1797703
1.179658
1.1795364
1.1794094
1.1792744
1.1791334
1.1789866
1.1788344
1.1786765
1.1785129
1.1783456
1.1781748
1.1780012
1.1778253
1.177648
1.17747
1.1772921
1.1771135
1.176937
1.1767638
1.1765936
1.1764268
1.1762639
1.1761052
1.1759512
1.175802
1.1756578
1.1755184
1.175384
1.1752542
1.1751289
1.1750073
1.1748897
1.1747741
1.1746624
1.1745498
1.174442
1.1743283
1.1742231
1.1741022
1.1740005
1.1738633
1.1737707
1.1736018
1.1735325
1.1733052
1.1732891
1.1729427
1.1730382
1.1724891
1.1728028
1.1718975
1.1726213
1.1710973
1.1725435
1.1699603
1.1726429
1.1683418
1.1730113
1.1647708
1.167182
1.1723824
1.1767145