/*--------------------------------*- C++ -*----------------------------------*\
  =========                 |
  \\      /  F ield         | OpenFOAM: The Open Source CFD Toolbox
   \\    /   O peration     | Website:  https://openfoam.org
    \\  /    A nd           | Version:  6
     \\/     M anipulation  |
\*---------------------------------------------------------------------------*/
FoamFile
{
    version     2.0;
    format      ascii;
    class       volScalarField;
    location    "400";
    object      T;
}
// * * * * * * * * * * * * * * * * * * * * * * * * * * * * * * * * * * * * * //

dimensions      [0 0 0 1 0 0 0];

internalField   nonuniform List<scalar> 
16000
(
297.3966
296.17292
296.61094
296.43829
296.59063
296.56053
296.63538
296.64883
296.69964
296.72912
296.77256
296.80899
296.85072
296.8906
296.93269
296.97466
297.01772
297.06116
297.10527
297.1498
297.19476
297.24003
297.28553
297.33116
297.37682
297.42239
297.46775
297.51277
297.55733
297.60128
297.64449
297.68682
297.72814
297.7683
297.80695
297.84421
297.87994
297.91403
297.94634
297.97677
298.00525
298.03168
298.05601
298.07818
298.09816
298.11592
298.13144
298.14473
298.1558
298.16466
298.17136
298.17595
298.17848
298.17904
298.1777
298.17453
298.16962
298.16308
298.15499
298.14547
298.13458
298.12241
298.10899
298.09446
298.07877
298.06243
298.04502
298.02819
298.00989
297.99481
297.9754
297.96521
297.9394
297.94388
297.90179
297.9475
297.86478
297.99053
297.84564
298.04553
297.41231
296.19843
296.65487
296.47912
296.63717
296.6069
296.68497
296.70009
296.75335
296.78518
296.83074
296.86963
296.91352
296.95582
297.00011
297.04442
297.08968
297.13535
297.18158
297.22818
297.2751
297.32225
297.36949
297.41674
297.46385
297.5107
297.55715
297.60307
297.6483
297.6927
297.73611
297.7784
297.81941
297.859
297.89705
297.93335
297.9677
298.00018
298.03067
298.05908
298.08532
298.10934
298.13109
298.15055
298.16771
298.18256
298.19511
298.20539
298.21344
298.21929
298.22301
298.22467
298.22434
298.22211
298.21807
298.21232
298.20494
298.19603
298.18572
298.17408
298.16122
298.1472
298.13207
298.11592
298.09878
298.08092
298.06232
298.04383
298.02482
298.00745
297.98832
297.97437
297.953
297.94802
297.91683
297.94339
297.88237
297.97967
297.86414
298.02824
297.4487
296.24897
296.71718
296.5399
296.70231
296.67394
296.75452
296.77243
296.82784
296.86256
296.91037
296.95206
296.99832
297.04328
297.09
297.13682
297.18447
297.23248
297.28095
297.32969
297.37863
297.42764
297.47659
297.52535
297.57378
297.62172
297.66902
297.71553
297.76108
297.80552
297.84867
297.8904
297.93054
297.96896
298.00552
298.04009
298.0726
298.1027
298.13056
298.15612
298.17931
298.20008
298.21842
298.23434
298.24786
298.25899
298.26778
298.27429
298.27857
298.28071
298.28077
298.27885
298.27504
298.26945
298.26218
298.25334
298.24302
298.23134
298.2184
298.20431
298.18915
298.173
298.15591
298.13794
298.11915
298.0997
298.07973
298.05973
298.03969
298.02067
298.00138
297.98486
297.96523
297.95542
297.92992
297.94374
297.89811
297.97465
297.88026
298.02686
297.50443
296.32415
296.79857
296.62098
296.78741
296.7615
296.8446
296.86565
296.92338
296.96127
297.01153
297.05622
297.10504
297.15282
297.20211
297.25156
297.30167
297.35209
297.40281
297.45368
297.50456
297.55533
297.60583
297.6559
297.70538
297.7541
297.80189
297.84856
297.89396
297.9379
297.98021
298.02075
298.05935
298.09589
298.13023
298.16226
298.19189
298.21907
298.24353
298.26541
298.28475
298.3015
298.31567
298.32732
298.33647
298.34321
298.3476
298.34972
298.34966
298.34754
298.34343
298.33747
298.32975
298.3204
298.30953
298.29726
298.2837
298.26895
298.25313
298.23634
298.21868
298.2002
298.18098
298.16105
298.14046
298.11934
298.09784
298.07632
298.05501
298.0345
298.0144
297.99612
297.97688
297.96351
297.94212
297.94643
297.9114
297.97244
297.89403
298.02553
297.57928
296.42565
296.89952
296.7231
296.89293
296.87051
296.95595
296.9808
297.04095
297.08244
297.13535
297.18335
297.23498
297.2858
297.33787
297.39011
297.44282
297.49574
297.54876
297.60174
297.65451
297.70691
297.75877
297.80991
297.86013
297.90925
297.95706
298.0034
298.04806
298.09086
298.13164
298.17024
298.2065
298.24032
298.27157
298.30017
298.32605
298.34915
298.36949
298.3868
298.40138
298.41325
298.42241
298.42896
298.433
298.43461
298.4339
298.43099
298.426
298.41905
298.41027
298.39979
298.38773
298.37422
298.35939
298.34337
298.32626
298.30818
298.28924
298.26955
298.24919
298.22823
298.20673
298.18471
298.16223
298.13936
298.11627
298.09324
298.07058
298.04871
298.02763
298.00795
297.98855
297.97288
297.95365
297.95195
297.92399
297.97232
297.90656
298.02897
297.6736
296.55224
297.02038
296.84679
297.0195
297.00165
297.08939
297.11871
297.1815
297.22702
297.28289
297.33451
297.38922
297.44332
297.49837
297.55355
297.60897
297.66441
297.71972
297.77473
297.82924
297.88307
297.936
297.98783
298.03835
298.08734
298.1346
298.17991
298.2231
298.26397
298.30236
298.33811
298.3711
298.40122
298.42838
298.45254
298.47365
298.49171
298.50672
298.51873
298.5276
298.53369
298.53702
298.5377
298.53589
298.53169
298.52526
298.51675
298.5063
298.49406
298.48018
298.46479
298.44805
298.43008
298.41103
298.39102
298.37016
298.34857
298.32635
298.30361
298.28043
298.25688
298.233
298.20883
298.18439
298.15974
298.13501
298.11046
298.0864
298.0632
298.04102
298.02016
298.00023
297.98284
297.96482
297.95889
297.93614
297.97362
297.91795
298.03431
297.78935
296.69886
297.16284
296.99384
297.16885
297.15665
297.24667
297.28108
297.34675
297.39669
297.45584
297.51136
297.56942
297.62699
297.6852
297.74341
297.80159
297.85954
297.91705
297.97393
298.02993
298.08484
298.13842
298.19043
298.24064
298.28882
298.33474
298.37819
298.41899
298.45694
298.4919
298.52373
298.55233
298.57763
298.59958
298.61816
298.63339
298.64531
298.65399
298.65951
298.66188
298.66129
298.65795
298.652
298.64362
298.63298
298.62025
298.60562
298.58926
298.57132
298.55198
298.53139
298.5097
298.48705
298.46358
298.43941
298.41466
298.38944
298.36384
298.33797
298.31191
298.28571
298.25942
298.23305
298.20663
298.18019
298.15384
298.12779
298.10234
298.07785
298.05457
298.03265
298.01205
297.99341
297.97583
297.96644
297.9481
297.97695
297.92998
298.04106
297.92876
296.86235
297.32846
297.16587
297.34259
297.33706
297.42938
297.46945
297.53829
297.59303
297.65577
297.71547
297.77713
297.83835
297.89985
297.96114
298.02206
298.08242
298.14193
298.20038
298.25747
298.31297
298.36659
298.41808
298.46717
298.51363
298.55722
298.59774
298.63499
298.66883
298.69911
298.72575
298.74868
298.76787
298.78334
298.79511
298.80327
298.8079
298.80915
298.80716
298.80211
298.79395
298.78315
298.76986
298.75429
298.73665
298.71715
298.69599
298.67335
298.64943
298.62438
298.59839
298.57158
298.54412
298.51613
298.48773
298.45903
298.43014
298.40114
298.37213
298.34317
298.31433
298.28564
298.2571
298.22872
298.20052
298.17258
298.14507
298.11827
298.09255
298.06816
298.04528
298.02396
298.00438
297.98694
297.97498
297.95984
297.98111
297.9412
298.04749
298.09246
297.04943
297.51763
297.36342
297.54149
297.54378
297.63862
297.68503
297.75748
297.81747
297.88423
297.94841
298.01396
298.079
298.1439
298.20827
298.27184
298.33438
298.39556
298.45511
298.51271
298.56807
298.62089
298.67089
298.7178
298.76136
298.80136
298.8376
298.86992
298.89819
298.92234
298.94231
298.9581
298.96976
298.97735
298.98098
298.98081
298.97699
298.96972
298.95922
298.94572
298.92932
298.91036
298.88912
298.86584
298.84076
298.81412
298.78612
298.75698
298.72688
298.696
298.6645
298.63253
298.60022
298.5677
298.53509
298.50247
298.46996
298.43761
298.40551
298.37372
298.3423
298.31126
298.28062
298.25035
298.22046
298.191
298.16211
298.13404
298.10715
298.08172
298.05795
298.03591
298.01563
297.99804
297.98416
297.97152
297.9861
297.95266
298.0546
298.2808
297.26341
297.73158
297.58791
297.76711
297.77843
297.87618
297.92964
298.00624
298.07194
298.14317
298.21213
298.28184
298.3508
298.41912
298.48644
298.55239
298.61671
298.67899
298.73893
298.79618
298.85039
298.90126
298.94849
298.9918
299.03097
299.06578
299.09609
299.12178
299.14279
299.1591
299.17074
299.17778
299.18035
299.1786
299.17273
299.16296
299.14954
299.13273
299.11281
299.09005
299.06473
299.03703
299.00736
298.97599
298.94318
298.90917
298.87419
298.83844
298.80212
298.7654
298.72843
298.69134
298.65428
298.61733
298.58061
298.5442
298.50818
298.4726
298.43754
298.40305
298.36917
298.3359
298.30326
298.27121
298.23974
298.20887
298.1787
298.14947
298.12149
298.0951
298.07051
298.0478
298.02701
298.00913
297.99389
297.98303
297.99156
297.96355
298.06187
298.49348
297.50537
297.97234
297.84141
298.02163
298.04319
298.14436
298.20555
298.28692
298.35877
298.43492
298.5089
298.58294
298.65581
298.72741
298.79734
298.86517
298.93056
298.99308
299.05235
299.10799
299.15966
299.20701
299.24977
299.28769
299.32056
299.34824
299.37064
299.38773
299.39952
299.40608
299.40756
299.40413
299.39599
299.38343
299.3667
299.34614
299.32206
299.2948
299.26469
299.23206
299.19728
299.16043
299.12204
299.08237
299.04171
299.00028
298.95832
298.91603
298.87359
298.83116
298.78888
298.74686
298.70522
298.66405
298.62342
298.58342
298.54409
298.50549
298.46766
298.43064
298.39447
298.35914
298.32466
298.29098
298.25807
298.22593
298.19463
298.16436
298.13542
298.10815
298.08283
298.05951
298.03835
298.02008
298.00399
297.99426
297.99736
297.97451
298.06816
298.72641
297.77724
298.24187
298.12607
298.30739
298.34047
298.44576
298.51539
298.60222
298.68065
298.76212
298.84125
298.91964
298.9962
299.07065
299.14255
299.2114
299.27677
299.33819
299.39526
299.44756
299.49476
299.53654
299.57265
299.6029
299.62716
299.64538
299.65756
299.66378
299.66418
299.65896
299.64836
299.63269
299.61228
299.58748
299.55868
299.52627
299.49066
299.45223
299.41137
299.36846
299.3239
299.27775
299.23056
299.18261
299.13417
299.08547
299.03672
298.98811
298.9398
298.89193
298.84462
298.79796
298.75205
298.70694
298.6627
298.61939
298.57703
298.53566
298.49531
298.45601
298.41777
298.38059
298.34445
298.30932
298.27515
298.24192
298.20965
298.1785
298.14873
298.12071
298.09474
298.07091
298.04947
298.03078
298.01425
298.00509
298.0034
297.98562
298.07425
298.98604
298.08184
298.54303
298.44487
298.62758
298.67348
298.78371
298.86245
298.9554
299.04073
299.12775
299.21198
299.29444
299.37412
299.4506
299.52335
299.59181
299.65549
299.71389
299.76659
299.8132
299.85341
299.88696
299.91369
299.93351
299.94641
299.95247
299.95184
299.94474
299.93147
299.91237
299.88782
299.85826
299.82412
299.78588
299.744
299.69895
299.6512
299.60118
299.5493
299.49596
299.44158
299.38625
299.33043
299.27443
299.2185
299.16286
299.10769
299.05314
298.99936
298.94646
298.89452
298.84363
298.79383
298.74517
298.69769
298.65142
298.60637
298.56255
298.51998
298.47867
298.43863
298.39984
298.36228
298.32592
298.29069
298.25656
298.22352
298.19167
298.16125
298.13261
298.10608
298.08184
298.06017
298.04108
298.02442
298.01544
298.00956
297.99535
298.07883
299.27699
298.4226
298.87929
298.8014
298.98597
299.04594
299.16203
299.25047
299.35012
299.44248
299.53502
299.62391
299.70972
299.79142
299.86849
299.94029
300.00623
300.06578
300.11845
300.16385
300.20165
300.23163
300.25367
300.26773
300.27389
300.27232
300.26327
300.24709
300.22418
300.19499
300.16004
300.11985
300.07497
300.02597
299.9734
299.9178
299.85968
299.79955
299.73786
299.67503
299.61146
299.54755
299.48337
299.41935
299.35577
299.29286
299.2308
299.16974
299.1098
299.05108
298.99367
298.93762
298.88298
298.82977
298.77802
298.72773
298.6789
298.63155
298.58565
298.54121
298.49822
298.45667
298.41655
298.37783
298.34046
298.3044
298.26958
298.23598
298.20364
298.17276
298.14365
298.11666
298.0921
298.07025
298.05084
298.03424
298.02505
298.0157
298.00469
298.08242
299.60168
298.80342
299.25463
299.19981
299.387
299.46225
299.5852
299.68377
299.79042
299.88962
299.98715
300.07967
300.16739
300.24922
300.32454
300.39266
300.45298
300.50498
300.54826
300.58251
300.60756
300.62336
300.62998
300.6276
300.61653
300.59717
300.57001
300.53558
300.4945
300.44741
300.39497
300.33783
300.27668
300.21213
300.14481
300.07529
300.00412
299.93179
299.85877
299.78543
299.71215
299.63931
299.56693
299.49538
299.42492
299.35573
299.28795
299.22168
299.157
299.09399
299.03269
298.97312
298.9153
298.85922
298.80488
298.75227
298.70135
298.65212
298.60455
298.5586
298.51428
298.47155
298.4304
298.39078
298.35267
298.31601
298.28072
298.24678
298.21417
298.18304
298.15364
298.12633
298.10151
298.07951
298.05987
298.04348
298.03373
298.02172
298.01318
298.08477
299.96372
299.22919
299.67403
299.6452
299.83596
299.92753
300.05833
300.16719
300.28065
300.3858
300.487
300.58119
300.66831
300.7472
300.81723
300.87768
300.92804
300.96791
300.99704
301.01535
301.02291
301.01994
301.00679
300.98394
300.95199
300.9116
300.86351
300.80849
300.74735
300.68089
300.60989
300.53512
300.4573
300.37712
300.2952
300.21214
300.12843
300.04457
299.96095
299.87792
299.79581
299.71495
299.63524
299.55706
299.48059
299.40598
299.3333
299.26262
299.19398
299.1274
299.0629
299.00047
298.94008
298.88171
298.82534
298.77091
298.71838
298.66773
298.61889
298.57184
298.52655
298.48298
298.4411
298.40089
298.36229
298.32526
298.28974
298.25567
298.22303
298.19187
298.16239
298.1349
298.10991
298.08773
298.06799
298.0519
298.04133
298.02757
298.02172
298.08529
300.36693
299.70627
300.14378
300.14366
300.33897
300.44748
300.58679
300.70554
300.82481
300.93391
301.03619
301.1287
301.2112
301.28256
301.34216
301.38946
301.42412
301.446
301.45518
301.45192
301.43664
301.40995
301.37258
301.32534
301.26916
301.20498
301.13377
301.05653
300.97419
300.88767
300.79784
300.7055
300.61139
300.51618
300.42047
300.32478
300.22958
300.13528
300.04221
299.95064
299.86087
299.77312
299.68716
299.60341
299.52196
299.4429
299.36625
299.29204
299.22026
299.1509
299.08393
299.01931
298.957
298.89695
298.83909
298.78337
298.72973
298.67811
298.62845
298.58069
298.5348
298.49073
298.44845
298.40792
298.3691
298.33195
298.29642
298.26244
298.22997
298.19902
298.16968
298.14223
298.11715
298.09477
298.07498
298.05923
298.04772
298.03294
298.02916
298.08384
300.81343
300.24262
300.67182
300.70344
300.90445
301.0298
301.17716
301.30266
301.42561
301.53522
301.63414
301.71969
301.79153
301.84872
301.8909
301.91784
301.9296
301.92652
301.90912
301.87818
301.8346
301.77944
301.71382
301.63894
301.55601
301.46623
301.37075
301.27068
301.16705
301.06081
300.95282
300.84387
300.73462
300.62568
300.51757
300.41073
300.30553
300.20228
300.10122
300.00254
299.90649
299.81313
299.72216
299.63403
299.54871
299.46624
299.3866
299.30977
299.2357
299.16434
299.09564
299.02954
298.96595
298.90481
298.84603
298.78954
298.73527
298.68314
298.63307
298.585
298.53888
298.49466
298.45228
298.41173
298.37295
298.33591
298.30057
298.26688
298.23478
298.20425
298.1753
298.14812
298.1231
298.10051
298.08066
298.06523
298.05309
298.03767
298.03558
298.08089
301.31219
300.84888
301.26721
301.33409
301.54129
301.67932
301.83351
301.96327
302.08442
302.18838
302.27664
302.34712
302.39962
302.43366
302.44939
302.44719
302.42777
302.3921
302.34137
302.27692
302.2002
302.11273
302.01602
301.91156
301.80076
301.68498
301.56543
301.44326
301.31947
301.19494
301.07045
300.94668
300.82419
300.70346
300.58489
300.46878
300.35542
300.24498
300.13761
300.03342
299.93259
299.83497
299.74034
299.64903
299.56098
299.47615
299.3945
299.31595
299.24043
299.16786
299.09816
299.03123
298.96698
298.90533
298.84617
298.78941
298.73498
298.68277
298.6327
298.5847
298.53871
298.49466
298.4525
298.4122
298.37371
298.33701
298.30206
298.26883
298.23726
298.20733
298.17899
298.15234
298.12763
298.10497
298.08499
298.06949
298.05654
298.04144
298.04059
298.07621
301.87974
301.54223
301.94135
302.04222
302.24431
302.40339
302.55813
302.68584
302.7969
302.88535
302.95224
302.99633
303.01809
303.01785
302.99666
302.95574
302.8967
302.82129
302.73141
302.62898
302.51595
302.39417
302.26542
302.13132
301.99337
301.85288
301.71105
301.56888
301.42725
301.28689
301.14842
301.01235
300.87909
300.74895
300.62219
300.49899
300.3795
300.26379
300.15187
300.04384
299.93975
299.83926
299.74227
299.64899
299.5593
299.47314
299.39041
299.31101
299.23484
299.16179
299.09176
299.02464
298.96032
298.89869
298.83965
298.7831
298.72893
298.67705
298.62737
298.57979
298.53426
298.4907
298.44905
298.40927
298.37132
298.33518
298.30081
298.26819
298.2373
298.20808
298.18051
298.15464
298.1305
298.10807
298.08811
298.07224
298.05814
298.04316
298.04467
298.07007
302.5226
302.31451
302.68795
302.82546
303.05613
303.20835
303.35092
303.46304
303.55027
303.60844
303.63935
303.64276
303.62036
303.57369
303.50496
303.4165
303.31083
303.19049
303.05797
302.91564
302.76572
302.61019
302.45087
302.28932
302.12689
301.96474
301.80384
301.64499
301.48883
301.33589
301.18658
301.04119
300.89996
300.76305
300.63055
300.50253
300.379
300.25991
300.14522
300.03499
299.92911
299.82705
299.72894
299.63479
299.54451
299.45795
299.37502
299.29556
299.21947
299.14662
299.07689
299.01015
298.94628
298.88517
298.82671
298.77078
298.71728
298.6661
298.61715
298.57033
298.52557
298.48279
298.44193
298.40293
298.36575
298.33037
298.29676
298.26491
298.2348
298.2064
298.1797
298.15472
298.1314
298.1096
298.09006
298.07374
298.05797
298.04294
298.04772
298.06291
303.25188
303.18269
303.56501
303.72744
303.92951
304.0708
304.19148
304.26982
304.31589
304.32585
304.30371
304.25093
304.17095
304.06682
303.94208
303.80007
303.6441
303.47722
303.3022
303.12153
302.93736
302.75154
302.56563
302.38091
302.19844
302.01906
301.84342
301.67205
301.50531
301.34347
301.18673
301.03519
300.8889
300.74786
300.61204
300.4814
300.35582
300.23516
300.11937
300.00846
299.90208
299.79964
299.70153
299.60756
299.51761
299.43151
299.34914
299.27035
299.19499
299.12294
299.05405
298.98821
298.92527
298.86512
298.80764
298.75271
298.70023
298.65008
298.60217
298.55641
298.5127
298.47097
298.43115
298.39317
298.357
298.32259
298.28992
298.25899
298.22977
298.20226
298.17648
298.15244
298.13003
298.10916
298.09052
298.07436
298.05779
298.04248
298.04656
298.05477
304.08494
304.18668
304.53411
304.69718
304.87617
304.98082
305.05175
305.07203
305.05264
304.9933
304.9001
304.77687
304.62876
304.46025
304.2758
304.07937
303.87449
303.66421
303.45114
303.23742
303.02481
302.81472
302.60824
302.40623
302.20933
302.01798
301.83251
301.65311
301.47991
301.31293
301.15215
300.99752
300.84892
300.70624
300.56935
300.43809
300.31225
300.19166
300.07628
299.96596
299.86012
299.75853
299.66138
299.56847
299.47966
299.39476
299.31364
299.23612
299.16207
299.09134
299.02378
298.95927
298.89768
298.83887
298.78272
298.72913
298.67798
298.62916
298.58257
298.53811
298.49571
298.45527
298.41672
298.38
298.34504
298.31182
298.28028
298.25043
298.22224
298.19571
298.17088
298.14777
298.12627
298.10639
298.08872
298.07299
298.05653
298.04168
298.04417
298.04601
305.04053
305.29922
305.59207
305.72723
305.84408
305.88006
305.8698
305.80411
305.69617
305.54966
305.3729
305.17178
304.95258
304.72044
304.47994
304.23485
303.98826
303.74263
303.4999
303.26153
303.02862
302.80198
302.58213
302.36945
302.16414
301.96628
301.77588
301.59286
301.41712
301.24849
301.0868
300.93184
300.78341
300.6413
300.50529
300.37515
300.25061
300.13152
300.01784
299.90918
299.80486
299.70505
299.6097
299.51862
299.43163
299.34857
299.26927
299.19357
299.12131
299.05235
298.98654
298.92376
298.86386
298.80672
298.75223
298.70026
298.65071
298.60347
298.55844
298.51553
298.47465
298.43571
298.39864
298.36338
298.32985
298.29801
298.26781
298.23922
298.21223
298.18682
298.16304
298.14089
298.12029
298.10137
298.08462
298.06945
298.05372
298.04001
298.04041
298.03716
306.10222
306.47183
306.67776
306.74132
306.75605
306.68583
306.56313
306.38797
306.17578
305.9339
305.6718
305.39618
305.11307
304.82705
304.54178
304.25997
303.98364
303.71422
303.4527
303.19971
302.95564
302.72065
302.49477
302.27793
302.06996
301.87066
301.67979
301.49708
301.32224
301.155
300.99506
300.84215
300.69596
300.55626
300.42277
300.29518
300.17325
300.05689
299.94591
299.8397
299.73779
299.64053
299.54767
299.45905
299.37448
299.29377
299.21678
299.14333
299.07327
299.00646
298.94276
298.88202
298.82413
298.76895
298.71638
298.66629
298.61858
298.57314
298.52989
298.48872
298.44955
298.4123
298.3769
298.34326
298.31134
298.28107
298.25239
298.22528
298.19969
298.17561
298.15305
298.13198
298.11236
298.09437
298.07838
298.06374
298.04912
298.03739
298.03561
298.02888
307.3574
307.61772
307.68805
307.6272
307.49472
307.28559
307.03013
306.73735
306.42257
306.09439
305.76098
305.42769
305.09873
304.77689
304.46411
304.16158
303.87002
303.58978
303.32093
303.06337
302.81688
302.58114
302.35581
302.14049
301.9348
301.73834
301.5507
301.3715
301.20038
301.03696
300.88092
300.73191
300.58963
300.4538
300.32409
300.2002
300.08194
299.96925
299.86167
299.75851
299.65987
299.56575
299.47596
299.39031
299.30862
299.23071
299.15642
299.0856
299.0181
298.95376
298.89246
298.83407
298.77845
298.72549
298.67508
298.6271
298.58145
298.53803
298.49675
298.45751
298.42024
298.38486
298.35128
298.31944
298.28929
298.26075
298.23378
298.20834
298.18436
298.16184
298.14076
298.12105
298.10269
298.08583
298.07066
298.05655
298.04282
298.03239
298.02922
298.02337
308.53361
308.56175
308.43005
308.19411
307.88997
307.53889
307.16318
306.77519
306.38561
306.00073
305.6253
305.26191
304.91214
304.57672
304.25586
303.94944
303.65712
303.37843
303.11283
302.85973
302.61853
302.38866
302.16954
301.96063
301.76142
301.57142
301.39018
301.21727
301.05228
300.89483
300.74456
300.60113
300.46425
300.33359
300.20882
300.0897
299.97615
299.86793
299.76439
299.66508
299.57038
299.48003
299.39387
299.31171
299.23338
299.15872
299.08756
299.01976
298.95518
298.89367
298.83511
298.77937
298.72633
298.67587
298.62789
298.58228
298.53894
298.49778
298.45869
298.42161
298.38644
298.35311
298.32155
298.2917
298.26348
298.23685
298.21175
298.18814
298.16597
298.14521
298.12583
298.10778
298.09103
298.07571
298.06185
298.04889
298.03657
298.02726
298.02263
298.0129
309.07007
308.9008
308.5676
308.17672
307.75064
307.31379
306.87912
306.45444
306.04436
305.65098
305.27509
304.91679
304.57571
304.25124
303.94263
303.6491
303.36984
303.10405
302.85101
302.61003
302.38044
302.16162
301.95303
301.75412
301.5644
301.38341
301.21071
301.04589
300.88859
300.73842
300.59506
300.4582
300.32754
300.20277
300.08358
299.96985
299.8615
299.75801
299.65871
299.56385
299.47336
299.38707
299.30479
299.22636
299.15161
299.08039
299.01255
298.94795
298.88646
298.82794
298.77227
298.71933
298.66902
298.62121
298.57581
298.53271
298.49181
298.45304
298.4163
298.3815
298.34857
298.31744
298.28804
298.26029
298.23415
298.20955
298.18645
298.16479
298.14453
298.12565
298.10811
298.09185
298.07687
298.06323
298.0509
298.03953
298.02908
298.02097
298.01572
298.00783
308.24304
308.18421
307.85219
307.48619
307.0806
306.67376
306.271
305.88022
305.50349
305.14223
304.79664
304.4666
304.15166
303.85128
303.56483
303.29169
303.0312
302.78274
302.54571
302.31954
302.10374
301.89783
301.70132
301.51378
301.33475
301.16385
301.00068
300.84488
300.69611
300.55406
300.41843
300.28894
300.16533
300.04728
299.93461
299.8272
299.72476
299.62664
299.53266
299.44303
299.35753
299.27603
299.19834
299.12431
299.0538
298.98666
298.92275
298.86195
298.80413
298.74916
298.69694
298.64734
298.60027
298.55561
298.51328
298.47318
298.43521
298.39929
298.36534
298.33328
298.30303
298.27452
298.24769
298.22247
298.1988
298.17664
298.15592
298.1366
298.11865
298.10202
298.08667
298.07258
298.05973
298.04813
298.03774
298.02841
298.02018
298.01362
298.00885
298.00372
305.64035
305.93049
305.99506
305.91838
305.73331
305.49985
305.23503
304.95597
304.67117
304.38659
304.106
303.83172
303.56525
303.30745
303.05879
302.81948
302.58953
302.36883
302.15721
301.9544
301.76011
301.57403
301.39583
301.22522
301.06189
300.90554
300.75589
300.61267
300.47563
300.34452
300.21911
300.09918
299.98448
299.87478
299.77002
299.67011
299.57451
299.48268
299.39503
299.31137
299.23157
299.15548
299.08295
299.01386
298.94806
298.88545
298.82589
298.76927
298.71547
298.66439
298.61591
298.56995
298.5264
298.48516
298.44615
298.40928
298.37446
298.34162
298.31068
298.28155
298.25418
298.2285
298.20444
298.18194
298.16096
298.14142
298.1233
298.10653
298.09109
298.07693
298.06402
298.05233
298.04184
298.03254
298.02439
298.01736
298.01147
298.00682
298.00343
298.00099
308.19783
308.26302
307.81563
307.06406
306.1602
305.30105
304.56195
303.93916
303.40201
302.94615
302.52168
302.14941
301.81206
301.50467
301.21419
300.94731
300.69535
300.46501
300.25233
300.06418
299.88749
299.73491
299.59289
299.46728
299.351
299.25147
299.15905
299.07556
299.00032
298.93407
298.87479
298.82059
298.77041
298.72338
298.67898
298.6368
298.59654
298.55792
298.52059
298.48507
298.45095
298.41789
298.38655
298.35639
298.32713
298.29892
298.27182
298.2458
298.22083
298.19686
298.17387
298.15179
298.13058
298.1102
298.0906
298.07176
298.05357
298.03609
298.01908
298.00285
297.98671
297.97164
297.9558
297.94191
297.92542
297.91335
297.89464
297.88607
297.86507
297.86378
297.83757
297.84888
297.80947
297.84311
297.7857
297.85126
297.78002
297.87461
297.81615
297.91098
306.02818
305.36758
304.71106
303.89305
303.01612
302.26843
301.69425
301.2801
300.98676
300.76391
300.58466
300.43167
300.2953
300.16906
300.04672
299.93435
299.82017
299.71851
299.61536
299.52521
299.43285
299.35331
299.27187
299.20319
299.13127
299.07181
299.01171
298.95563
298.90343
298.85446
298.80825
298.76412
298.72153
298.68032
298.64046
298.60193
298.56468
298.5287
298.49373
298.46049
298.42843
298.39735
298.36744
298.339
298.31139
298.28475
298.25914
298.23455
298.21092
298.18824
298.16646
298.14552
298.12539
298.10602
298.08736
298.06941
298.05202
298.03529
298.01895
298.00333
297.98774
297.97315
297.95775
297.94419
297.92805
297.91616
297.89789
297.88905
297.86822
297.86714
297.84067
297.85235
297.81306
297.84697
297.78881
297.85506
297.78252
297.88017
297.8163
297.91845
300.32421
300.24461
299.68306
298.894
298.48231
298.4307
298.48398
298.56821
298.66472
298.75963
298.84527
298.9185
298.97901
299.0259
299.05826
299.08748
299.0968
299.11168
299.09263
299.08021
299.05038
299.03041
298.99624
298.97117
298.93406
298.90402
298.86679
298.83186
298.79849
298.76275
298.72697
298.69157
298.65606
298.62093
298.58637
298.55251
298.51947
298.48719
298.4557
298.42607
298.3969
298.36853
298.34186
298.31542
298.28993
298.2654
298.24179
298.21905
298.19717
298.17612
298.15586
298.13635
298.11755
298.09944
298.08193
298.06508
298.04865
298.03289
298.01733
298.00258
297.98755
297.97375
297.95862
297.94586
297.92966
297.9187
297.89956
297.89219
297.87116
297.87098
297.84257
297.85669
297.81493
297.85174
297.79023
297.8611
297.78304
297.88614
297.81659
297.92451
302.76871
302.77719
302.12853
300.8166
299.98016
299.7793
299.71226
299.667
299.62945
299.57583
299.51758
299.45884
299.40439
299.34919
299.33877
299.2565
299.26092
299.16667
299.17653
299.08696
299.095
299.01088
299.01507
298.93631
298.93867
298.86539
298.82975
298.79466
298.75754
298.72042
298.68479
298.65017
298.61636
298.58343
298.55135
298.52007
298.4896
298.45984
298.43159
298.40413
298.37701
298.35062
298.32502
298.30035
298.27654
298.25357
298.23141
298.21006
298.18948
298.16966
298.15055
298.13213
298.11434
298.09719
298.08056
298.06453
298.04884
298.03377
298.0188
298.00462
297.99002
297.97667
297.96182
297.94942
297.93333
297.92267
297.90338
297.89636
297.87533
297.8752
297.84695
297.86098
297.8184
297.85588
297.79343
297.86482
297.78564
297.89054
297.81803
297.92917
301.94244
301.52491
300.51993
299.31043
298.86259
298.7603
298.7868
298.79351
298.8015
298.79956
298.80502
298.80734
298.81101
298.81157
298.81187
298.809
298.80539
298.79883
298.7911
298.78498
298.76906
298.76723
298.74774
298.74027
298.71523
298.70196
298.68148
298.65816
298.63467
298.61111
298.58691
298.56217
298.53707
298.51179
298.48649
298.46127
298.43625
298.41144
298.38771
298.36432
298.34096
298.31807
298.29583
298.27417
298.25313
298.23273
298.21297
298.19385
298.17533
298.15744
298.1401
298.12333
298.10706
298.09132
298.07598
298.06112
298.04651
298.03242
298.0183
298.00493
297.99097
297.97828
297.96384
297.95201
297.93608
297.92596
297.90638
297.89993
297.8777
297.8793
297.85008
297.86539
297.82122
297.8602
297.79551
297.86982
297.787
297.89555
297.81886
297.93388
302.0218
301.61538
300.55691
299.32245
298.75124
298.68009
298.70976
298.70747
298.70806
298.69802
298.70051
298.70014
298.70113
298.69926
298.69762
298.69339
298.68909
298.6826
298.67592
298.66611
298.65789
298.64413
298.63331
298.61767
298.60509
298.58808
298.57156
298.55483
298.53712
298.51881
298.50018
298.48101
298.46145
298.44165
298.42166
298.40157
298.38144
298.36131
298.34211
298.32279
298.30326
298.28401
298.2651
298.24659
298.22851
298.21086
298.19366
298.17691
298.16061
298.14477
298.12934
298.11433
298.09968
298.08542
298.07144
298.05784
298.04434
298.03127
298.01805
298.00548
297.99219
297.98013
297.96615
297.95479
297.93912
297.92939
297.9097
297.9037
297.88132
297.88345
297.8538
297.8697
297.82451
297.86446
297.79827
297.87412
297.78899
297.90022
297.81991
297.93834
301.67071
301.17608
300.00082
298.82906
298.41057
298.34382
298.37871
298.38792
298.40584
298.41277
298.4245
298.43023
298.43837
298.4438
298.44972
298.45389
298.45753
298.46013
298.46172
298.4627
298.46204
298.46139
298.45867
298.45568
298.45052
298.44497
298.43797
298.42971
298.42027
298.41018
298.39929
298.38742
298.3748
298.36155
298.34776
298.33351
298.31891
298.30398
298.28973
298.27491
298.25971
298.24454
298.22948
298.21457
298.19984
298.18534
298.17108
298.15706
298.14331
298.12982
298.11657
298.10356
298.09077
298.07821
298.06577
298.05357
298.04134
298.0294
298.01719
298.00552
297.993
297.98162
297.96818
297.95733
297.94197
297.93263
297.91299
297.90734
297.88498
297.88747
297.85726
297.8738
297.82747
297.86867
297.80065
297.87855
297.79076
297.90482
297.82088
297.94264
301.51842
300.95057
299.67931
298.56695
298.2328