/*--------------------------------*- C++ -*----------------------------------*\
  =========                 |
  \\      /  F ield         | OpenFOAM: The Open Source CFD Toolbox
   \\    /   O peration     | Website:  https://openfoam.org
    \\  /    A nd           | Version:  6
     \\/     M anipulation  |
\*---------------------------------------------------------------------------*/
FoamFile
{
    version     2.0;
    format      ascii;
    class       volVectorField;
    location    "400";
    object      U;
}
// * * * * * * * * * * * * * * * * * * * * * * * * * * * * * * * * * * * * * //

dimensions      [0 1 -1 0 0 0 0];

internalField   nonuniform List<vector> 
16000
(
(152.25864 1.2709896e-15 -17.589285)
(160.90142 -1.1310028e-15 -11.432288)
(157.60413 4.3788148e-18 -16.633308)
(159.14967 3.9579595e-18 -12.42165)
(157.86919 0 -15.531103)
(158.30084 -9.0461246e-16 -13.113702)
(157.66598 8.5650643e-16 -14.746409)
(157.70101 0 -13.471276)
(157.30316 -1.8687029e-19 -14.226315)
(157.17378 1.7676811e-19 -13.580576)
(156.86706 3.3493175e-19 -13.869687)
(156.66358 -6.4975362e-16 -13.532826)
(156.38879 6.1609213e-16 -13.593395)
(156.15018 4.8526164e-18 -13.391395)
(155.88274 5.5436503e-16 -13.344505)
(155.6257 -5.2620756e-16 -13.192077)
(155.3563 -1.0000839e-15 -13.093459)
(155.08825 9.4908431e-16 -12.952121)
(154.81424 0 -12.825026)
(154.53903 8.5752049e-16 -12.678502)
(154.26068 -8.1539711e-16 -12.531649)
(153.98102 -7.763484e-16 -12.373346)
(153.69993 -7.340928e-19 -12.209606)
(153.4184 -3.5730499e-19 -12.036947)
(153.1369 6.5809696e-16 -11.857175)
(152.85627 0 -11.669298)
(152.57721 6.0722036e-16 -11.473908)
(152.30055 -5.6858593e-16 -11.270845)
(152.0271 -5.3742394e-19 -11.060436)
(151.75774 -5.1220726e-19 -10.842862)
(151.49334 -5.0031493e-16 -10.618478)
(151.2348 4.7634377e-16 -10.387653)
(150.98301 -1.4221221e-17 -10.150897)
(150.73885 -1.2717818e-17 -9.9087512)
(150.5032 8.2795214e-16 -9.661822)
(150.27688 -1.5804871e-15 -9.4107884)
(150.06068 7.5366305e-16 -9.1563587)
(149.85536 1.1248756e-17 -8.8993055)
(149.6616 1.0739023e-17 -8.64047)
(149.48005 0 -8.3807378)
(149.31127 -1.2230525e-18 -8.1210019)
(149.15573 1.1682415e-18 -7.8621694)
(149.01385 -5.7058579e-16 -7.6051514)
(148.88596 5.4717732e-16 -7.3508492)
(148.77231 5.2099574e-16 -7.1001354)
(148.67306 -4.9883547e-16 -6.8538473)
(148.58828 -9.3120515e-19 -6.6127743)
(148.51799 0 -6.3776449)
(148.46212 4.360808e-16 -6.1491198)
(148.4205 -4.1703496e-16 -5.9277825)
(148.39292 0 -5.7141343)
(148.3791 0 -5.5085856)
(148.37868 2.2836178e-17 -5.3114607)
(148.3912 -1.3655499e-18 -5.1230016)
(148.41625 2.092853e-17 -4.9433492)
(148.45337 0 -4.772554)
(148.50204 0 -4.6105894)
(148.56161 0 -4.4573518)
(148.63142 0 -4.3126546)
(148.71074 -3.5905413e-17 -4.1762647)
(148.79892 -3.2402831e-17 -4.0478556)
(148.89507 0 -3.92714)
(148.99874 2.9816353e-17 -3.8136051)
(149.10846 0 -3.707086)
(149.22461 -3.0905366e-17 -3.6066174)
(149.34339 -4.2536905e-16 -3.5127302)
(149.46824 4.0560089e-16 -3.4229881)
(149.58789 -3.0454245e-18 -3.3405933)
(149.71756 3.7484895e-16 -3.258142)
(149.82329 -3.8051141e-16 -3.188293)
(149.95995 0 -3.1061174)
(150.02591 -3.3452027e-16 -3.0563388)
(150.201 6.4476062e-16 -2.9503743)
(150.15622 -3.1123082e-16 -2.9598941)
(150.44851 4.6876307e-18 -2.7573819)
(150.11527 0 -2.977202)
(150.70217 -1.4012407e-16 -2.3967876)
(149.77023 1.7169368e-17 -3.3240922)
(150.8573 1.3144873e-16 -1.5390864)
(149.29228 -3.2057393e-17 -4.4268219)
(151.92162 -1.280835e-15 -19.29325)
(160.59451 1.1417349e-15 -12.86183)
(157.10493 -4.3213571e-18 -18.31112)
(158.73977 1.0363263e-15 -13.855885)
(157.37378 -9.8811773e-16 -17.134802)
(157.84694 7.2109924e-18 -14.561371)
(157.16586 0 -16.280318)
(157.21133 0 -14.917635)
(156.78753 7.6973766e-16 -15.701817)
(156.65405 -7.511917e-16 -15.007986)
(156.33058 6.9027382e-16 -15.295187)
(156.11721 -6.6417321e-16 -14.927878)
(155.82901 0 -14.972079)
(155.57869 5.93066e-16 -14.745069)
(155.29902 -5.6700643e-16 -14.675415)
(155.03011 0 -14.498014)
(154.74917 0 -14.37333)
(154.46982 0 -14.205143)
(154.18508 -9.0913993e-16 -14.049581)
(153.89959 8.7753634e-16 -13.873834)
(153.61166 0 -13.696283)
(153.32314 7.9415434e-16 -13.506367)
(153.03405 -7.4338822e-16 -13.309744)
(152.74548 -7.1909244e-16 -13.103219)
(152.45801 3.1727571e-17 -12.888486)
(152.17257 6.310441e-16 -12.664709)
(151.88998 6.4011287e-16 -12.432492)
(151.61115 -1.1914482e-15 -12.191791)
(151.337 1.1263642e-15 -11.943012)
(151.06845 -5.1976581e-16 -11.686448)
(150.80646 5.1164889e-16 -11.422572)
(150.55197 -9.7527304e-16 -11.15189)
(150.30588 9.4441591e-16 -10.87501)
(150.06912 -8.7292945e-16 -10.592604)
(149.84253 4.2281244e-16 -10.305457)
(149.62695 0 -10.014408)
(149.42311 2.4071941e-17 -9.7203446)
(149.23172 -1.1472624e-17 -9.4241873)
(149.05337 -7.1217466e-16 -9.1268757)
(148.88858 7.1098062e-16 -8.8294297)
(148.7378 0 -8.532891)
(148.60138 -6.1013029e-16 -8.238286)
(148.47958 3.6287983e-17 -7.9466283)
(148.37256 1.1128477e-15 -7.658916)
(148.2804 -5.3147171e-16 -7.3761064)
(148.2031 -5.0785327e-16 -7.0991034)
(148.14057 5.1553208e-16 -6.8287514)
(148.09264 -4.0575589e-16 -6.5658203)
(148.05908 8.3102508e-16 -6.3109984)
(148.03958 -4.2368634e-16 -6.0648845)
(148.03378 0 -5.8279833)
(148.04127 0 -5.6007007)
(148.06159 -2.3149104e-17 -5.3833417)
(148.09419 -7.0877136e-16 -5.1761238)
(148.13854 6.5699209e-16 -4.9791625)
(148.19411 6.0843204e-16 -4.7924658)
(148.26036 -4.5067216e-20 -4.6159597)
(148.33664 -6.6916554e-16 -4.4494945)
(148.42224 0 -4.2928356)
(148.51645 3.4089101e-17 -4.1456817)
(148.6186 -3.2677298e-17 -4.0076645)
(148.7279 -6.2605352e-17 -3.8783903)
(148.84373 -4.4992388e-16 -3.75736)
(148.96511 8.1459201e-20 -3.6441681)
(149.09162 4.1374324e-16 -3.5380987)
(149.22126 0 -3.4389858)
(149.35444 -4.061731e-16 -3.3454734)
(149.48569 3.8998731e-16 -3.2585595)
(149.62001 -4.6810836e-17 -3.1745757)
(149.74173 3.8219249e-16 -3.0991106)
(149.87497 -6.9151316e-16 -3.0196427)
(149.96872 3.7413421e-16 -2.9601791)
(150.11378 3.1982251e-16 -2.8680373)
(150.13455 -1.1323417e-19 -2.8507536)
(150.34853 -3.1972314e-16 -2.6830714)
(150.14647 2.6821264e-16 -2.8381817)
(150.58111 -2.7133297e-16 -2.3514254)
(149.85594 -1.6710026e-17 -3.1419142)
(150.72086 1.6044547e-17 -1.5359133)
(149.41887 3.1222708e-17 -4.1635562)
(151.42891 1.2951924e-15 -21.029677)
(160.11017 -7.4737825e-21 -14.354485)
(156.46665 -1.1264903e-15 -19.992564)
(158.18056 1.0427974e-15 -15.362627)
(156.73953 7.8018311e-18 -18.741793)
(157.23878 9.3340967e-16 -16.073406)
(156.5192 -1.7827581e-15 -17.823633)
(156.56596 1.2783608e-17 -16.414912)
(156.11992 7.9768729e-16 -17.192582)
(155.97712 1.1796356e-17 -16.473853)
(155.63778 -7.272796e-16 -16.738582)
(155.41143 6.783904e-16 -16.35123)
(155.1095 0 -16.367666)
(154.8456 0 -16.11866)
(154.55302 -5.7973123e-16 -16.019497)
(154.27111 5.5014816e-16 -15.81635)
(153.97802 0 -15.660833)
(153.68678 1.5529698e-17 -15.463218)
(153.39104 -1.4740418e-17 -15.275077)
(153.09519 8.6952301e-16 -15.06668)
(152.7979 4.6350962e-19 -14.854432)
(152.50099 -7.8603672e-16 -14.629067)
(152.2047 7.603529e-16 -14.395514)
(151.91017 -7.3465158e-16 -14.151103)
(151.61817 -7.214954e-16 -13.897328)
(151.3297 6.8653874e-16 -13.633601)
(151.04571 1.9860282e-17 -13.360537)
(150.7672 3.7777062e-17 -13.078262)
(150.49518 3.5986443e-17 -12.787284)
(150.23066 -5.6540412e-16 -12.488054)
(149.97465 4.8955378e-16 -12.181194)
(149.72811 5.2910559e-16 -11.867374)
(149.492 -4.7446859e-16 -11.547378)
(149.26719 -4.5255208e-16 -11.222059)
(149.05452 8.6286758e-16 -10.892349)
(148.85476 -8.2289702e-16 -10.559257)
(148.66857 -3.68079e-16 -10.223858)
(148.49657 7.4862129e-16 -9.887276)
(148.33923 0 -9.5506287)
(148.19692 -6.8169981e-16 -9.2150219)
(148.06991 6.0976162e-16 -8.8816195)
(147.9584 0 -8.5515788)
(147.86245 -3.7026777e-17 -8.2260032)
(147.78202 0 -7.9059594)
(147.71699 6.7575185e-17 -7.5924673)
(147.66716 0 -7.2864674)
(147.63225 -3.078845e-17 -6.988824)
(147.61188 4.8265361e-20 -6.7003124)
(147.60564 1.124322e-16 -6.4216091)
(147.61306 0 -6.1532892)
(147.63362 0 -5.8958218)
(147.66676 0 -5.6495674)
(147.71191 0 -5.4147791)
(147.76843 0 -5.1916056)
(147.83569 8.5735347e-17 -4.9801063)
(147.91307 4.0976942e-17 -4.7802305)
(148 6.2724003e-16 -4.5918253)
(148.0958 -6.0017004e-16 -4.4146707)
(148.19977 -7.1789697e-17 -4.2484651)
(148.31119 0 -4.0928318)
(148.42938 6.5739074e-17 -3.947337)
(148.55362 5.6646029e-16 -3.8115024)
(148.68325 -5.4250394e-16 -3.6847881)
(148.81749 0 -3.5666528)
(148.95567 -5.5320384e-17 -3.456441)
(149.09651 -1.0599044e-16 -3.3536477)
(149.23931 4.062514e-16 -3.2573643)
(149.38108 -3.8956644e-16 -3.1675021)
(149.5224 4.6689083e-17 -3.0822624)
(149.65579 -3.5830539e-16 -3.0034847)
(149.79017 8.9553115e-20 -2.9253443)
(149.90211 2.8893774e-16 -2.8585609)
(150.03463 0 -2.776682)
(150.09224 0 -2.7388825)
(150.26241 1.8297017e-17 -2.6042309)
(150.14891 1.762419e-17 -2.69616)
(150.47298 2.9628991e-17 -2.298556)
(149.90198 -1.1440846e-16 -2.9441124)
(150.61437 1.1401557e-16 -1.5214924)
(149.44535 -6.0341711e-17 -3.952924)
(150.78613 3.1309737e-17 -22.809025)
(159.45162 9.3005797e-18 -15.87722)
(155.67869 1.1636902e-15 -21.709879)
(157.4709 4.7753841e-19 -16.900873)
(155.95253 -1.0170411e-15 -20.377839)
(156.47737 -9.5848114e-16 -17.614728)
(155.71792 9.0812397e-16 -19.390563)
(155.76446 -1.3408668e-17 -17.937594)
(155.29531 8.2648207e-16 -18.7026)
(155.14166 -7.4612996e-16 -17.959801)
(154.78573 -7.3060329e-16 -18.196968)
(154.54527 1.363235e-15 -17.788744)
(154.22893 -6.5672238e-16 -17.773408)
(153.95073 1.9494128e-17 -17.500267)
(153.64478 0 -17.368128)
(153.34956 0 -17.136315)
(153.04422 -5.3382239e-16 -16.946597)
(152.74124 4.9108788e-16 -16.716207)
(152.43488 0 -16.49201)
(152.12934 9.4515433e-16 -16.247384)
(151.82365 -8.9829683e-16 -15.99682)
(151.51963 4.2384032e-20 -15.732309)
(151.21774 0 -15.458126)
(150.91923 -4.6929447e-17 -15.172113)
(150.625 -7.1416122e-16 -14.875625)
(150.33619 6.3693495e-16 -14.56833)
(150.05384 -6.8765853e-16 -14.250906)
(149.77907 5.7754156e-16 -13.923672)
(149.51296 -3.665156e-17 -13.587283)
(149.25659 -3.4971511e-17 -13.242382)
(149.01099 -4.9945803e-16 -12.889771)
(148.77715 4.7568163e-16 -12.530323)
(148.556 0 -12.165018)
(148.34838 0 -11.794913)
(148.15507 0 -11.421144)
(147.97671 -5.2409944e-17 -11.044904)
(147.81387 -4.9898454e-17 -10.667427)
(147.66698 8.0962471e-16 -10.290003)
(147.53638 -9.0702132e-17 -9.9139605)
(147.42225 -6.4960345e-16 -9.5405536)
(147.32466 4.1300233e-17 -9.1710027)
(147.24357 6.3089377e-16 -8.80656)
(147.17882 -5.2660891e-16 -8.4484187)
(147.13015 -5.7448053e-16 -8.0976799)
(147.09722 -6.8552931e-17 -7.7553884)
(147.0796 9.8122195e-16 -7.4224928)
(147.07677 -3.746258e-16 -7.099838)
(147.08819 -5.9599476e-17 -6.7881687)
(147.11324 3.9855413e-16 -6.4881138)
(147.15128 -5.4374328e-16 -6.2001886)
(147.20164 -4.1540595e-16 -5.924793)
(147.26363 3.9680894e-16 -5.6622108)
(147.33655 0 -5.4126137)
(147.4197 7.2425771e-16 -5.1760631)
(147.51235 -7.7860182e-16 -4.9525266)
(147.61381 0 -4.7418748)
(147.72348 6.3218617e-16 -4.5438722)
(147.8407 -9.8215032e-16 -4.3582062)
(147.96475 5.0566035e-16 -4.1844995)
(148.09492 5.5256093e-16 -4.022296)
(148.23054 -1.3224926e-16 -3.871086)
(148.37096 -5.0558352e-16 -3.7303146)
(148.51552 -4.8357933e-16 -3.5993779)
(148.66355 5.7850113e-16 -3.4776464)
(148.81436 -4.4281954e-16 -3.3644354)
(148.96698 1.060553e-16 -3.2590883)
(149.12041 4.0583629e-16 -3.1608049)
(149.27261 -3.8850865e-16 -3.0690655)
(149.42261 5.5827802e-16 -2.9827276)
(149.56622 0 -2.90206)
(149.70598 0 -2.8242949)
(149.83052 0 -2.7536473)
(149.95957 0 -2.6770257)
(150.04269 1.506203e-16 -2.6258248)
(150.1842 -2.8893592e-16 -2.5154653)
(150.1349 3.4702086e-16 -2.5579039)
(150.38292 -3.6622648e-16 -2.2358338)
(149.9279 4.9690529e-16 -2.7528026)
(150.52416 -3.7306165e-16 -1.4942737)
(149.46291 -1.063877e-19 -3.7063015)
(149.99336 1.3556953e-15 -24.624132)
(158.60384 5.3265973e-19 -17.430956)
(154.73652 -1.2007488e-15 -23.451385)
(156.60304 0 -18.475703)
(155.00866 -1.6183772e-17 -22.031951)
(155.55338 -3.0519898e-17 -19.189067)
(154.7555 0 -20.972111)
(154.79708 -8.4758068e-16 -19.486301)
(154.3053 8.287944e-16 -20.224708)
(154.13741 -8.0998595e-16 -19.463499)
(153.76451 7.4431751e-16 -19.663893)
(153.50769 -3.6124322e-20 -19.235736)
(153.17621 0 -19.182435)
(152.88233 6.1597108e-16 -18.883224)
(152.56235 -6.032632e-16 -18.713289)
(152.25313 0 -18.449394)
(151.93529 5.4446079e-16 -18.221039)
(151.62055 -5.4936436e-16 -17.953754)
(151.30392 4.9164337e-16 -17.689044)
(150.98939 4.3840288e-16 -17.403738)
(150.67638 -8.6049613e-16 -17.11031)
(150.36673 -2.6383295e-17 -16.802077)
(150.06117 5.0289551e-17 -16.482697)
(149.76102 -9.2807539e-20 -16.150551)
(149.46736 0 -15.806904)
(149.18144 -8.4288694e-20 -15.451718)
(148.90444 0 -15.085784)
(148.63753 3.9270013e-17 -14.709656)
(148.38188 0 -14.32418)
(148.13859 3.5541826e-17 -13.930231)
(147.90871 0 -13.528838)
(147.6932 0 -13.121109)
(147.49293 6.155837e-17 -12.708255)
(147.30867 0 -12.291561)
(147.14104 -4.467912e-16 -11.872379)
(146.99056 4.7885919e-16 -11.452104)
(146.8576 0 -11.032169)
(146.74239 -4.8321021e-17 -10.614004)
(146.64504 -6.4557374e-16 -10.19905)
(146.5655 6.1540912e-16 -9.7887506)
(146.50359 -6.7074485e-16 -9.3844206)
(146.459 7.1961429e-16 -8.9873173)
(146.43132 -7.6264876e-16 -8.5986887)
(146.42002 5.8194964e-16 -8.2196491)
(146.42451 -1.3888387e-16 -7.8512127)
(146.44412 6.6180863e-17 -7.4942959)
(146.47812 -1.2630296e-16 -7.1496822)
(146.52574 1.2064838e-16 -6.8180396)
(146.58618 -4.6033867e-16 -6.4999093)
(146.65863 9.8859966e-16 -6.1957059)
(146.74227 -4.0448768e-20 -5.9057231)
(146.83629 -5.0058395e-16 -5.6301332)
(146.9399 1.9121536e-16 -5.3689952)
(147.05231 0 -5.122259)
(147.17276 0 -4.8897745)
(147.30049 0 -4.6713111)
(147.43486 -6.3594222e-16 -4.4665372)
(147.57523 4.5578295e-16 -4.2750383)
(147.72091 1.4509733e-16 -4.0963457)
(147.87121 -1.3869703e-16 -3.9299215)
(148.02549 1.3249463e-16 -3.7751738)
(148.18313 -7.5987819e-16 -3.6314736)
(148.34354 9.6843864e-16 -3.4981486)
(148.50611 -1.0414699e-15 -3.3744979)
(148.6702 9.9569655e-16 -3.2597857)
(148.83502 -2.1169957e-16 -3.153267)
(148.99955 -6.0704395e-16 -3.0541424)
(149.16217 0 -2.9617001)
(149.32138 -1.8509393e-16 -2.8750187)
(149.47435 1.7712212e-16 -2.7936873)
(149.62081 0 -2.7161943)
(149.75523 0 -2.6436259)
(149.88523 -1.5532193e-16 -2.5702081)
(149.98523 -2.9749299e-16 -2.5097365)
(150.11087 -2.8489659e-16 -2.4171705)
(150.10619 6.830575e-17 -2.4204018)
(150.29976 -6.5487259e-17 -2.1618398)
(149.93525 2.5144794e-16 -2.5619556)
(150.43754 -6.0126164e-17 -1.4579089)
(149.44921 2.2713772e-16 -3.4746005)
(149.04561 1.3536461e-15 -26.472505)
(157.56594 -1.2313639e-15 -19.016165)
(153.63062 1.8477188e-17 -25.218215)
(155.56682 0 -20.086502)
(153.89762 1.6435686e-17 -23.703144)
(154.45642 1.0243641e-15 -20.794184)
(153.62131 -9.1169339e-16 -22.565603)
(153.65322 -5.5671077e-17 -21.056759)
(153.13906 0 -21.754578)
(152.95374 -7.9995608e-16 -20.978745)
(152.56338 7.069188e-17 -21.133118)
(152.28828 2.2028256e-17 -20.684233)
(151.94096 6.3941967e-16 -20.586503)
(151.63039 0 -20.257857)
(151.29597 6.1490375e-16 -20.044759)
(150.9725 -1.1309311e-15 -19.744214)
(150.64234 1.1089003e-15 -19.472081)
(150.31636 -4.9371611e-16 -19.162816)
(149.99041 0 -18.852388)
(149.66827 2.97091e-17 -18.521127)
(149.34978 -9.0498096e-16 -18.179574)
(149.03685 1.7205505e-15 -17.822354)
(148.73042 -1.6874297e-15 -17.452603)
(148.43197 8.753374e-16 -17.069248)
(148.14273 -7.4063151e-16 -16.673546)
(147.86405 7.0424794e-16 -16.265785)
(147.59722 0 -15.846933)
(147.34348 -5.9830231e-16 -15.417823)
(147.10402 6.0734507e-16 -14.979547)
(146.87995 7.2378617e-17 -14.533258)
(146.67227 6.8915174e-17 -14.08025)
(146.48185 -5.901424e-16 -13.621902)
(146.30946 9.3653033e-16 -13.159683)
(146.1557 1.5171259e-19 -12.695124)
(146.02102 -9.0636669e-16 -12.229803)
(145.90569 5.3974381e-16 -11.765322)
(145.80986 0 -11.303285)
(145.73348 3.9204657e-16 -10.845281)
(145.67635 -4.6704299e-16 -10.392843)
(145.63813 0 -9.9474727)
(145.61838 -6.7885597e-16 -9.5106072)
(145.61644 8.10332e-17 -9.083503)
(145.63163 5.3968372e-16 -8.6673511)
(145.66315 0 -8.2632539)
(145.71013 1.4016152e-16 -7.8721435)
(145.77165 6.6878894e-16 -7.4948474)
(145.84676 -5.1026102e-16 -7.1320436)
(145.93448 1.2102233e-19 -6.7842737)
(146.03385 -4.6423499e-16 -6.4519479)
(146.14389 8.8581611e-16 -6.1353398)
(146.26366 -6.5639121e-20 -5.8346006)
(146.39226 -1.0079328e-16 -5.5497596)
(146.52881 -1.92304e-16 -5.2807355)
(146.67248 1.8363409e-16 -5.0273428)
(146.82247 1.7524698e-16 -4.7893003)
(146.97801 6.6877816e-16 -4.566252)
(147.13843 -6.3853997e-16 -4.3577588)
(147.30313 0 -4.163305)
(147.47146 0 -3.9823181)
(147.64277 1.3888908e-16 -3.8141775)
(147.81647 5.3052723e-16 -3.6582093)
(147.99199 -2.5345042e-16 -3.5137111)
(148.16879 -4.8383893e-16 -3.3799455)
(148.34634 -2.3099283e-16 -3.2561486)
(148.5241 2.2075613e-16 -3.1415318)
(148.70137 4.2168284e-16 -3.0352895)
(148.87724 8.0562575e-16 -2.936591)
(149.05032 -3.8492918e-16 -2.8446275)
(149.21899 3.6769737e-16 -2.7585232)
(149.38098 -7.029052e-16 -2.677589)
(149.53492 -3.3582671e-16 -2.6007659)
(149.67769 3.2111036e-16 -2.527776)
(149.81118 1.5346126e-16 -2.4562696)
(149.92346 1.4675017e-16 -2.3902977)
(150.03987 -2.8071254e-16 -2.3097172)
(150.06749 1.3430486e-16 -2.2829319)
(150.22053 1.2851434e-16 -2.0786374)
(149.93312 -4.9246344e-16 -2.3736571)
(150.35954 2.9432251e-16 -1.4122679)
(149.42331 0 -3.2355702)
(147.92697 2.18006e-17 -28.352097)
(156.364 -1.2137117e-15 -20.633803)
(152.34529 3.7033834e-17 -27.005931)
(154.34584 1.1263687e-15 -21.73077)
(152.60451 -1.0707502e-15 -25.385024)
(153.17084 1.0416723e-15 -22.42573)
(152.30072 -5.9849905e-17 -24.164015)
(152.31801 2.829557e-17 -22.642218)
(151.78223 0 -23.284322)
(151.57637 8.1410007e-16 -22.496819)
(151.16833 -8.6791458e-16 -22.595401)
(150.87321 0 -22.123828)
(150.50962 7.3790251e-16 -21.974691)
(150.18164 -6.5870648e-16 -21.612114)
(149.8327 6.2568642e-16 -21.349811)
(149.49515 -6.3078784e-16 -21.007014)
(149.15331 4.9362829e-16 -20.685151)
(148.81718 -1.0716299e-15 -20.327874)
(148.48348 5.0894142e-16 -19.965673)
(148.15587 -4.8397046e-16 -19.582316)
(147.83458 5.1729615e-16 -19.186577)
(147.52163 -5.4724289e-17 -18.774351)
(147.2182 -5.2033542e-17 -18.34838)
(146.9259 -4.9358301e-17 -17.908155)
(146.64612 0 -17.45502)
(146.3803 4.4657329e-17 -16.989635)
(146.12979 6.8071708e-16 -16.513219)
(145.89587 -7.2823836e-16 -16.02694)
(145.6797 5.3921388e-16 -15.532194)
(145.48232 -1.4639059e-16 -15.030457)
(145.30463 -6.2780643e-16 -14.52333)
(145.14734 -1.4979634e-19 -14.01249)
(145.01102 -5.0596891e-16 -13.499683)
(144.89602 4.8161987e-16 -12.986693)
(144.80252 1.1479509e-16 -12.475319)
(144.73051 -1.0910229e-16 -11.967351)
(144.67977 0 -11.464543)
(144.64995 -3.963129e-16 -10.968591)
(144.64048 4.7180506e-16 -10.481107)
(144.65068 -7.1935125e-16 -10.003593)
(144.67972 8.5688256e-16 -9.5374908)
(144.72669 -1.6316154e-16 -9.0840489)
(144.79054 7.7789379e-16 -8.6443357)
(144.87019 -1.3348225e-15 -8.219364)
(144.96449 -1.4138605e-16 -7.809943)
(145.07229 4.0435296e-16 -7.4167422)
(145.19242 0 -7.0402837)
(145.32373 1.2265937e-16 -6.6809338)
(145.46509 0 -6.3389263)
(145.61541 -2.2279235e-16 -6.0143567)
(145.77366 0 -5.7072)
(145.93886 -4.0503999e-16 -5.4173148)
(146.11009 1.9321289e-16 -5.1444565)
(146.28649 -3.6843137e-16 -4.8882858)
(146.46727 -1.7565524e-16 -4.6483791)
(146.65166 0 -4.4242416)
(146.83902 0 -4.2153212)
(147.02878 0 -4.0209966)
(147.22036 -5.8207141e-16 -3.840593)
(147.41316 2.7793534e-16 -3.6734053)
(147.60665 1.485569e-19 -3.5186829)
(147.80033 5.0582471e-16 -3.3756541)
(147.99374 0 -3.2435224)
(148.18643 6.9074386e-16 -3.1214702)
(148.37792 -6.5931393e-16 -3.0086625)
(148.56765 -2.0958647e-16 -2.9042482)
(148.75481 -2.000292e-16 -2.8073622)
(148.93821 7.6418664e-16 -2.7171392)
(149.11626 -3.6475659e-16 -2.632694)
(149.28693 -5.2210002e-16 -2.5532156)
(149.44845 2.0136823e-19 -2.477741)
(149.59862 1.9558205e-19 -2.4055376)
(149.73673 1.5146944e-15 -2.3355177)
(149.85794 -5.7864898e-16 -2.2669447)
(149.97017 5.5250939e-16 -2.1942296)
(150.02265 0 -2.1450845)
(150.14338 5.0417578e-16 -1.9860362)
(149.92039 -4.8242838e-16 -2.1884445)
(150.28085 0 -1.3581606)
(149.38638 2.1384168e-16 -3.0032083)
(146.62012 1.3921702e-15 -30.265993)
(155.04433 -2.5469452e-15 -22.284022)
(150.87117 -3.8783175e-17 -28.803968)
(152.92905 -7.1563955e-19 -23.400299)
(151.11896 1.0876401e-15 -27.06631)
(151.68512 -1.0276797e-15 -24.07424)
(150.78231 1.9773392e-15 -25.756865)
(150.77942 -9.2119659e-16 -24.231906)
(150.22256 0 -24.803177)
(149.99282 0 -24.00574)
(149.56666 9.8075752e-17 -24.038824)
(149.24981 -7.4425305e-16 -23.541223)
(148.86947 7.4971334e-16 -23.333386)
(148.52357 0 -22.931104)
(148.16029 0 -22.612865)
(147.80926 6.0362219e-16 -22.221064)
(147.45695 -5.0124803e-16 -21.842617)
(147.11249 0 -21.430244)
(146.77352 5.1709088e-16 -21.009275)
(146.44358 -4.9096459e-16 -20.566746)
(146.12336 -5.8260744e-17 -20.109922)
(145.81495 5.5370512e-17 -19.635916)
(145.5198 5.263155e-17 -19.147242)
(145.23963 0 -18.643987)
(144.97595 0 -18.127689)
(144.73026 0 -17.599445)
(144.50391 0 -17.060807)
(144.29815 0 -16.513337)
(144.11402 7.0156663e-16 -15.958794)
(143.95242 -5.1907786e-16 -15.399017)
(143.81402 0 -14.835946)
(143.6993 6.042324e-16 -14.271572)
(143.6085 1.1590616e-19 -13.707918)
(143.54164 8.9722589e-20 -13.147009)
(143.49852 -9.2583205e-16 -12.590836)
(143.47874 4.4076829e-16 -12.041336)
(143.48168 5.2468618e-16 -11.500363)
(143.50656 -3.9955972e-16 -10.969656)
(143.55242 -3.8047414e-16 -10.45083)
(143.61818 -3.6230938e-16 -9.9453616)
(143.70262 -1.7235336e-16 -9.4545521)
(143.8045 6.5744562e-16 -8.9795677)
(143.92243 -1.5667609e-16 -8.5213514)
(144.05506 -4.4750064e-16 -8.0807003)
(144.20097 1.4212415e-16 -7.6582501)
(144.3588 6.7714207e-16 -7.25445)
(144.5272 -2.5819055e-16 -6.8696106)
(144.70487 2.4597541e-16 -6.5038784)
(144.89057 -2.3431132e-16 -6.1572703)
(145.08313 2.2326931e-16 -5.829671)
(145.28146 0 -5.5208521)
(145.48455 -1.512023e-19 -5.230481)
(145.69148 -1.9337683e-16 -4.9581341)
(145.9014 1.8434451e-16 -4.7033076)
(146.11355 -3.5168066e-16 -4.4654285)
(146.32722 0 -4.2438634)
(146.54181 -3.1961437e-16 -4.0379423)
(146.75679 3.0451213e-16 -3.8469381)
(146.97167 -1.1620282e-15 -3.6700862)
(147.18596 5.5419767e-16 -3.5065966)
(147.39917 5.2818447e-16 -3.3556515)
(147.61091 -2.5190378e-16 -3.2164174)
(147.82078 4.8024838e-16 -3.0880484)
(148.02841 -9.1601944e-16 -2.9696828)
(148.23342 -4.3664561e-16 -2.8604497)
(148.43536 8.3299063e-16 -2.7594656)
(148.63355 9.7266543e-20 -2.6658369)
(148.82695 3.787028e-16 -2.5786631)
(149.01409 3.6108324e-16 -2.4970398)
(149.19307 0 -2.4200903)
(149.362 9.8469564e-16 -2.3468418)
(149.51891 -1.8785851e-15 -2.2764756)
(149.66217 9.7697394e-20 -2.2080529)
(149.79003 8.5418472e-16 -2.1392718)
(149.90082 -1.3579223e-15 -2.0715322)
(149.97183 2.0960053e-19 -2.0067764)
(150.06785 2.4721077e-16 -1.8840165)
(149.90115 -4.7173773e-16 -2.0060447)
(150.20539 1.1253023e-15 -1.298662)
(149.34672 -2.0766111e-16 -2.7723944)
(145.1162 0 -32.210568)
(153.51248 -1.2952294e-15 -23.955924)
(149.20067 1.2406991e-15 -30.60536)
(151.30655 3.6457148e-17 -25.091582)
(149.4306 1.1401822e-15 -28.741356)
(149.98724 -3.186046e-17 -25.733676)
(149.05353 -9.8877062e-16 -27.337274)
(149.02399 8.781445e-16 -25.817235)
(148.44601 -8.8681841e-16 -26.302261)
(148.18868 -8.9357308e-16 -25.494376)
(147.74359 -4.1504697e-19 -25.451807)
(147.40329 7.5528291e-16 -24.92271)
(147.00576 1.3275473e-19 -24.64799)
(146.64177 -6.8004067e-16 -24.198414)
(146.26475 6.4480828e-16 -23.81629)
(145.90156 7.6652815e-17 -23.367168)
(145.54083 6.5409791e-16 -22.923989)
(145.19093 -5.5155939e-16 -22.448084)
(144.85041 -5.2411382e-16 -21.960158)
(144.52273 4.3514154e-16 -21.450284)
(144.20901 -4.7282306e-16 -20.924526)
(143.91147 4.4891758e-16 -20.381185)
(143.63174 -4.2678703e-16 -19.822726)
(143.37163 3.0380794e-16 -19.249885)
(143.13271 0 -18.66452)
(142.91646 7.3267597e-16 -18.068229)
(142.72415 -6.961786e-16 -17.462987)
(142.55685 -6.6212451e-16 -16.850803)
(142.41542 -2.0680186e-19 -16.233849)
(142.30046 5.9845893e-16 -15.614355)
(142.21229 5.6929287e-16 -14.994609)
(142.15102 -5.4135233e-16 -14.376907)
(142.11645 1.289172e-16 -13.763522)
(142.10814 -4.8995157e-16 -13.156675)
(142.12542 8.1585878e-16 -12.55849)
(142.1674 -4.4353775e-16 -11.97098)
(142.23297 -7.3876156e-16 -11.396013)
(142.32087 4.0172663e-16 -10.835287)
(142.42971 0 -10.290332)
(142.55796 -1.821525e-16 -9.7624777)
(142.70405 -6.9296393e-16 -9.2528335)
(142.86635 6.5990745e-16 -8.7623753)
(143.04318 7.851819e-16 -8.291826)
(143.23294 -7.4807197e-16 -7.841703)
(143.434 -2.8464448e-16 -7.4123957)
(143.64481 6.7869904e-16 -7.0040829)
(143.8639 2.5832109e-16 -6.6168109)
(144.08987 2.46324e-16 -6.2504682)
(144.32141 2.345678e-16 -5.9048214)
(144.55733 -1.5367099e-19 -5.5795202)
(144.79654 -6.387615e-16 -5.2741158)
(145.03804 6.0828072e-16 -4.9880725)
(145.28094 3.8625633e-16 -4.7207818)
(145.52447 -7.3657154e-16 -4.4715732)
(145.7679 3.5074157e-16 -4.2397256)
(146.01065 -6.6845782e-16 -4.0244745)
(146.25215 1.5925253e-15 -3.8250327)
(146.49197 -3.0369573e-16 -3.6405784)
(146.72974 -2.8928944e-16 -3.4702689)
(146.96503 -2.7557237e-16 -3.3132369)
(147.19747 0 -3.1686093)
(147.42675 -7.5086066e-16 -3.0355028)
(147.65256 -4.7675035e-16 -2.913033)
(147.87462 1.3635161e-15 -2.8003077)
(148.09263 4.3295916e-16 -2.6964312)
(148.30626 -4.125467e-16 -2.6005004)
(148.51496 -1.5722559e-15 -2.511604)
(148.71784 -3.7429973e-16 -2.4288213)
(148.91357 3.5693324e-16 -2.3512332)
(149.10035 0 -2.2779169)
(149.27629 9.7126396e-16 -2.2078881)
(149.43936 -6.1701665e-16 -2.1403354)
(149.58782 8.815565e-16 -2.0740351)
(149.72065 -8.3966707e-16 -2.006869)
(149.83213 1.7418043e-19 -1.9422095)
(149.91673 5.0821355e-16 -1.8681487)
(149.9937 2.4200672e-16 -1.7736863)
(149.87688 0 -1.8274531)
(150.12863 -2.1959877e-16 -1.2356531)
(149.30817 0 -2.5463584)
(143.4034 -1.4543849e-15 -34.184947)
(151.77274 -4.1127101e-17 -25.651881)
(147.31653 -3.9441323e-17 -32.411202)
(149.46031 -3.6970248e-17 -26.803501)
(147.52171 -3.5032605e-17 -30.406537)
(148.0586 -1.0616294e-15 -27.398914)
(147.09582 1.0670683e-15 -28.8986)
(147.03294 5.9364042e-17 -27.388798)
(146.4337 9.5736651e-16 -27.771466)
(146.14528 -7.4630066e-16 -26.949565)
(145.6806 -1.0108457e-16 -26.820315)
(145.31565 8.1475633e-16 -26.251607)
(144.90102 -7.717478e-16 -25.900502)
(144.5196 0 -25.393874)
(144.13047 0 -24.93835)
(143.75765 -6.9774186e-16 -24.421788)
(143.39202 4.4107239e-16 -23.90419)
(143.04125 0 -23.35484)
(142.70476 -5.96582e-16 -22.790486)
(142.386 1.0060859e-15 -22.203982)
(142.08647 2.9390644e-19 -21.600564)
(141.80847 -7.9360319e-16 -20.979692)
(141.55378 4.3066017e-16 -20.343999)
(141.32419 -7.1636335e-16 -19.694923)
(141.12123 8.7444007e-16 -19.034781)
(140.94623 -9.2462381e-17 -18.365742)
(140.80023 0 -17.690273)
(140.684 0 -17.01088)
(140.59802 4.7497718e-16 -16.330166)
(140.54243 1.1585884e-19 -15.650754)
(140.51709 1.4337825e-16 -14.975251)
(140.52153 -1.0882235e-15 -14.306212)
(140.55499 5.1764859e-16 -13.646091)
(140.61647 -4.9190873e-16 -12.997216)
(140.7047 5.8491251e-16 -12.36175)
(140.81821 -4.449065e-16 -11.741668)
(140.95537 6.3465122e-16 -11.138736)
(141.11439 0 -10.554497)
(141.29342 0 -9.9902712)
(141.49051 3.6450383e-16 -9.4471319)
(141.70372 -1.7357819e-16 -8.9259259)
(141.93107 -8.2534045e-16 -8.4273085)
(142.1707 -1.5700899e-16 -7.951676)
(142.42075 1.0470842e-15 -7.4992316)
(142.67945 2.8481755e-16 -7.0700434)
(142.94515 -1.0844766e-15 -6.6639768)
(143.2163 0 -6.2807707)
(143.49147 -7.3709121e-16 -5.9200283)
(143.76936 4.6815638e-16 -5.581246)
(144.04881 2.2294736e-16 -5.2638264)
(144.32877 4.2421374e-16 -4.967095)
(144.60832 -8.0845436e-16 -4.6903135)
(144.88667 7.6973574e-16 -4.4326929)
(145.16311 -1.1001209e-15 -4.1934043)
(145.43705 3.4924211e-16 -3.9715888)
(145.70799 3.3259223e-16 -3.766364)
(145.97549 0 -3.5768388)
(146.23922 0 -3.4021111)
(146.49891 5.7447015e-16 -3.2412717)
(146.75426 5.470238e-16 -3.0933944)
(147.005 -5.2132285e-16 -2.9575635)
(147.25091 4.9595587e-16 -2.8328611)
(147.49179 -4.7249205e-16 -2.7183786)
(147.72744 4.4974102e-16 -2.6132064)
(147.95765 -1.2853527e-15 -2.5164383)
(148.18219 -8.1564958e-16 -2.4271641)
(148.40064 1.1650711e-15 -2.3444665)
(148.61228 3.6963671e-16 -2.2674191)
(148.81591 0 -2.1950947)
(149.00986 6.6976956e-16 -2.126541)
(149.19223 -6.3767855e-16 -2.0607914)
(149.3609 0 -1.9970062)
(149.51429 -5.7757469e-16 -1.9336716)
(149.65089 -5.4965771e-16 -1.8695873)
(149.76434 0 -1.8070552)
(149.85825 0 -1.7291873)
(149.92158 0 -1.6558974)
(149.84908 -4.5105918e-16 -1.6537202)
(150.05467 0 -1.1700823)
(149.27221 -7.7493174e-16 -2.3228225)
(141.46122 -4.6205026e-17 -36.187787)
(149.79906 0 -27.367929)
(145.1983 -1.2413213e-15 -34.213957)
(147.36835 1.2415204e-15 -28.530157)
(145.37104 0 -32.052789)
(145.87705 -1.07866e-15 -29.059769)
(144.8871 9.5586936e-16 -30.42968)
(144.78415 0 -28.93241)
(144.16345 8.571538e-16 -29.196218)
(143.84092 -9.1912077e-16 -28.353441)
(143.35628 5.1146018e-17 -28.125546)
(142.96634 7.2853634e-16 -27.506291)
(142.5356 -9.1591829e-17 -27.067725)
(142.13876 -6.0995724e-16 -26.491952)
(141.74064 5.7876582e-16 -25.951703)
(141.36261 7.9025913e-17 -25.355639)
(140.99772 -5.2025487e-16 -24.752266)
(140.65303 0 -24.118041)
(140.3288 6.6761864e-17 -23.466535)
(140.02847 1.9050299e-16 -22.793153)
(139.7538 -1.2065638e-16 -22.102697)
(139.50713 -2.2856167e-16 -21.395798)
(139.29022 0 -20.675474)
(139.10474 1.031361e-16 -19.943947)
(138.95198 -9.7555934e-17 -19.204105)
(138.83293 9.2625037e-17 -18.458752)
(138.74823 0 -17.710895)
(138.69811 -1.6760641e-16 -16.963537)
(138.68248 -4.7703572e-16 -16.2197)
(138.70084 4.5260854e-16 -15.482337)
(138.75236 -1.4321372e-16 -14.754306)
(138.83587 0 -14.038308)
(138.94993 3.8861673e-16 -13.336862)
(139.09281 -6.155475e-16 -12.652265)
(139.26259 1.1740013e-16 -11.986571)
(139.45718 -2.226783e-16 -11.341569)
(139.67438 4.2291153e-16 -10.718777)