/*--------------------------------*- C++ -*----------------------------------*\
| =========                 |                                                 |
| \\      /  F ield         | OpenFOAM: The Open Source CFD Toolbox           |
|  \\    /   O peration     | Version:  2106                                  |
|   \\  /    A nd           | Website:  www.openfoam.com                      |
|    \\/     M anipulation  |                                                 |
\*---------------------------------------------------------------------------*/
FoamFile
{
    version     2.0;
    format      ascii;
    arch        "LSB;label=32;scalar=64";
    class       volVectorField;
    location    "0.0495";
    object      U;
}
// * * * * * * * * * * * * * * * * * * * * * * * * * * * * * * * * * * * * * //

dimensions      [0 1 -1 0 0 0 0];

internalField   nonuniform List<vector> 
300
(
(4.3835 0.378155 0)
(4.06274 0.502681 0)
(3.43886 0.404068 0)
(2.8417 0.284523 0)
(2.42657 0.181669 0)
(2.15114 0.105712 0)
(1.96522 0.0579704 0)
(1.84029 0.0317224 0)
(1.75265 0.0201409 0)
(1.71186 0.0205945 0)
(5.0141 0.533588 0)
(5.2523 0.825852 0)
(5.3052 0.787526 0)
(5.19416 0.66333 0)
(5.02154 0.517887 0)
(4.84161 0.380571 0)
(4.67192 0.269633 0)
(4.52527 0.189249 0)
(4.39393 0.137977 0)
(4.30391 0.103474 0)
(5.026 0.236377 0)
(5.27394 0.510286 0)
(5.53193 0.593543 0)
(5.7163 0.578421 0)
(5.82482 0.517253 0)
(5.87942 0.437733 0)
(5.89376 0.357531 0)
(5.88851 0.288646 0)
(5.85981 0.232111 0)
(5.84876 0.197252 0)
(5.01198 0.107764 0)
(5.17486 0.266731 0)
(5.41968 0.342093 0)
(5.67323 0.359246 0)
(5.896 0.343411 0)
(6.0806 0.31036 0)
(6.22503 0.269647 0)
(6.34156 0.231458 0)
(6.42419 0.1948 0)
(6.50432 0.172905 0)
(5.0079 0.0314577 0)
(5.12676 0.0826877 0)
(5.33508 0.110453 0)
(5.58354 0.119511 0)
(5.82933 0.117272 0)
(6.05475 0.108805 0)
(6.25078 0.0969131 0)
(6.4221 0.0853188 0)
(6.56328 0.0733101 0)
(6.6909 0.0659838 0)
(5.0079 -0.0314577 0)
(5.12676 -0.0826877 0)
(5.33508 -0.110453 0)
(5.58354 -0.119511 0)
(5.82933 -0.117272 0)
(6.05475 -0.108805 0)
(6.25078 -0.0969131 0)
(6.4221 -0.0853189 0)
(6.56328 -0.0733102 0)
(6.6909 -0.0659839 0)
(5.01198 -0.107764 0)
(5.17486 -0.266731 0)
(5.41968 -0.342093 0)
(5.67323 -0.359246 0)
(5.896 -0.343411 0)
(6.0806 -0.31036 0)
(6.22503 -0.269647 0)
(6.34156 -0.231458 0)
(6.42419 -0.1948 0)
(6.50432 -0.172905 0)
(5.026 -0.236377 0)
(5.27394 -0.510286 0)
(5.53193 -0.593543 0)
(5.7163 -0.578421 0)
(5.82482 -0.517253 0)
(5.87942 -0.437733 0)
(5.89376 -0.357531 0)
(5.88851 -0.288646 0)
(5.85981 -0.232111 0)
(5.84876 -0.197252 0)
(5.0141 -0.533588 0)
(5.2523 -0.825852 0)
(5.3052 -0.787526 0)
(5.19416 -0.66333 0)
(5.02154 -0.517887 0)
(4.84161 -0.380571 0)
(4.67192 -0.269633 0)
(4.52527 -0.18925 0)
(4.39393 -0.137977 0)
(4.30391 -0.103474 0)
(4.3835 -0.378155 0)
(4.06274 -0.502681 0)
(3.43886 -0.404068 0)
(2.8417 -0.284523 0)
(2.42657 -0.181669 0)
(2.15114 -0.105712 0)
(1.96522 -0.0579704 0)
(1.84029 -0.0317224 0)
(1.75265 -0.0201409 0)
(1.71186 -0.0205945 0)
(0.931709 0.151996 0)
(0.883108 0.0418896 0)
(0.830413 0.00691783 0)
(0.811093 0.00182249 0)
(0.801642 0.00118065 0)
(0.794051 0.00102062 0)
(0.787484 0.000918451 0)
(0.781687 0.000827837 0)
(0.77698 0.000758645 0)
(0.770419 0.00116225 0)
(2.29495 0.0984124 0)
(2.31719 0.0370222 0)
(2.28814 0.0172693 0)
(2.25691 0.0109561 0)
(2.23143 0.00834506 0)
(2.21063 0.00690731 0)
(2.1933 0.00594245 0)
(2.17835 0.00513671 0)
(2.16674 0.00460138 0)
(2.15178 0.0049379 0)
(3.76102 0.086898 0)
(3.66814 0.0610456 0)
(3.58099 0.0426065 0)
(3.51927 0.0309386 0)
(3.47915 0.0237699 0)
(3.44909 0.0191273 0)
(3.42475 0.0160734 0)
(3.40399 0.0135726 0)
(3.38842 0.0121065 0)
(3.36851 0.0109364 0)
(4.62861 0.1625 0)
(4.64146 0.115331 0)
(4.61 0.0758908 0)
(4.56827 0.0550106 0)
(4.53118 0.0425364 0)
(4.50059 0.0340623 0)
(4.47516 0.0284266 0)
(4.45336 0.0236762 0)
(4.43732 0.0211189 0)
(4.41663 0.0177009 0)
(5.56918 0.144135 0)
(5.49915 0.117276 0)
(5.45222 0.0930408 0)
(5.41456 0.073405 0)
(5.38484 0.0587319 0)
(5.36087 0.0475662 0)
(5.34064 0.0398366 0)
(5.32338 0.0329458 0)
(5.31058 0.0294659 0)
(5.29421 0.0238002 0)
(6.02072 0.1788 0)
(6.05579 0.140009 0)
(6.05983 0.1076 0)
(6.05207 0.0850357 0)
(6.04174 0.0687871 0)
(6.03238 0.0561235 0)
(6.02331 0.0472621 0)
(6.01599 0.0389555 0)
(6.00975 0.0349855 0)
(6.00281 0.0277301 0)
(6.45735 0.148987 0)
(6.47469 0.125722 0)
(6.49458 0.102776 0)
(6.50942 0.0837571 0)
(6.51982 0.0689873 0)
(6.52846 0.0568555 0)
(6.53385 0.0482388 0)
(6.54001 0.0397368 0)
(6.54233 0.0358589 0)
(6.54852 0.0281582 0)
(6.63509 0.134078 0)
(6.71365 0.107256 0)
(6.76916 0.0867941 0)
(6.81064 0.0710263 0)
(6.84251 0.058955 0)
(6.86955 0.0488861 0)
(6.88973 0.0417301 0)
(6.91013 0.034387 0)
(6.92122 0.0311659 0)
(6.94158 0.0243682 0)
(6.77235 0.0739015 0)
(6.85791 0.066662 0)
(6.93037 0.0564908 0)
(6.9898 0.0471291 0)
(7.03786 0.0395297 0)
(7.07945 0.032972 0)
(7.11151 0.0282872 0)
(7.14367 0.0233285 0)
(7.16188 0.0212131 0)
(7.19417 0.0165578 0)
(6.81329 0.0366354 0)
(6.91691 0.0259604 0)
(7.00187 0.0204351 0)
(7.07177 0.0167087 0)
(7.12884 0.0139601 0)
(7.17852 0.011647 0)
(7.21717 0.0100101 0)
(7.25597 0.00825758 0)
(7.27813 0.00752141 0)
(7.31724 0.00586741 0)
(6.81329 -0.0366355 0)
(6.91691 -0.0259606 0)
(7.00187 -0.0204353 0)
(7.07177 -0.0167089 0)
(7.12884 -0.0139605 0)
(7.17852 -0.0116474 0)
(7.21717 -0.0100105 0)
(7.25597 -0.00825808 0)
(7.27813 -0.00752192 0)
(7.31724 -0.00586816 0)
(6.77235 -0.0739016 0)
(6.85791 -0.0666622 0)
(6.93037 -0.056491 0)
(6.9898 -0.0471293 0)
(7.03786 -0.03953 0)
(7.07945 -0.0329723 0)
(7.11151 -0.0282876 0)
(7.14367 -0.0233289 0)
(7.16188 -0.0212136 0)
(7.19417 -0.0165586 0)
(6.63509 -0.134078 0)
(6.71365 -0.107256 0)
(6.76916 -0.0867943 0)
(6.81064 -0.0710265 0)
(6.84251 -0.0589553 0)
(6.86955 -0.0488864 0)
(6.88973 -0.0417305 0)
(6.91013 -0.0343875 0)
(6.92122 -0.0311664 0)
(6.94158 -0.0243689 0)
(6.45735 -0.148987 0)
(6.47469 -0.125722 0)
(6.49458 -0.102776 0)
(6.50941 -0.0837573 0)
(6.51982 -0.0689876 0)
(6.52846 -0.0568558 0)
(6.53385 -0.0482391 0)
(6.54001 -0.0397372 0)
(6.54233 -0.0358593 0)
(6.54852 -0.0281588 0)
(6.02072 -0.178801 0)
(6.05579 -0.140009 0)
(6.05983 -0.1076 0)
(6.05207 -0.0850359 0)
(6.04174 -0.0687873 0)
(6.03238 -0.0561237 0)
(6.02331 -0.0472624 0)
(6.01599 -0.0389558 0)
(6.00975 -0.0349859 0)
(6.0028 -0.0277306 0)
(5.56918 -0.144135 0)
(5.49915 -0.117276 0)
(5.45222 -0.0930409 0)
(5.41456 -0.0734051 0)
(5.38484 -0.058732 0)
(5.36087 -0.0475664 0)
(5.34064 -0.0398368 0)
(5.32338 -0.0329461 0)
(5.31058 -0.0294662 0)
(5.29421 -0.0238007 0)
(4.62861 -0.1625 0)
(4.64146 -0.115331 0)
(4.61 -0.0758909 0)
(4.56827 -0.0550107 0)
(4.53118 -0.0425365 0)
(4.50058 -0.0340624 0)
(4.47516 -0.0284268 0)
(4.45336 -0.0236763 0)
(4.43732 -0.0211191 0)
(4.41663 -0.0177013 0)
(3.76102 -0.086898 0)
(3.66813 -0.0610456 0)
(3.58099 -0.0426066 0)
(3.51927 -0.0309386 0)
(3.47915 -0.02377 0)
(3.44909 -0.0191273 0)
(3.42475 -0.0160735 0)
(3.40399 -0.0135727 0)
(3.38842 -0.0121066 0)
(3.36851 -0.0109366 0)
(2.29495 -0.0984124 0)
(2.31719 -0.0370222 0)
(2.28814 -0.0172693 0)
(2.25691 -0.0109561 0)
(2.23143 -0.00834508 0)
(2.21063 -0.00690734 0)
(2.1933 -0.00594248 0)
(2.17835 -0.00513674 0)
(2.16674 -0.00460143 0)
(2.15178 -0.004938 0)
(0.931709 -0.151996 0)
(0.883108 -0.0418896 0)
(0.830413 -0.00691783 0)
(0.811093 -0.00182249 0)
(0.801642 -0.00118065 0)
(0.79405 -0.00102062 0)
(0.787484 -0.000918454 0)
(0.781687 -0.000827841 0)
(0.77698 -0.000758656 0)
(0.770419 -0.00116227 0)
)
;

boundaryField
{
    inlet
    {
        type            fixedValue;
        value           uniform (5 0 0);
    }
    outlet
    {
        type            zeroGradient;
    }
    fixedWallsLeft
    {
        type            noSlip;
    }
    fixedWallsRight
    {
        type            noSlip;
    }
    frontAndBackLeft
    {
        type            empty;
    }
    frontAndBackRight
    {
        type            empty;
    }
    left
    {
        type            cyclicAMI;
        value           nonuniform List<vector> 10((1.66259 0.0728993 0) (4.24936 0.114087 0) (5.82185 0.17936 0) (6.52527 0.157219 0) (6.74186 0.0606261 0) (6.74186 -0.0606262 0) (6.52527 -0.157219 0) (5.82185 -0.17936 0) (4.24936 -0.114087 0) (1.66259 -0.0728993 0));
    }
    right
    {
        type            cyclicAMI;
        value           nonuniform List<vector> 
20
(
(1.32178 0.0862951 0)
(2.0034 0.0595035 0)
(4.03247 0.095186 0)
(4.46626 0.132987 0)
(5.70897 0.170694 0)
(5.93474 0.188026 0)
(6.48083 0.160946 0)
(6.56971 0.153491 0)
(6.73162 0.0699427 0)
(6.7521 0.0513096 0)
(6.7521 -0.0513097 0)
(6.73162 -0.0699428 0)
(6.56971 -0.153492 0)
(6.48083 -0.160946 0)
(5.93474 -0.188026 0)
(5.70897 -0.170694 0)
(4.46626 -0.132987 0)
(4.03247 -0.095186 0)
(2.0034 -0.0595035 0)
(1.32178 -0.0862951 0)
)
;
    }
}


// ************************************************************************* //
