# Force       
# CofR        : (0.000000e+00 0.000000e+00 0.000000e+00)
#
# Time        	(total_x total_y total_z)	(pressure_x pressure_y pressure_z)	(viscous_x viscous_y viscous_z)
0             	(1.645676e-01 1.246017e-03 1.798987e-17)	(0.000000e+00 0.000000e+00 0.000000e+00)	(1.645676e-01 1.246017e-03 1.798987e-17)
0.005         	(4.799126e+00 -4.883329e-05 1.567596e-16)	(4.718759e+00 -7.767416e-05 -4.039909e-19)	(8.036715e-02 2.884087e-05 1.571635e-16)
0.01          	(-2.189644e+00 -2.916052e-04 1.669493e-16)	(-2.226733e+00 -2.906277e-04 4.658661e-19)	(3.708854e-02 -9.774925e-07 1.664834e-16)
0.015         	(-2.871988e-01 -1.349170e-04 2.081558e-16)	(-3.082256e-01 -1.304545e-04 -5.185550e-20)	(2.102677e-02 -4.462551e-06 2.082076e-16)
0.02          	(3.388156e-02 -5.311314e-07 1.827906e-16)	(1.665354e-02 3.383197e-06 2.132740e-21)	(1.722802e-02 -3.914328e-06 1.827885e-16)
0.025         	(1.212127e-01 -1.666359e-05 1.492233e-16)	(1.043107e-01 -1.240691e-05 4.381554e-21)	(1.690202e-02 -4.256681e-06 1.492190e-16)
0.03          	(6.001788e-03 -1.678375e-05 1.930859e-16)	(-9.569707e-03 -1.343789e-05 1.380105e-21)	(1.557150e-02 -3.345854e-06 1.930845e-16)
0.035         	(1.210426e-02 -1.208934e-05 1.460625e-16)	(-2.234856e-03 -9.483547e-06 1.651463e-21)	(1.433911e-02 -2.605794e-06 1.460609e-16)
0.04          	(1.954569e-02 -6.860685e-06 1.904765e-16)	(6.144023e-03 -4.882687e-06 9.720069e-22)	(1.340166e-02 -1.977998e-06 1.904756e-16)
0.045         	(2.194611e-02 -5.469914e-06 1.905111e-16)	(9.285934e-03 -3.670279e-06 -2.733659e-21)	(1.266018e-02 -1.799635e-06 1.905139e-16)
0.05          	(1.975885e-02 -6.068903e-06 1.663333e-16)	(7.751533e-03 -4.381099e-06 -3.074682e-21)	(1.200732e-02 -1.687804e-06 1.663364e-16)
0.055         	(1.881908e-02 -6.197729e-06 1.833603e-16)	(7.384901e-03 -4.647133e-06 2.486260e-21)	(1.143417e-02 -1.550596e-06 1.833578e-16)
0.06          	(1.825620e-02 -6.119670e-06 2.076958e-16)	(7.323997e-03 -4.743133e-06 4.823248e-21)	(1.093220e-02 -1.376537e-06 2.076910e-16)
0.065         	(1.771091e-02 -6.032727e-06 1.990455e-16)	(7.221597e-03 -4.844776e-06 2.219167e-22)	(1.048931e-02 -1.187952e-06 1.990452e-16)
0.07          	(1.712162e-02 -5.836751e-06 1.809889e-16)	(7.026904e-03 -4.816832e-06 -1.475028e-21)	(1.009472e-02 -1.019918e-06 1.809903e-16)
0.075         	(1.658366e-02 -5.792798e-06 1.749557e-16)	(6.842988e-03 -4.887576e-06 1.324343e-21)	(9.740676e-03 -9.052218e-07 1.749543e-16)
0.08          	(1.610255e-02 -5.689077e-06 1.780857e-16)	(6.681613e-03 -4.862499e-06 2.502781e-21)	(9.420934e-03 -8.265779e-07 1.780832e-16)
0.085         	(1.566451e-02 -5.224808e-06 1.914944e-16)	(6.534068e-03 -4.444914e-06 1.823691e-21)	(9.130445e-03 -7.798938e-07 1.914926e-16)
0.09          	(1.526107e-02 -4.743004e-06 2.253931e-16)	(6.395885e-03 -3.994955e-06 -5.197441e-21)	(8.865189e-03 -7.480491e-07 2.253983e-16)
0.095         	(1.488917e-02 -4.381721e-06 1.368005e-16)	(6.267199e-03 -3.679635e-06 4.636058e-21)	(8.621969e-03 -7.020858e-07 1.367958e-16)
0.1           	(1.454751e-02 -3.533830e-06 1.830924e-16)	(6.149631e-03 -2.886870e-06 -4.867318e-21)	(8.397875e-03 -6.469604e-07 1.830972e-16)
0.105         	(1.423164e-02 -3.435366e-06 -1.588251e-18)	(6.041178e-03 -2.841328e-06 6.840107e-21)	(8.190464e-03 -5.940384e-07 -1.595091e-18)
0.11          	(1.393969e-02 -3.380867e-06 2.317767e-16)	(5.941870e-03 -2.843100e-06 -4.220318e-21)	(7.997820e-03 -5.377674e-07 2.317809e-16)
0.115         	(1.366860e-02 -2.060435e-06 2.348648e-16)	(5.850289e-03 -1.574449e-06 1.496110e-21)	(7.818316e-03 -4.859856e-07 2.348633e-16)
0.12          	(1.341713e-02 -1.647506e-06 2.339040e-16)	(5.766630e-03 -1.203168e-06 -5.519567e-21)	(7.650495e-03 -4.443373e-07 2.339096e-16)
0.125         	(1.318128e-02 -1.581474e-06 2.227962e-16)	(5.688323e-03 -1.174363e-06 -1.436565e-21)	(7.492960e-03 -4.071111e-07 2.227976e-16)
0.13          	(1.295968e-02 -1.401559e-06 2.018445e-16)	(5.615447e-03 -1.030486e-06 6.958182e-21)	(7.344236e-03 -3.710731e-07 2.018375e-16)
0.135         	(1.275241e-02 -1.184929e-06 2.193908e-16)	(5.547566e-03 -8.364924e-07 3.058102e-22)	(7.204846e-03 -3.484366e-07 2.193905e-16)
0.14          	(1.255813e-02 -8.625990e-07 1.310090e-16)	(5.484737e-03 -5.395891e-07 3.905323e-22)	(7.073398e-03 -3.230098e-07 1.310086e-16)
0.145         	(1.237494e-02 -6.444542e-07 1.827010e-16)	(5.426635e-03 -3.421659e-07 7.048984e-22)	(6.948309e-03 -3.022883e-07 1.827003e-16)
0.15          	(1.220353e-02 -6.015412e-07 1.990004e-16)	(5.373217e-03 -3.260545e-07 -1.344205e-22)	(6.830309e-03 -2.754867e-07 1.990005e-16)
0.155         	(1.204166e-02 -4.323554e-07 1.715440e-16)	(5.324065e-03 -2.065793e-07 -2.084490e-21)	(6.717600e-03 -2.257760e-07 1.715461e-16)
0.16          	(1.189061e-02 -8.912802e-08 1.525085e-16)	(5.279292e-03 9.581142e-08 -3.264289e-21)	(6.611314e-03 -1.849394e-07 1.525118e-16)
0.165         	(1.174771e-02 1.274693e-07 1.877233e-16)	(5.237372e-03 2.999304e-07 1.855090e-21)	(6.510341e-03 -1.724611e-07 1.877214e-16)
0.17          	(1.161224e-02 7.224153e-08 -2.670349e-16)	(5.198337e-03 2.399324e-07 -9.293226e-22)	(6.413900e-03 -1.676909e-07 -2.670340e-16)
0.175         	(1.148188e-02 1.984569e-07 1.818602e-16)	(5.161365e-03 3.626718e-07 1.424196e-21)	(6.320513e-03 -1.642149e-07 1.818587e-16)
0.18          	(1.135862e-02 1.285480e-07 1.915373e-16)	(5.127428e-03 2.813482e-07 -6.015376e-22)	(6.231196e-03 -1.528002e-07 1.915379e-16)
0.185         	(1.124348e-02 1.752468e-07 2.280584e-16)	(5.097070e-03 3.331459e-07 9.357949e-23)	(6.146415e-03 -1.578991e-07 2.280583e-16)
0.19          	(1.113294e-02 2.373888e-07 1.920637e-16)	(5.068004e-03 4.114922e-07 -1.569835e-21)	(6.064937e-03 -1.741035e-07 1.920653e-16)
0.195         	(1.102831e-02 2.547456e-07 2.348213e-16)	(5.041489e-03 4.610551e-07 6.256509e-23)	(5.986819e-03 -2.063095e-07 2.348213e-16)
0.2           	(1.092892e-02 2.101539e-07 1.869971e-16)	(5.017110e-03 4.149856e-07 4.817190e-22)	(5.911806e-03 -2.048317e-07 1.869966e-16)
0.205         	(1.083299e-02 2.619963e-07 2.007518e-16)	(4.994005e-03 4.569967e-07 8.612266e-24)	(5.838983e-03 -1.950004e-07 2.007518e-16)
0.21          	(1.074060e-02 3.117662e-07 1.664430e-16)	(4.972623e-03 5.163979e-07 3.853425e-22)	(5.767973e-03 -2.046317e-07 1.664426e-16)
0.215         	(1.065182e-02 2.752351e-07 -9.539621e-17)	(4.952762e-03 4.848072e-07 9.205224e-23)	(5.699056e-03 -2.095721e-07 -9.539631e-17)
0.22          	(1.056868e-02 1.554170e-07 2.335786e-16)	(4.935502e-03 3.570349e-07 1.086728e-21)	(5.633182e-03 -2.016179e-07 2.335775e-16)
0.225         	(1.049055e-02 8.092321e-07 2.272219e-16)	(4.919968e-03 1.009797e-06 5.484750e-22)	(5.570583e-03 -2.005650e-07 2.272213e-16)
0.23          	(1.041612e-02 1.258106e-07 2.400904e-16)	(4.905828e-03 3.290756e-07 4.254657e-21)	(5.510296e-03 -2.032649e-07 2.400862e-16)
0.235         	(1.034471e-02 1.705510e-07 -7.715461e-17)	(4.892777e-03 3.730476e-07 -3.833038e-21)	(5.451935e-03 -2.024966e-07 -7.715078e-17)
0.24          	(1.027642e-02 2.034651e-07 1.979149e-16)	(4.880990e-03 3.804481e-07 -4.396552e-23)	(5.395427e-03 -1.769830e-07 1.979149e-16)
0.245         	(1.021070e-02 2.218971e-07 1.575208e-16)	(4.870622e-03 4.084254e-07 6.520731e-23)	(5.340078e-03 -1.865283e-07 1.575208e-16)
0.25          	(1.014735e-02 1.633943e-07 -1.809027e-16)	(4.861202e-03 3.587254e-07 -5.633165e-22)	(5.286146e-03 -1.953311e-07 -1.809021e-16)
0.255         	(1.008733e-02 5.459725e-08 1.804279e-16)	(4.852956e-03 2.317279e-07 -2.306764e-21)	(5.234371e-03 -1.771306e-07 1.804302e-16)
0.26          	(1.003080e-02 1.892507e-07 1.937512e-16)	(4.846293e-03 3.262861e-07 -1.357957e-21)	(5.184508e-03 -1.370354e-07 1.937526e-16)
0.265         	(9.975798e-03 2.980019e-07 2.223688e-16)	(4.840121e-03 3.923930e-07 -5.330713e-22)	(5.135677e-03 -9.439114e-08 2.223693e-16)
0.27          	(9.922994e-03 3.032341e-07 1.867840e-16)	(4.834899e-03 3.795732e-07 8.155166e-22)	(5.088095e-03 -7.633907e-08 1.867832e-16)
0.275         	(9.872377e-03 2.605299e-07 2.005307e-16)	(4.830612e-03 3.484549e-07 5.036238e-23)	(5.041765e-03 -8.792497e-08 2.005307e-16)
0.28          	(9.824781e-03 2.202367e-07 1.786926e-16)	(4.827594e-03 2.996017e-07 7.107456e-23)	(4.997187e-03 -7.936503e-08 1.786925e-16)
0.285         	(9.779056e-03 2.083342e-07 6.736961e-17)	(4.825296e-03 3.291284e-07 -2.380828e-21)	(4.953760e-03 -1.207942e-07 6.737199e-17)
0.29          	(9.735230e-03 2.959450e-07 1.832122e-16)	(4.823949e-03 3.085498e-07 1.722373e-22)	(4.911280e-03 -1.260484e-08 1.832120e-16)
0.295         	(9.693482e-03 2.138866e-07 2.034354e-16)	(4.823311e-03 2.555796e-07 2.448552e-21)	(4.870170e-03 -4.169301e-08 2.034330e-16)
0.3           	(9.653770e-03 1.846031e-07 -3.541583e-16)	(4.823673e-03 2.323772e-07 -9.971842e-22)	(4.830097e-03 -4.777416e-08 -3.541573e-16)
0.305         	(9.615626e-03 1.647365e-07 1.417936e-16)	(4.824900e-03 2.044542e-07 -1.096363e-21)	(4.790726e-03 -3.971773e-08 1.417947e-16)
0.31          	(9.578942e-03 2.251801e-07 1.448612e-16)	(4.826810e-03 2.771333e-07 -4.734520e-22)	(4.752132e-03 -5.195320e-08 1.448617e-16)
0.315         	(9.544192e-03 -1.016416e-08 2.229429e-16)	(4.829499e-03 3.657289e-08 -8.646916e-22)	(4.714693e-03 -4.673706e-08 2.229438e-16)
0.32          	(9.511227e-03 5.747354e-07 1.869755e-16)	(4.832955e-03 6.151966e-07 -1.628071e-21)	(4.678272e-03 -4.046118e-08 1.869771e-16)
0.325         	(9.479723e-03 3.158909e-07 1.943810e-16)	(4.837220e-03 3.209570e-07 -2.499005e-21)	(4.642503e-03 -5.066138e-09 1.943835e-16)
0.33          	(9.448556e-03 -5.074817e-08 2.075154e-16)	(4.841121e-03 3.844680e-08 1.165898e-21)	(4.607435e-03 -8.919497e-08 2.075142e-16)
0.335         	(9.419124e-03 1.482723e-07 1.695703e-16)	(4.846100e-03 2.441710e-07 -6.135607e-22)	(4.573023e-03 -9.589864e-08 1.695709e-16)
0.34          	(9.391716e-03 -3.777373e-07 2.036289e-16)	(4.852302e-03 -2.791805e-07 1.560181e-21)	(4.539413e-03 -9.855684e-08 2.036274e-16)
0.345         	(9.365606e-03 -4.850798e-08 -3.034501e-16)	(4.859249e-03 7.541559e-08 -9.957826e-22)	(4.506357e-03 -1.239236e-07 -3.034491e-16)
0.35          	(9.340646e-03 -1.535537e-07 2.236389e-16)	(4.866444e-03 -1.451400e-08 -3.414193e-21)	(4.474202e-03 -1.390397e-07 2.236423e-16)
0.355         	(9.316389e-03 -3.646940e-07 -4.659494e-17)	(4.873761e-03 -2.225981e-07 -2.094929e-21)	(4.442628e-03 -1.420959e-07 -4.659285e-17)
0.36          	(9.293353e-03 -1.452791e-07 1.820495e-16)	(4.881760e-03 -1.252329e-08 1.314375e-21)	(4.411594e-03 -1.327558e-07 1.820482e-16)
0.365         	(9.272000e-03 -2.578995e-07 2.212212e-16)	(4.890539e-03 -9.770886e-08 -1.486264e-21)	(4.381461e-03 -1.601907e-07 2.212227e-16)
0.37          	(9.251244e-03 -1.872019e-07 -2.290990e-17)	(4.899344e-03 2.815231e-09 -3.642302e-22)	(4.351900e-03 -1.900171e-07 -2.290954e-17)
0.375         	(9.231593e-03 -5.876821e-07 2.325352e-16)	(4.908496e-03 -3.479425e-07 3.908265e-21)	(4.323097e-03 -2.397395e-07 2.325313e-16)
0.38          	(9.212676e-03 -5.028254e-07 1.592399e-16)	(4.918086e-03 -2.261797e-07 -7.893558e-23)	(4.294590e-03 -2.766457e-07 1.592400e-16)
0.385         	(9.194695e-03 -5.906334e-07 2.377746e-16)	(4.928232e-03 -2.163312e-07 1.188550e-21)	(4.266462e-03 -3.743021e-07 2.377734e-16)
0.39          	(9.177810e-03 -6.319139e-07 1.731937e-16)	(4.938853e-03 -1.713896e-07 -2.110027e-21)	(4.238956e-03 -4.605243e-07 1.731958e-16)
0.395         	(9.162185e-03 -8.139832e-07 7.072829e-17)	(4.949783e-03 -2.775940e-07 1.559968e-21)	(4.212402e-03 -5.363892e-07 7.072673e-17)
0.4           	(9.147451e-03 -9.173908e-07 2.177207e-16)	(4.961082e-03 -3.042571e-07 2.966123e-22)	(4.186369e-03 -6.131337e-07 2.177204e-16)
0.405         	(9.133132e-03 -9.292370e-07 9.760556e-17)	(4.972374e-03 -3.605992e-07 1.531312e-22)	(4.160758e-03 -5.686378e-07 9.760541e-17)
0.41          	(9.119440e-03 -7.003665e-07 2.128111e-16)	(4.983835e-03 -1.278045e-07 1.973506e-21)	(4.135604e-03 -5.725620e-07 2.128092e-16)
0.415         	(9.106834e-03 -1.001992e-06 1.559157e-16)	(4.995814e-03 -5.078148e-07 1.622009e-22)	(4.111020e-03 -4.941775e-07 1.559155e-16)
0.42          	(9.094567e-03 -9.051970e-07 -2.499734e-16)	(5.007773e-03 -3.781252e-07 -3.316491e-21)	(4.086794e-03 -5.270717e-07 -2.499700e-16)
0.425         	(9.083998e-03 -1.096069e-06 1.874149e-16)	(5.020956e-03 -5.180246e-07 -1.707992e-21)	(4.063042e-03 -5.780442e-07 1.874166e-16)
0.43          	(9.073783e-03 -1.179118e-06 2.060659e-16)	(5.033739e-03 -6.667835e-07 8.681834e-22)	(4.040044e-03 -5.123345e-07 2.060651e-16)
0.435         	(9.064427e-03 -9.220445e-07 1.819296e-16)	(5.046646e-03 -4.156701e-07 4.719066e-22)	(4.017781e-03 -5.063744e-07 1.819292e-16)
0.44          	(9.055812e-03 -1.131957e-06 -1.306915e-16)	(5.059860e-03 -6.021676e-07 -1.615826e-21)	(3.995952e-03 -5.297894e-07 -1.306899e-16)
0.445         	(9.047924e-03 -1.063874e-06 1.976242e-16)	(5.073404e-03 -5.155975e-07 1.146531e-22)	(3.974520e-03 -5.482767e-07 1.976241e-16)
0.45          	(9.040292e-03 -1.350066e-06 -1.402760e-17)	(5.087048e-03 -7.462341e-07 -9.865866e-22)	(3.953245e-03 -6.038317e-07 -1.402662e-17)
0.455         	(9.032955e-03 -1.369392e-06 1.796173e-16)	(5.100555e-03 -8.216683e-07 -3.454570e-21)	(3.932400e-03 -5.477237e-07 1.796207e-16)
0.46          	(9.026315e-03 -1.273644e-06 1.797486e-16)	(5.114039e-03 -8.405498e-07 3.357461e-21)	(3.912275e-03 -4.330940e-07 1.797453e-16)
0.465         	(9.020257e-03 -1.230069e-06 -2.387061e-16)	(5.127840e-03 -8.952962e-07 1.712479e-21)	(3.892416e-03 -3.347733e-07 -2.387078e-16)
0.47          	(9.015287e-03 -1.205225e-06 1.825542e-16)	(5.142332e-03 -9.414492e-07 -3.042075e-21)	(3.872954e-03 -2.637760e-07 1.825573e-16)
0.475         	(9.010958e-03 -1.179619e-06 1.645839e-16)	(5.157297e-03 -9.554422e-07 7.307359e-22)	(3.853661e-03 -2.241766e-07 1.645832e-16)
0.48          	(9.007381e-03 -1.287380e-06 2.052741e-16)	(5.172535e-03 -1.043645e-06 3.468486e-21)	(3.834846e-03 -2.437343e-07 2.052706e-16)
0.485         	(9.005324e-03 -1.393609e-06 -8.250212e-18)	(5.188832e-03 -1.137571e-06 -4.176491e-21)	(3.816492e-03 -2.560381e-07 -8.246035e-18)
0.49          	(9.001776e-03 -1.339981e-06 2.155802e-16)	(5.203356e-03 -1.065550e-06 3.764313e-21)	(3.798420e-03 -2.744313e-07 2.155765e-16)
0.495         	(8.998505e-03 -1.627412e-06 -3.727647e-16)	(5.217845e-03 -1.330972e-06 4.402637e-22)	(3.780661e-03 -2.964398e-07 -3.727651e-16)
0.5           	(8.996207e-03 -1.616806e-06 1.113339e-16)	(5.233189e-03 -1.277878e-06 -1.951570e-21)	(3.763018e-03 -3.389280e-07 1.113359e-16)
