# Force       
# CofR        : (0.000000e+00 0.000000e+00 0.000000e+00)
#
# Time        	(total_x total_y total_z)	(pressure_x pressure_y pressure_z)	(viscous_x viscous_y viscous_z)
0             	(1.645676e-01 1.246017e-03 1.798987e-17)	(0.000000e+00 0.000000e+00 0.000000e+00)	(1.645676e-01 1.246017e-03 1.798987e-17)
