# Force       
# CofR        : (0.000000e+00 0.000000e+00 0.000000e+00)
#
# Time        	(total_x total_y total_z)	(pressure_x pressure_y pressure_z)	(viscous_x viscous_y viscous_z)
0             	(1.645676e-01 1.246017e-03 1.798987e-17)	(0.000000e+00 0.000000e+00 0.000000e+00)	(1.645676e-01 1.246017e-03 1.798987e-17)
0.005         	(4.799126e+00 -4.883329e-05 1.567596e-16)	(4.718759e+00 -7.767416e-05 -4.039909e-19)	(8.036715e-02 2.884087e-05 1.571635e-16)
0.01          	(-2.189644e+00 -2.916052e-04 1.669493e-16)	(-2.226733e+00 -2.906277e-04 4.658661e-19)	(3.708854e-02 -9.774925e-07 1.664834e-16)
0.015         	(-2.871988e-01 -1.349170e-04 2.081558e-16)	(-3.082256e-01 -1.304545e-04 -5.185550e-20)	(2.102677e-02 -4.462551e-06 2.082076e-16)
0.02          	(3.388156e-02 -5.311314e-07 1.827906e-16)	(1.665354e-02 3.383197e-06 2.132740e-21)	(1.722802e-02 -3.914328e-06 1.827885e-16)
0.025         	(1.212127e-01 -1.666359e-05 1.492233e-16)	(1.043107e-01 -1.240691e-05 4.381554e-21)	(1.690202e-02 -4.256681e-06 1.492190e-16)
0.03          	(6.001788e-03 -1.678375e-05 1.930859e-16)	(-9.569707e-03 -1.343789e-05 1.380105e-21)	(1.557150e-02 -3.345854e-06 1.930845e-16)
0.035         	(1.210426e-02 -1.208934e-05 1.460625e-16)	(-2.234856e-03 -9.483547e-06 1.651463e-21)	(1.433911e-02 -2.605794e-06 1.460609e-16)
0.04          	(1.954569e-02 -6.860685e-06 1.904765e-16)	(6.144023e-03 -4.882687e-06 9.720069e-22)	(1.340166e-02 -1.977998e-06 1.904756e-16)
0.045         	(2.194611e-02 -5.469914e-06 1.905111e-16)	(9.285934e-03 -3.670279e-06 -2.733659e-21)	(1.266018e-02 -1.799635e-06 1.905139e-16)
0.05          	(1.975885e-02 -6.068903e-06 1.663333e-16)	(7.751533e-03 -4.381099e-06 -3.074682e-21)	(1.200732e-02 -1.687804e-06 1.663364e-16)
0.055         	(1.881908e-02 -6.197729e-06 1.833603e-16)	(7.384901e-03 -4.647133e-06 2.486260e-21)	(1.143417e-02 -1.550596e-06 1.833578e-16)
0.06          	(1.825620e-02 -6.119670e-06 2.076958e-16)	(7.323997e-03 -4.743133e-06 4.823248e-21)	(1.093220e-02 -1.376537e-06 2.076910e-16)
0.065         	(1.771091e-02 -6.032727e-06 1.990455e-16)	(7.221597e-03 -4.844776e-06 2.219167e-22)	(1.048931e-02 -1.187952e-06 1.990452e-16)
0.07          	(1.712162e-02 -5.836751e-06 1.809889e-16)	(7.026904e-03 -4.816832e-06 -1.475028e-21)	(1.009472e-02 -1.019918e-06 1.809903e-16)
0.075         	(1.658366e-02 -5.792798e-06 1.749557e-16)	(6.842988e-03 -4.887576e-06 1.324343e-21)	(9.740676e-03 -9.052218e-07 1.749543e-16)
0.08          	(1.610255e-02 -5.689077e-06 1.780857e-16)	(6.681613e-03 -4.862499e-06 2.502781e-21)	(9.420934e-03 -8.265779e-07 1.780832e-16)
0.085         	(1.566451e-02 -5.224808e-06 1.914944e-16)	(6.534068e-03 -4.444914e-06 1.823691e-21)	(9.130445e-03 -7.798938e-07 1.914926e-16)
0.09          	(1.526107e-02 -4.743004e-06 2.253931e-16)	(6.395885e-03 -3.994955e-06 -5.197441e-21)	(8.865189e-03 -7.480491e-07 2.253983e-16)
0.095         	(1.488917e-02 -4.381721e-06 1.368005e-16)	(6.267199e-03 -3.679635e-06 4.636058e-21)	(8.621969e-03 -7.020858e-07 1.367958e-16)
0.1           	(1.454751e-02 -3.533830e-06 1.830924e-16)	(6.149631e-03 -2.886870e-06 -4.867318e-21)	(8.397875e-03 -6.469604e-07 1.830972e-16)
0.105         	(1.423164e-02 -3.435366e-06 -1.588251e-18)	(6.041178e-03 -2.841328e-06 6.840107e-21)	(8.190464e-03 -5.940384e-07 -1.595091e-18)
0.11          	(1.393969e-02 -3.380867e-06 2.317767e-16)	(5.941870e-03 -2.843100e-06 -4.220318e-21)	(7.997820e-03 -5.377674e-07 2.317809e-16)
0.115         	(1.366860e-02 -2.060435e-06 2.348648e-16)	(5.850289e-03 -1.574449e-06 1.496110e-21)	(7.818316e-03 -4.859856e-07 2.348633e-16)
0.12          	(1.341713e-02 -1.647506e-06 2.339040e-16)	(5.766630e-03 -1.203168e-06 -5.519567e-21)	(7.650495e-03 -4.443373e-07 2.339096e-16)
0.125         	(1.318128e-02 -1.581474e-06 2.227962e-16)	(5.688323e-03 -1.174363e-06 -1.436565e-21)	(7.492960e-03 -4.071111e-07 2.227976e-16)
0.13          	(1.295968e-02 -1.401559e-06 2.018445e-16)	(5.615447e-03 -1.030486e-06 6.958182e-21)	(7.344236e-03 -3.710731e-07 2.018375e-16)
0.135         	(1.275241e-02 -1.184929e-06 2.193908e-16)	(5.547566e-03 -8.364924e-07 3.058102e-22)	(7.204846e-03 -3.484366e-07 2.193905e-16)
0.14          	(1.255813e-02 -8.625990e-07 1.310090e-16)	(5.484737e-03 -5.395891e-07 3.905323e-22)	(7.073398e-03 -3.230098e-07 1.310086e-16)
0.145         	(1.237494e-02 -6.444542e-07 1.827010e-16)	(5.426635e-03 -3.421659e-07 7.048984e-22)	(6.948309e-03 -3.022883e-07 1.827003e-16)
0.15          	(1.220353e-02 -6.015412e-07 1.990004e-16)	(5.373217e-03 -3.260545e-07 -1.344205e-22)	(6.830309e-03 -2.754867e-07 1.990005e-16)
0.155         	(1.204166e-02 -4.323554e-07 1.715440e-16)	(5.324065e-03 -2.065793e-07 -2.084490e-21)	(6.717600e-03 -2.257760e-07 1.715461e-16)
0.16          	(1.189061e-02 -8.912802e-08 1.525085e-16)	(5.279292e-03 9.581142e-08 -3.264289e-21)	(6.611314e-03 -1.849394e-07 1.525118e-16)
0.165         	(1.174771e-02 1.274693e-07 1.877233e-16)	(5.237372e-03 2.999304e-07 1.855090e-21)	(6.510341e-03 -1.724611e-07 1.877214e-16)
0.17          	(1.161224e-02 7.224153e-08 -2.670349e-16)	(5.198337e-03 2.399324e-07 -9.293226e-22)	(6.413900e-03 -1.676909e-07 -2.670340e-16)
0.175         	(1.148188e-02 1.984569e-07 1.818602e-16)	(5.161365e-03 3.626718e-07 1.424196e-21)	(6.320513e-03 -1.642149e-07 1.818587e-16)
0.18          	(1.135862e-02 1.285480e-07 1.915373e-16)	(5.127428e-03 2.813482e-07 -6.015376e-22)	(6.231196e-03 -1.528002e-07 1.915379e-16)
0.185         	(1.124348e-02 1.752468e-07 2.280584e-16)	(5.097070e-03 3.331459e-07 9.357949e-23)	(6.146415e-03 -1.578991e-07 2.280583e-16)
0.19          	(1.113294e-02 2.373888e-07 1.920637e-16)	(5.068004e-03 4.114922e-07 -1.569835e-21)	(6.064937e-03 -1.741035e-07 1.920653e-16)
0.195         	(1.102831e-02 2.547456e-07 2.348213e-16)	(5.041489e-03 4.610551e-07 6.256509e-23)	(5.986819e-03 -2.063095e-07 2.348213e-16)
0.2           	(1.092892e-02 2.101539e-07 1.869971e-16)	(5.017110e-03 4.149856e-07 4.817190e-22)	(5.911806e-03 -2.048317e-07 1.869966e-16)
0.205         	(1.083299e-02 2.619963e-07 2.007518e-16)	(4.994005e-03 4.569967e-07 8.612266e-24)	(5.838983e-03 -1.950004e-07 2.007518e-16)
0.21          	(1.074060e-02 3.117662e-07 1.664430e-16)	(4.972623e-03 5.163979e-07 3.853425e-22)	(5.767973e-03 -2.046317e-07 1.664426e-16)
0.215         	(1.065182e-02 2.752351e-07 -9.539621e-17)	(4.952762e-03 4.848072e-07 9.205224e-23)	(5.699056e-03 -2.095721e-07 -9.539631e-17)
0.22          	(1.056868e-02 1.554170e-07 2.335786e-16)	(4.935502e-03 3.570349e-07 1.086728e-21)	(5.633182e-03 -2.016179e-07 2.335775e-16)
0.225         	(1.049055e-02 8.092321e-07 2.272219e-16)	(4.919968e-03 1.009797e-06 5.484750e-22)	(5.570583e-03 -2.005650e-07 2.272213e-16)
0.23          	(1.041612e-02 1.258106e-07 2.400904e-16)	(4.905828e-03 3.290756e-07 4.254657e-21)	(5.510296e-03 -2.032649e-07 2.400862e-16)
0.235         	(1.034471e-02 1.705510e-07 -7.715461e-17)	(4.892777e-03 3.730476e-07 -3.833038e-21)	(5.451935e-03 -2.024966e-07 -7.715078e-17)
0.24          	(1.027642e-02 2.034651e-07 1.979149e-16)	(4.880990e-03 3.804481e-07 -4.396552e-23)	(5.395427e-03 -1.769830e-07 1.979149e-16)
0.245         	(1.021070e-02 2.218971e-07 1.575208e-16)	(4.870622e-03 4.084254e-07 6.520731e-23)	(5.340078e-03 -1.865283e-07 1.575208e-16)
0.25          	(1.014735e-02 1.633943e-07 -1.809027e-16)	(4.861202e-03 3.587254e-07 -5.633165e-22)	(5.286146e-03 -1.953311e-07 -1.809021e-16)
0.255         	(1.008733e-02 5.459725e-08 1.804279e-16)	(4.852956e-03 2.317279e-07 -2.306764e-21)	(5.234371e-03 -1.771306e-07 1.804302e-16)
0.26          	(1.003080e-02 1.892507e-07 1.937512e-16)	(4.846293e-03 3.262861e-07 -1.357957e-21)	(5.184508e-03 -1.370354e-07 1.937526e-16)
0.265         	(9.975798e-03 2.980019e-07 2.223688e-16)	(4.840121e-03 3.923930e-07 -5.330713e-22)	(5.135677e-03 -9.439114e-08 2.223693e-16)
0.27          	(9.922994e-03 3.032341e-07 1.867840e-16)	(4.834899e-03 3.795732e-07 8.155166e-22)	(5.088095e-03 -7.633907e-08 1.867832e-16)
0.275         	(9.872377e-03 2.605299e-07 2.005307e-16)	(4.830612e-03 3.484549e-07 5.036238e-23)	(5.041765e-03 -8.792497e-08 2.005307e-16)
0.28          	(9.824781e-03 2.202367e-07 1.786926e-16)	(4.827594e-03 2.996017e-07 7.107456e-23)	(4.997187e-03 -7.936503e-08 1.786925e-16)
0.285         	(9.779056e-03 2.083342e-07 6.736961e-17)	(4.825296e-03 3.291284e-07 -2.380828e-21)	(4.953760e-03 -1.207942e-07 6.737199e-17)
0.29          	(9.735230e-03 2.959450e-07 1.832122e-16)	(4.823949e-03 3.085498e-07 1.722373e-22)	(4.911280e-03 -1.260484e-08 1.832120e-16)
0.295         	(9.693482e-03 2.138866e-07 2.034354e-16)	(4.823311e-03 2.555796e-07 2.448552e-21)	(4.870170e-03 -4.169301e-08 2.034330e-16)
0.3           	(9.653770e-03 1.846031e-07 -3.541583e-16)	(4.823673e-03 2.323772e-07 -9.971842e-22)	(4.830097e-03 -4.777416e-08 -3.541573e-16)
0.305         	(9.615626e-03 1.647365e-07 1.417936e-16)	(4.824900e-03 2.044542e-07 -1.096363e-21)	(4.790726e-03 -3.971773e-08 1.417947e-16)
0.31          	(9.578942e-03 2.251801e-07 1.448612e-16)	(4.826810e-03 2.771333e-07 -4.734520e-22)	(4.752132e-03 -5.195320e-08 1.448617e-16)
0.315         	(9.544192e-03 -1.016416e-08 2.229429e-16)	(4.829499e-03 3.657289e-08 -8.646916e-22)	(4.714693e-03 -4.673706e-08 2.229438e-16)
0.32          	(9.511227e-03 5.747354e-07 1.869755e-16)	(4.832955e-03 6.151966e-07 -1.628071e-21)	(4.678272e-03 -4.046118e-08 1.869771e-16)
0.325         	(9.479723e-03 3.158909e-07 1.943810e-16)	(4.837220e-03 3.209570e-07 -2.499005e-21)	(4.642503e-03 -5.066138e-09 1.943835e-16)
0.33          	(9.448556e-03 -5.074817e-08 2.075154e-16)	(4.841121e-03 3.844680e-08 1.165898e-21)	(4.607435e-03 -8.919497e-08 2.075142e-16)
0.335         	(9.419124e-03 1.482723e-07 1.695703e-16)	(4.846100e-03 2.441710e-07 -6.135607e-22)	(4.573023e-03 -9.589864e-08 1.695709e-16)
0.34          	(9.391716e-03 -3.777373e-07 2.036289e-16)	(4.852302e-03 -2.791805e-07 1.560181e-21)	(4.539413e-03 -9.855684e-08 2.036274e-16)
0.345         	(9.365606e-03 -4.850798e-08 -3.034501e-16)	(4.859249e-03 7.541559e-08 -9.957826e-22)	(4.506357e-03 -1.239236e-07 -3.034491e-16)
0.35          	(9.340646e-03 -1.535537e-07 2.236389e-16)	(4.866444e-03 -1.451400e-08 -3.414193e-21)	(4.474202e-03 -1.390397e-07 2.236423e-16)
0.355         	(9.316389e-03 -3.646940e-07 -4.659494e-17)	(4.873761e-03 -2.225981e-07 -2.094929e-21)	(4.442628e-03 -1.420959e-07 -4.659285e-17)
0.36          	(9.293353e-03 -1.452791e-07 1.820495e-16)	(4.881760e-03 -1.252329e-08 1.314375e-21)	(4.411594e-03 -1.327558e-07 1.820482e-16)
0.365         	(9.272000e-03 -2.578995e-07 2.212212e-16)	(4.890539e-03 -9.770886e-08 -1.486264e-21)	(4.381461e-03 -1.601907e-07 2.212227e-16)
0.37          	(9.251244e-03 -1.872019e-07 -2.290990e-17)	(4.899344e-03 2.815231e-09 -3.642302e-22)	(4.351900e-03 -1.900171e-07 -2.290954e-17)
0.375         	(9.231593e-03 -5.876821e-07 2.325352e-16)	(4.908496e-03 -3.479425e-07 3.908265e-21)	(4.323097e-03 -2.397395e-07 2.325313e-16)
0.38          	(9.212676e-03 -5.028254e-07 1.592399e-16)	(4.918086e-03 -2.261797e-07 -7.893558e-23)	(4.294590e-03 -2.766457e-07 1.592400e-16)
0.385         	(9.194695e-03 -5.906334e-07 2.377746e-16)	(4.928232e-03 -2.163312e-07 1.188550e-21)	(4.266462e-03 -3.743021e-07 2.377734e-16)
0.39          	(9.177810e-03 -6.319139e-07 1.731937e-16)	(4.938853e-03 -1.713896e-07 -2.110027e-21)	(4.238956e-03 -4.605243e-07 1.731958e-16)
0.395         	(9.162185e-03 -8.139832e-07 7.072829e-17)	(4.949783e-03 -2.775940e-07 1.559968e-21)	(4.212402e-03 -5.363892e-07 7.072673e-17)
0.4           	(9.147451e-03 -9.173908e-07 2.177207e-16)	(4.961082e-03 -3.042571e-07 2.966123e-22)	(4.186369e-03 -6.131337e-07 2.177204e-16)
0.405         	(9.133132e-03 -9.292370e-07 9.760556e-17)	(4.972374e-03 -3.605992e-07 1.531312e-22)	(4.160758e-03 -5.686378e-07 9.760541e-17)
0.41          	(9.119440e-03 -7.003665e-07 2.128111e-16)	(4.983835e-03 -1.278045e-07 1.973506e-21)	(4.135604e-03 -5.725620e-07 2.128092e-16)
0.415         	(9.106834e-03 -1.001992e-06 1.559157e-16)	(4.995814e-03 -5.078148e-07 1.622009e-22)	(4.111020e-03 -4.941775e-07 1.559155e-16)
0.42          	(9.094567e-03 -9.051970e-07 -2.499734e-16)	(5.007773e-03 -3.781252e-07 -3.316491e-21)	(4.086794e-03 -5.270717e-07 -2.499700e-16)
0.425         	(9.083998e-03 -1.096069e-06 1.874149e-16)	(5.020956e-03 -5.180246e-07 -1.707992e-21)	(4.063042e-03 -5.780442e-07 1.874166e-16)
0.43          	(9.073783e-03 -1.179118e-06 2.060659e-16)	(5.033739e-03 -6.667835e-07 8.681834e-22)	(4.040044e-03 -5.123345e-07 2.060651e-16)
0.435         	(9.064427e-03 -9.220445e-07 1.819296e-16)	(5.046646e-03 -4.156701e-07 4.719066e-22)	(4.017781e-03 -5.063744e-07 1.819292e-16)
0.44          	(9.055812e-03 -1.131957e-06 -1.306915e-16)	(5.059860e-03 -6.021676e-07 -1.615826e-21)	(3.995952e-03 -5.297894e-07 -1.306899e-16)
0.445         	(9.047924e-03 -1.063874e-06 1.976242e-16)	(5.073404e-03 -5.155975e-07 1.146531e-22)	(3.974520e-03 -5.482767e-07 1.976241e-16)
0.45          	(9.040292e-03 -1.350066e-06 -1.402760e-17)	(5.087048e-03 -7.462341e-07 -9.865866e-22)	(3.953245e-03 -6.038317e-07 -1.402662e-17)
0.455         	(9.032955e-03 -1.369392e-06 1.796173e-16)	(5.100555e-03 -8.216683e-07 -3.454570e-21)	(3.932400e-03 -5.477237e-07 1.796207e-16)
0.46          	(9.026315e-03 -1.273644e-06 1.797486e-16)	(5.114039e-03 -8.405498e-07 3.357461e-21)	(3.912275e-03 -4.330940e-07 1.797453e-16)
0.465         	(9.020257e-03 -1.230069e-06 -2.387061e-16)	(5.127840e-03 -8.952962e-07 1.712479e-21)	(3.892416e-03 -3.347733e-07 -2.387078e-16)
0.47          	(9.015287e-03 -1.205225e-06 1.825542e-16)	(5.142332e-03 -9.414492e-07 -3.042075e-21)	(3.872954e-03 -2.637760e-07 1.825573e-16)
0.475         	(9.010958e-03 -1.179619e-06 1.645839e-16)	(5.157297e-03 -9.554422e-07 7.307359e-22)	(3.853661e-03 -2.241766e-07 1.645832e-16)
0.48          	(9.007381e-03 -1.287380e-06 2.052741e-16)	(5.172535e-03 -1.043645e-06 3.468486e-21)	(3.834846e-03 -2.437343e-07 2.052706e-16)
0.485         	(9.005324e-03 -1.393609e-06 -8.250212e-18)	(5.188832e-03 -1.137571e-06 -4.176491e-21)	(3.816492e-03 -2.560381e-07 -8.246035e-18)
0.49          	(9.001776e-03 -1.339981e-06 2.155802e-16)	(5.203356e-03 -1.065550e-06 3.764313e-21)	(3.798420e-03 -2.744313e-07 2.155765e-16)
0.495         	(8.998505e-03 -1.627412e-06 -3.727647e-16)	(5.217845e-03 -1.330972e-06 4.402637e-22)	(3.780661e-03 -2.964398e-07 -3.727651e-16)
0.5           	(8.996207e-03 -1.616806e-06 1.113339e-16)	(5.233189e-03 -1.277878e-06 -1.951570e-21)	(3.763018e-03 -3.389280e-07 1.113359e-16)
0             	(1.645676e-01 1.246017e-03 2.086281e-17)	(0.000000e+00 0.000000e+00 0.000000e+00)	(1.645676e-01 1.246017e-03 2.086281e-17)
0             	(1.645551e-01 1.245985e-03 2.151765e-17)	(0.000000e+00 0.000000e+00 0.000000e+00)	(1.645551e-01 1.245985e-03 2.151765e-17)
0.005         	(4.127106e+00 -3.878160e-04 6.666035e-17)	(4.007471e+00 -4.245607e-04 -1.549759e-19)	(1.196346e-01 3.674471e-05 6.681533e-17)
0.01          	(1.738574e-01 1.743577e-04 1.309712e-16)	(1.034656e-01 1.534960e-04 -1.203031e-21)	(7.039179e-02 2.086167e-05 1.309724e-16)
0.015         	(-1.664762e+00 -6.638371e-04 1.437338e-16)	(-1.707097e+00 -6.875932e-04 1.076602e-19)	(4.233435e-02 2.375612e-05 1.436262e-16)
0.02          	(-1.397437e+00 -9.357218e-04 1.212941e-16)	(-1.438265e+00 -9.522183e-04 -7.979396e-20)	(4.082792e-02 1.649643e-05 1.213739e-16)
0.025         	(9.038568e-02 -3.859301e-04 1.112025e-16)	(4.055161e-02 -4.264638e-04 3.230605e-21)	(4.983408e-02 4.053376e-05 1.111993e-16)
0.03          	(7.500346e-01 2.926803e-05 1.016317e-16)	(6.955707e-01 -4.651213e-06 3.254782e-20)	(5.446395e-02 3.391924e-05 1.015992e-16)
0.035         	(4.040177e-01 -3.446865e-05 1.143539e-16)	(3.527192e-01 -1.783369e-05 -5.090875e-21)	(5.129845e-02 -1.663496e-05 1.143590e-16)
0.04          	(-1.287591e-01 -2.523437e-04 1.191745e-16)	(-1.744361e-01 -2.452865e-04 -1.972846e-21)	(4.567703e-02 -7.057286e-06 1.191765e-16)
0.045         	(-2.034941e-01 -3.622849e-04 1.161665e-16)	(-2.460689e-01 -3.558692e-04 -1.115432e-20)	(4.257475e-02 -6.415710e-06 1.161777e-16)
0.05          	(-1.089947e-01 -3.855984e-04 1.125218e-16)	(-1.510472e-01 -3.816319e-04 -9.246257e-21)	(4.205246e-02 -3.966578e-06 1.125311e-16)
0.055         	(-1.867171e-02 -3.474037e-04 1.094003e-16)	(-6.095227e-02 -3.504227e-04 -9.381704e-22)	(4.228056e-02 3.019028e-06 1.094013e-16)
0.06          	(1.279361e-02 -3.053176e-04 1.087567e-16)	(-2.933453e-02 -3.076926e-04 1.486350e-21)	(4.212814e-02 2.374928e-06 1.087552e-16)
0.065         	(3.077941e-03 -2.940241e-04 1.196422e-16)	(-3.840973e-02 -2.942981e-04 9.679251e-22)	(4.148768e-02 2.740077e-07 1.196413e-16)
0.07          	(-1.507785e-02 -2.956245e-04 1.174078e-16)	(-5.574399e-02 -2.957672e-04 2.314971e-21)	(4.066615e-02 1.427359e-07 1.174055e-16)
0.075         	(-2.395986e-02 -2.992333e-04 1.206273e-16)	(-6.386925e-02 -3.014305e-04 5.041564e-21)	(3.990939e-02 2.197215e-06 1.206223e-16)
0.08          	(-2.372160e-02 -2.957392e-04 1.240936e-16)	(-6.299730e-02 -3.012314e-04 1.083310e-20)	(3.927570e-02 5.492232e-06 1.240827e-16)
0.085         	(-2.059011e-02 -2.923530e-04 1.290920e-16)	(-5.931077e-02 -3.003442e-04 1.142843e-20)	(3.872066e-02 7.991180e-06 1.290805e-16)
0.09          	(-1.867005e-02 -2.861709e-04 1.299620e-16)	(-5.686596e-02 -2.958447e-04 -8.164623e-21)	(3.819591e-02 9.673801e-06 1.299702e-16)
0.095         	(-1.849208e-02 -2.835375e-04 1.388495e-16)	(-5.617559e-02 -2.943993e-04 2.097506e-21)	(3.768351e-02 1.086176e-05 1.388474e-16)
0.1           	(-1.899762e-02 -2.794219e-04 1.430190e-16)	(-5.618066e-02 -2.912465e-04 -6.548856e-21)	(3.718304e-02 1.182452e-05 1.430256e-16)
0.105         	(-1.931403e-02 -2.779945e-04 1.431866e-16)	(-5.601420e-02 -2.906992e-04 -4.832100e-21)	(3.670017e-02 1.270472e-05 1.431914e-16)
0.11          	(-1.925922e-02 -2.746565e-04 1.479227e-16)	(-5.549463e-02 -2.881025e-04 2.230822e-21)	(3.623541e-02 1.344601e-05 1.479205e-16)
0.115         	(-1.900435e-02 -2.731778e-04 1.509373e-16)	(-5.479069e-02 -2.872110e-04 -3.613458e-22)	(3.578634e-02 1.403315e-05 1.509377e-16)
0.12          	(-1.873493e-02 -2.703665e-04 1.542507e-16)	(-5.408423e-02 -2.848259e-04 -8.754786e-21)	(3.534929e-02 1.445938e-05 1.542594e-16)
0.125         	(-1.851121e-02 -2.690218e-04 1.579663e-16)	(-5.343340e-02 -2.837724e-04 -5.856784e-21)	(3.492219e-02 1.475056e-05 1.579722e-16)
0.13          	(-1.831191e-02 -2.668183e-04 1.601121e-16)	(-5.281515e-02 -2.817323e-04 8.798844e-21)	(3.450324e-02 1.491396e-05 1.601033e-16)
0.135         	(-1.810000e-02 -2.656940e-04 1.648550e-16)	(-5.219261e-02 -2.805768e-04 8.123413e-21)	(3.409261e-02 1.488281e-05 1.648469e-16)
0.14          	(-1.786241e-02 -2.641347e-04 1.673759e-16)	(-5.155224e-02 -2.789124e-04 -1.096089e-20)	(3.368983e-02 1.477767e-05 1.673868e-16)
0.145         	(-1.760735e-02 -2.631564e-04 1.698964e-16)	(-5.090178e-02 -2.777644e-04 -2.125231e-21)	(3.329443e-02 1.460794e-05 1.698986e-16)
0.15          	(-1.734740e-02 -2.620339e-04 1.694994e-16)	(-5.025271e-02 -2.764111e-04 8.243494e-21)	(3.290531e-02 1.437724e-05 1.694911e-16)
0.155         	(-1.708806e-02 -2.611999e-04 1.783108e-16)	(-4.961061e-02 -2.752945e-04 -1.205945e-20)	(3.252255e-02 1.409462e-05 1.783229e-16)
0.16          	(-1.682676e-02 -2.603739e-04 1.801391e-16)	(-4.897290e-02 -2.741384e-04 2.576156e-21)	(3.214614e-02 1.376451e-05 1.801365e-16)
0.165         	(-1.656248e-02 -2.596914e-04 1.863989e-16)	(-4.833820e-02 -2.731121e-04 3.488440e-21)	(3.177572e-02 1.342069e-05 1.863954e-16)
0.17          	(-1.629265e-02 -2.587377e-04 1.927231e-16)	(-4.770454e-02 -2.720794e-04 6.805101e-22)	(3.141190e-02 1.334174e-05 1.927224e-16)
0.175         	(-1.601717e-02 -2.578801e-04 1.904076e-16)	(-4.707149e-02 -2.711146e-04 -4.115566e-21)	(3.105431e-02 1.323450e-05 1.904117e-16)
0.18          	(-1.574016e-02 -2.572217e-04 1.992824e-16)	(-4.644275e-02 -2.703134e-04 -1.277014e-21)	(3.070258e-02 1.309167e-05 1.992837e-16)
0.185         	(-1.545387e-02 -2.566528e-04 2.074820e-16)	(-4.581102e-02 -2.695952e-04 -1.625837e-21)	(3.035715e-02 1.294240e-05 2.074836e-16)
0.19          	(-1.515362e-02 -2.561645e-04 2.092751e-16)	(-4.517139e-02 -2.689827e-04 -3.016276e-21)	(3.001777e-02 1.281821e-05 2.092781e-16)
0.195         	(-1.485038e-02 -2.557834e-04 2.133689e-16)	(-4.453397e-02 -2.684638e-04 1.016441e-21)	(2.968359e-02 1.268041e-05 2.133679e-16)
0.2           	(-1.455921e-02 -2.554191e-04 2.176329e-16)	(-4.391353e-02 -2.680430e-04 -2.317806e-21)	(2.935431e-02 1.262388e-05 2.176352e-16)
0.205         	(-1.425863e-02 -2.552237e-04 2.219059e-16)	(-4.328854e-02 -2.676894e-04 2.006255e-21)	(2.902992e-02 1.246564e-05 2.219039e-16)
0.21          	(-1.394712e-02 -2.550604e-04 2.310480e-16)	(-4.265778e-02 -2.673939e-04 -3.159728e-21)	(2.871067e-02 1.233352e-05 2.310512e-16)
0.215         	(-1.362399e-02 -2.549150e-04 2.360493e-16)	(-4.202087e-02 -2.671307e-04 -5.116115e-21)	(2.839688e-02 1.221565e-05 2.360544e-16)
0.22          	(-1.330275e-02 -2.548068e-04 2.438758e-16)	(-4.139175e-02 -2.669307e-04 9.384959e-21)	(2.808900e-02 1.212393e-05 2.438664e-16)
0.225         	(-1.298443e-02 -2.547023e-04 2.499628e-16)	(-4.077129e-02 -2.667411e-04 4.069061e-21)	(2.778686e-02 1.203878e-05 2.499587e-16)
0.23          	(-1.267587e-02 -2.546293e-04 2.587623e-16)	(-4.016592e-02 -2.665939e-04 -7.842244e-22)	(2.749006e-02 1.196458e-05 2.587631e-16)
0.235         	(-1.236546e-02 -2.545664e-04 2.657313e-16)	(-3.956416e-02 -2.664504e-04 7.992171e-21)	(2.719870e-02 1.188404e-05 2.657233e-16)
0.24          	(-1.206720e-02 -2.546749e-04 2.710371e-16)	(-3.897991e-02 -2.664708e-04 -3.156863e-21)	(2.691272e-02 1.179588e-05 2.710403e-16)
0.245         	(-1.177291e-02 -2.547146e-04 2.764756e-16)	(-3.840487e-02 -2.664042e-04 -3.867482e-21)	(2.663196e-02 1.168952e-05 2.764794e-16)
0.25          	(-1.147871e-02 -2.550722e-04 2.858994e-16)	(-3.783443e-02 -2.666526e-04 4.540936e-21)	(2.635573e-02 1.158042e-05 2.858949e-16)
0.255         	(-1.117544e-02 -2.550124e-04 2.943326e-16)	(-3.725902e-02 -2.664998e-04 -3.862040e-21)	(2.608357e-02 1.148734e-05 2.943365e-16)
0.26          	(-1.086553e-02 -2.555573e-04 2.995063e-16)	(-3.668064e-02 -2.669743e-04 8.315798e-21)	(2.581511e-02 1.141692e-05 2.994979e-16)
0.265         	(-1.056390e-02 -2.552507e-04 3.081111e-16)	(-3.611443e-02 -2.666091e-04 2.517257e-21)	(2.555052e-02 1.135843e-05 3.081086e-16)
0.27          	(-1.025987e-02 -2.560958e-04 3.178240e-16)	(-3.554973e-02 -2.673889e-04 8.265661e-22)	(2.528985e-02 1.129317e-05 3.178232e-16)
0.275         	(-9.975823e-03 -2.556441e-04 3.274675e-16)	(-3.500931e-02 -2.668835e-04 -8.126288e-21)	(2.503349e-02 1.123940e-05 3.274757e-16)
0.28          	(-9.681488e-03 -2.566229e-04 3.351396e-16)	(-3.446285e-02 -2.678167e-04 -1.991070e-20)	(2.478136e-02 1.119377e-05 3.351595e-16)
0.285         	(-9.402775e-03 -2.560527e-04 3.447172e-16)	(-3.393610e-02 -2.672006e-04 3.382842e-21)	(2.453332e-02 1.114797e-05 3.447138e-16)
0.29          	(-9.107899e-03 -2.571495e-04 3.506279e-16)	(-3.339693e-02 -2.682490e-04 5.620507e-21)	(2.428903e-02 1.109950e-05 3.506223e-16)
0.295         	(-8.833562e-03 -2.564614e-04 3.612953e-16)	(-3.288209e-02 -2.675190e-04 -1.592223e-20)	(2.404852e-02 1.105757e-05 3.613112e-16)
0.3           	(-8.542414e-03 -2.576617e-04 3.703567e-16)	(-3.235417e-02 -2.686667e-04 -1.223924e-20)	(2.381176e-02 1.100499e-05 3.703690e-16)
0.305         	(-8.278485e-03 -2.566503e-04 3.778856e-16)	(-3.185738e-02 -2.677824e-04 3.510014e-22)	(2.357889e-02 1.113204e-05 3.778853e-16)
0.31          	(-7.995137e-03 -2.577409e-04 3.875347e-16)	(-3.134480e-02 -2.690541e-04 2.358340e-20)	(2.334966e-02 1.131321e-05 3.875111e-16)
0.315         	(-7.736866e-03 -2.567150e-04 3.941266e-16)	(-3.086091e-02 -2.680807e-04 -5.296412e-21)	(2.312405e-02 1.136576e-05 3.941319e-16)
0.32          	(-7.449454e-03 -2.578980e-04 4.046538e-16)	(-3.035112e-02 -2.693767e-04 2.226447e-20)	(2.290167e-02 1.147871e-05 4.046315e-16)
0.325         	(-7.194008e-03 -2.567039e-04 4.117508e-16)	(-2.987678e-02 -2.683307e-04 -1.122956e-20)	(2.268277e-02 1.162681e-05 4.117620e-16)
0.33          	(-6.906208e-03 -2.579055e-04 4.203467e-16)	(-2.937329e-02 -2.697055e-04 6.544393e-21)	(2.246708e-02 1.180000e-05 4.203402e-16)
0.335         	(-6.657663e-03 -2.566690e-04 4.301643e-16)	(-2.891202e-02 -2.686214e-04 1.400609e-21)	(2.225436e-02 1.195246e-05 4.301629e-16)
0.34          	(-6.377763e-03 -2.579226e-04 4.362328e-16)	(-2.842246e-02 -2.700227e-04 -6.941815e-21)	(2.204470e-02 1.210015e-05 4.362398e-16)
0.345         	(-6.144708e-03 -2.566948e-04 4.426712e-16)	(-2.798298e-02 -2.689288e-04 1.073559e-20)	(2.183827e-02 1.223401e-05 4.426605e-16)
0.35          	(-5.874640e-03 -2.580016e-04 4.511708e-16)	(-2.750956e-02 -2.703871e-04 -7.211332e-21)	(2.163492e-02 1.238553e-05 4.511780e-16)
0.355         	(-5.651588e-03 -2.568186e-04 4.556822e-16)	(-2.708639e-02 -2.693421e-04 -1.019600e-20)	(2.143481e-02 1.252355e-05 4.556924e-16)
0.36          	(-5.383711e-03 -2.582882e-04 4.683278e-16)	(-2.662184e-02 -2.707986e-04 -1.091364e-20)	(2.123813e-02 1.251033e-05 4.683387e-16)
0.365         	(-5.163652e-03 -2.573159e-04 4.729542e-16)	(-2.620798e-02 -2.697668e-04 1.074221e-20)	(2.104433e-02 1.245094e-05 4.729435e-16)
0.37          	(-4.896253e-03 -2.589482e-04 4.811427e-16)	(-2.574962e-02 -2.713192e-04 6.771357e-21)	(2.085337e-02 1.237104e-05 4.811359e-16)
0.375         	(-4.679801e-03 -2.579794e-04 4.883139e-16)	(-2.534492e-02 -2.702996e-04 -3.658388e-21)	(2.066512e-02 1.232024e-05 4.883175e-16)
0.38          	(-4.418891e-03 -2.597044e-04 4.943618e-16)	(-2.489810e-02 -2.718923e-04 -1.529196e-20)	(2.047921e-02 1.218793e-05 4.943771e-16)
0.385         	(-4.208812e-03 -2.590459e-04 4.995297e-16)	(-2.450454e-02 -2.710252e-04 6.116989e-21)	(2.029573e-02 1.197924e-05 4.995236e-16)
0.39          	(-3.955499e-03 -2.608905e-04 5.073810e-16)	(-2.407017e-02 -2.725796e-04 3.610271e-21)	(2.011467e-02 1.168914e-05 5.073774e-16)
0.395         	(-3.747325e-03 -2.604484e-04 5.137460e-16)	(-2.368352e-02 -2.718669e-04 -2.186576e-21)	(1.993620e-02 1.141853e-05 5.137482e-16)
0.4           	(-3.499116e-03 -2.621319e-04 5.177602e-16)	(-2.325945e-02 -2.732863e-04 7.236447e-21)	(1.976033e-02 1.115434e-05 5.177530e-16)
0.405         	(-3.292654e-03 -2.616612e-04 5.246398e-16)	(-2.287940e-02 -2.727347e-04 1.024326e-20)	(1.958675e-02 1.107357e-05 5.246296e-16)
0.41          	(-3.051762e-03 -2.630703e-04 5.292061e-16)	(-2.246693e-02 -2.740660e-04 -1.603124e-20)	(1.941517e-02 1.099573e-05 5.292222e-16)
0.415         	(-2.845990e-03 -2.627509e-04 5.334684e-16)	(-2.209143e-02 -2.737147e-04 9.316790e-21)	(1.924544e-02 1.096380e-05 5.334591e-16)
0.42          	(-2.612570e-03 -2.640879e-04 5.381102e-16)	(-2.169003e-02 -2.749667e-04 1.471915e-20)	(1.907746e-02 1.087877e-05 5.380955e-16)
0.425         	(-2.403198e-03 -2.641204e-04 5.401163e-16)	(-2.131423e-02 -2.749328e-04 9.265832e-21)	(1.891103e-02 1.081235e-05 5.401070e-16)
0.43          	(-2.169935e-03 -2.653139e-04 5.455038e-16)	(-2.091596e-02 -2.760408e-04 -1.535801e-20)	(1.874603e-02 1.072687e-05 5.455191e-16)
0.435         	(-1.958010e-03 -2.656164e-04 5.493702e-16)	(-2.054046e-02 -2.761544e-04 -1.620922e-20)	(1.858245e-02 1.053802e-05 5.493864e-16)
0.44          	(-1.729052e-03 -2.666870e-04 5.537088e-16)	(-2.014915e-02 -2.771462e-04 1.413661e-20)	(1.842009e-02 1.045911e-05 5.536947e-16)
0.445         	(-1.517812e-03 -2.669210e-04 5.554042e-16)	(-1.977664e-02 -2.773243e-04 1.798329e-20)	(1.825883e-02 1.040336e-05 5.553862e-16)
0.45          	(-1.294976e-03 -2.679215e-04 5.585548e-16)	(-1.939387e-02 -2.781939e-04 -7.263287e-21)	(1.809889e-02 1.027241e-05 5.585621e-16)
0.455         	(-1.088510e-03 -2.683678e-04 5.623756e-16)	(-1.902892e-02 -2.785290e-04 1.002738e-20)	(1.794041e-02 1.016120e-05 5.623656e-16)
0.46          	(-8.741174e-04 -2.692607e-04 5.638608e-16)	(-1.865749e-02 -2.793068e-04 2.276032e-21)	(1.778337e-02 1.004608e-05 5.638586e-16)
0.465         	(-6.697393e-04 -2.697839e-04 5.650859e-16)	(-1.829762e-02 -2.797083e-04 1.336590e-20)	(1.762788e-02 9.924485e-06 5.650726e-16)
0.47          	(-4.590420e-04 -2.706001e-04 5.635282e-16)	(-1.793273e-02 -2.803868e-04 -4.787926e-22)	(1.747369e-02 9.786697e-06 5.635286e-16)
0.475         	(-2.534466e-04 -2.711924e-04 5.654406e-16)	(-1.757416e-02 -2.808377e-04 4.420892e-21)	(1.732071e-02 9.645254e-06 5.654362e-16)
0.48          	(-4.430683e-05 -2.720170e-04 5.641465e-16)	(-1.721313e-02 -2.815219e-04 -9.486023e-21)	(1.716883e-02 9.504918e-06 5.641560e-16)
0.485         	(1.598099e-04 -2.725726e-04 5.676958e-16)	(-1.685839e-02 -2.819311e-04 -1.230625e-20)	(1.701820e-02 9.358580e-06 5.677081e-16)
0.49          	(3.657737e-04 -2.734409e-04 5.650945e-16)	(-1.650296e-02 -2.826420e-04 1.704801e-20)	(1.686873e-02 9.201071e-06 5.650775e-16)
0.495         	(5.697935e-04 -2.739505e-04 5.654773e-16)	(-1.615060e-02 -2.829842e-04 5.592713e-21)	(1.672039e-02 9.033723e-06 5.654717e-16)
0.5           	(7.749944e-04 -2.746406e-04 5.646501e-16)	(-1.579824e-02 -2.837162e-04 -1.139408e-21)	(1.657323e-02 9.075599e-06 5.646512e-16)
