# Moment      
# CofR        : (0.000000e+00 0.000000e+00 0.000000e+00)
#
# Time        	(total_x total_y total_z)	(pressure_x pressure_y pressure_z)	(viscous_x viscous_y viscous_z)
0             	(-1.401769e-04 1.851386e-02 -3.157505e-04)	(0.000000e+00 0.000000e+00 0.000000e+00)	(-1.401769e-04 1.851386e-02 -3.157505e-04)
0.005         	(5.493745e-06 5.399017e-01 4.942259e-07)	(8.738343e-06 5.308604e-01 -3.684724e-07)	(-3.244598e-06 9.041305e-03 8.626983e-07)
0.01          	(3.280558e-05 -2.463350e-01 1.054815e-06)	(3.269561e-05 -2.505074e-01 7.457508e-07)	(1.099679e-07 4.172461e-03 3.090642e-07)
0.015         	(1.517816e-05 -3.230987e-02 3.607799e-06)	(1.467613e-05 -3.467538e-02 1.750951e-07)	(5.020370e-07 2.365512e-03 3.432704e-06)
0.02          	(5.975228e-08 3.811676e-03 4.181694e-06)	(-3.806096e-07 1.873523e-03 -1.892487e-08)	(4.403619e-07 1.938152e-03 4.200619e-06)
0.025         	(1.874654e-06 1.363643e-02 3.548444e-06)	(1.395777e-06 1.173495e-02 -2.309777e-07)	(4.788766e-07 1.901478e-03 3.779422e-06)
0.03          	(1.888171e-06 6.752012e-04 3.638187e-06)	(1.511763e-06 -1.076592e-03 -9.054009e-09)	(3.764085e-07 1.751793e-03 3.647241e-06)
0.035         	(1.360051e-06 1.361729e-03 3.165574e-06)	(1.066899e-06 -2.514213e-04 -2.331127e-08)	(2.931518e-07 1.613150e-03 3.188885e-06)
0.04          	(7.718270e-07 2.198890e-03 2.405681e-06)	(5.493023e-07 6.912025e-04 -4.313130e-08)	(2.225247e-07 1.507687e-03 2.448812e-06)
0.045         	(6.153653e-07 2.468937e-03 1.494228e-06)	(4.129064e-07 1.044668e-03 -5.923388e-08)	(2.024590e-07 1.424270e-03 1.553462e-06)
0.05          	(6.827516e-07 2.222871e-03 6.548400e-07)	(4.928736e-07 8.720475e-04 -6.372358e-08)	(1.898780e-07 1.350823e-03 7.185636e-07)
0.055         	(6.972445e-07 2.117146e-03 -7.419431e-08)	(5.228025e-07 8.308014e-04 -7.139588e-08)	(1.744420e-07 1.286345e-03 -2.798424e-09)
0.06          	(6.884629e-07 2.053823e-03 -6.646778e-07)	(5.336025e-07 8.239497e-04 -7.982521e-08)	(1.548604e-07 1.229873e-03 -5.848526e-07)
0.065         	(6.786818e-07 1.992477e-03 -1.120317e-06)	(5.450373e-07 8.124297e-04 -8.808190e-08)	(1.336446e-07 1.180048e-03 -1.032235e-06)
0.07          	(6.566345e-07 1.926182e-03 -1.439174e-06)	(5.418937e-07 7.905267e-04 -9.457864e-08)	(1.147408e-07 1.135656e-03 -1.344596e-06)
0.075         	(6.516898e-07 1.865662e-03 -1.637418e-06)	(5.498523e-07 7.698362e-04 -1.017812e-07)	(1.018375e-07 1.095826e-03 -1.535637e-06)
0.08          	(6.400211e-07 1.811537e-03 -1.744402e-06)	(5.470311e-07 7.516815e-04 -1.081340e-07)	(9.299001e-08 1.059855e-03 -1.636268e-06)
0.085         	(5.877909e-07 1.762258e-03 -1.778188e-06)	(5.000529e-07 7.350826e-04 -1.102434e-07)	(8.773805e-08 1.027175e-03 -1.667945e-06)
0.09          	(5.335879e-07 1.716871e-03 -1.761586e-06)	(4.494324e-07 7.195371e-04 -1.112699e-07)	(8.415553e-08 9.973337e-04 -1.650316e-06)
0.095         	(4.929436e-07 1.675031e-03 -1.705953e-06)	(4.139589e-07 7.050598e-04 -1.131729e-07)	(7.898465e-08 9.699715e-04 -1.592780e-06)
0.1           	(3.975559e-07 1.636594e-03 -1.614632e-06)	(3.247729e-07 6.918334e-04 -1.084261e-07)	(7.278305e-08 9.447609e-04 -1.506206e-06)
0.105         	(3.864787e-07 1.601060e-03 -1.517805e-06)	(3.196494e-07 6.796325e-04 -1.126050e-07)	(6.682932e-08 9.214272e-04 -1.405200e-06)
0.11          	(3.803476e-07 1.568215e-03 -1.410435e-06)	(3.198487e-07 6.684604e-04 -1.173801e-07)	(6.049884e-08 8.997547e-04 -1.293055e-06)
0.115         	(2.317989e-07 1.537718e-03 -1.280897e-06)	(1.771255e-07 6.581575e-04 -1.028505e-07)	(5.467338e-08 8.795605e-04 -1.178046e-06)
0.12          	(1.853444e-07 1.509427e-03 -1.164123e-06)	(1.353564e-07 6.487459e-04 -1.006631e-07)	(4.998795e-08 8.606807e-04 -1.063460e-06)
0.125         	(1.779158e-07 1.482894e-03 -1.052159e-06)	(1.321158e-07 6.399363e-04 -1.036042e-07)	(4.580000e-08 8.429580e-04 -9.485552e-07)
0.13          	(1.576754e-07 1.457964e-03 -9.394279e-07)	(1.159297e-07 6.317377e-04 -1.044667e-07)	(4.174572e-08 8.262265e-04 -8.349612e-07)
0.135         	(1.333045e-07 1.434646e-03 -8.326333e-07)	(9.410539e-08 6.241011e-04 -1.041713e-07)	(3.919911e-08 8.105451e-04 -7.284620e-07)
0.14          	(9.704238e-08 1.412790e-03 -7.273167e-07)	(6.070378e-08 6.170329e-04 -1.015974e-07)	(3.633861e-08 7.957572e-04 -6.257194e-07)
0.145         	(7.250110e-08 1.392181e-03 -6.328170e-07)	(3.849367e-08 6.104964e-04 -1.005361e-07)	(3.400743e-08 7.816847e-04 -5.322810e-07)
0.15          	(6.767338e-08 1.372897e-03 -5.477396e-07)	(3.668113e-08 6.044869e-04 -1.029294e-07)	(3.099225e-08 7.684098e-04 -4.448102e-07)
0.155         	(4.863998e-08 1.354687e-03 -4.627538e-07)	(2.324017e-08 5.989573e-04 -1.030823e-07)	(2.539980e-08 7.557300e-04 -3.596715e-07)
0.16          	(1.002690e-08 1.337693e-03 -3.836779e-07)	(-1.077878e-08 5.939204e-04 -9.897607e-08)	(2.080569e-08 7.437729e-04 -2.847018e-07)
0.165         	(-1.434029e-08 1.321618e-03 -3.158051e-07)	(-3.374217e-08 5.892044e-04 -9.665596e-08)	(1.940187e-08 7.324134e-04 -2.191492e-07)
0.17          	(-8.127172e-09 1.306377e-03 -2.614678e-07)	(-2.699240e-08 5.848129e-04 -1.003431e-07)	(1.886523e-08 7.215638e-04 -1.611247e-07)
0.175         	(-2.232641e-08 1.291711e-03 -2.043827e-07)	(-4.080058e-08 5.806536e-04 -9.959158e-08)	(1.847417e-08 7.110578e-04 -1.047912e-07)
0.18          	(-1.446165e-08 1.277845e-03 -1.554988e-07)	(-3.165167e-08 5.768356e-04 -1.038866e-07)	(1.719003e-08 7.010096e-04 -5.161218e-08)
0.185         	(-1.971527e-08 1.264892e-03 -9.336266e-08)	(-3.747892e-08 5.734203e-04 -1.048326e-07)	(1.776365e-08 6.914717e-04 1.146996e-08)
0.19          	(-2.670624e-08 1.252456e-03 -1.866638e-08)	(-4.629288e-08 5.701505e-04 -1.049592e-07)	(1.958664e-08 6.823055e-04 8.629278e-08)
0.195         	(-2.865888e-08 1.240685e-03 1.757114e-08)	(-5.186869e-08 5.671675e-04 -1.057934e-07)	(2.320982e-08 6.735171e-04 1.233645e-07)
0.2           	(-2.364231e-08 1.229503e-03 4.945874e-08)	(-4.668587e-08 5.644249e-04 -1.093271e-07)	(2.304356e-08 6.650782e-04 1.587858e-07)
0.205         	(-2.947458e-08 1.218711e-03 7.434068e-08)	(-5.141213e-08 5.618256e-04 -1.103203e-07)	(2.193754e-08 6.568856e-04 1.846610e-07)
0.21          	(-3.507369e-08 1.208317e-03 1.157670e-07)	(-5.809477e-08 5.594200e-04 -1.107273e-07)	(2.302107e-08 6.488969e-04 2.264943e-07)
0.215         	(-3.096395e-08 1.198330e-03 1.175130e-07)	(-5.454081e-08 5.571857e-04 -1.139046e-07)	(2.357686e-08 6.411438e-04 2.314176e-07)
0.22          	(-1.748441e-08 1.188977e-03 1.311336e-07)	(-4.016642e-08 5.552439e-04 -1.202873e-07)	(2.268202e-08 6.337330e-04 2.514209e-07)
0.225         	(-9.103861e-08 1.180187e-03 1.708351e-07)	(-1.136022e-07 5.534964e-04 -1.010646e-07)	(2.256357e-08 6.266906e-04 2.718997e-07)
0.23          	(-1.415370e-08 1.171814e-03 1.604149e-07)	(-3.702100e-08 5.519056e-04 -1.260433e-07)	(2.286730e-08 6.199083e-04 2.864582e-07)
0.235         	(-1.918698e-08 1.163780e-03 1.747192e-07)	(-4.196785e-08 5.504374e-04 -1.269660e-07)	(2.278087e-08 6.133427e-04 3.016852e-07)
0.24          	(-2.288982e-08 1.156097e-03 1.893457e-07)	(-4.280041e-08 5.491113e-04 -1.291400e-07)	(1.991059e-08 6.069855e-04 3.184857e-07)
0.245         	(-2.496342e-08 1.148704e-03 1.947094e-07)	(-4.594786e-08 5.479450e-04 -1.305797e-07)	(2.098444e-08 6.007588e-04 3.252891e-07)
0.25          	(-1.838186e-08 1.141577e-03 2.139962e-07)	(-4.035660e-08 5.468853e-04 -1.348921e-07)	(2.197475e-08 5.946914e-04 3.488883e-07)
0.255         	(-6.142191e-09 1.134824e-03 2.327388e-07)	(-2.606939e-08 5.459576e-04 -1.422702e-07)	(1.992720e-08 5.888667e-04 3.750090e-07)
0.26          	(-2.129071e-08 1.128465e-03 2.581882e-07)	(-3.670719e-08 5.452080e-04 -1.412514e-07)	(1.541649e-08 5.832572e-04 3.994396e-07)
0.265         	(-3.352521e-08 1.122277e-03 2.607541e-07)	(-4.414422e-08 5.445137e-04 -1.412153e-07)	(1.061900e-08 5.777636e-04 4.019694e-07)
0.27          	(-3.411384e-08 1.116337e-03 2.689974e-07)	(-4.270198e-08 5.439261e-04 -1.443125e-07)	(8.588146e-09 5.724107e-04 4.133099e-07)
0.275         	(-2.930962e-08 1.110642e-03 2.761180e-07)	(-3.920117e-08 5.434438e-04 -1.482216e-07)	(9.891559e-09 5.671985e-04 4.243397e-07)
0.28          	(-2.477663e-08 1.105288e-03 2.805053e-07)	(-3.370520e-08 5.431043e-04 -1.529805e-07)	(8.928566e-09 5.621836e-04 4.334858e-07)
0.285         	(-2.343760e-08 1.100144e-03 2.671504e-07)	(-3.702695e-08 5.428458e-04 -1.544463e-07)	(1.358935e-08 5.572980e-04 4.215967e-07)
0.29          	(-3.329381e-08 1.095213e-03 3.116488e-07)	(-3.471185e-08 5.426943e-04 -1.581167e-07)	(1.418045e-09 5.525190e-04 4.697655e-07)
0.295         	(-2.406224e-08 1.090517e-03 3.039921e-07)	(-2.875270e-08 5.426225e-04 -1.633085e-07)	(4.690464e-09 5.478942e-04 4.673006e-07)
0.3           	(-2.076784e-08 1.086049e-03 3.018991e-07)	(-2.614244e-08 5.426632e-04 -1.672653e-07)	(5.374593e-09 5.433859e-04 4.691644e-07)
0.305         	(-1.853285e-08 1.081758e-03 2.994827e-07)	(-2.300110e-08 5.428012e-04 -1.715220e-07)	(4.468244e-09 5.389566e-04 4.710048e-07)
0.31          	(-2.533276e-08 1.077631e-03 3.014335e-07)	(-3.117750e-08 5.430161e-04 -1.710503e-07)	(5.844735e-09 5.346149e-04 4.724838e-07)
0.315         	(1.143469e-09 1.073722e-03 2.896937e-07)	(-4.114450e-09 5.433186e-04 -1.857344e-07)	(5.257919e-09 5.304029e-04 4.754281e-07)
0.32          	(-6.465773e-08 1.070013e-03 3.184501e-07)	(-6.920961e-08 5.437075e-04 -1.602918e-07)	(4.551883e-09 5.263056e-04 4.787419e-07)
0.325         	(-3.553772e-08 1.066469e-03 3.180520e-07)	(-3.610766e-08 5.441872e-04 -1.778888e-07)	(5.699405e-10 5.222816e-04 4.959408e-07)
0.33          	(5.709169e-09 1.062963e-03 2.515021e-07)	(-4.325265e-09 5.446261e-04 -1.953996e-07)	(1.003443e-08 5.183365e-04 4.469017e-07)
0.335         	(-1.668064e-08 1.059651e-03 2.649600e-07)	(-2.746923e-08 5.451863e-04 -1.879788e-07)	(1.078860e-08 5.144651e-04 4.529388e-07)
0.34          	(4.249545e-08 1.056568e-03 2.389386e-07)	(3.140780e-08 5.458840e-04 -2.189688e-07)	(1.108764e-08 5.106840e-04 4.579074e-07)
0.345         	(5.457147e-09 1.053631e-03 2.436910e-07)	(-8.484254e-09 5.466655e-04 -2.035356e-07)	(1.394140e-08 5.069652e-04 4.472266e-07)
0.35          	(1.727479e-08 1.050823e-03 2.306592e-07)	(1.632824e-09 5.474749e-04 -2.118935e-07)	(1.564197e-08 5.033478e-04 4.425527e-07)
0.355         	(4.102808e-08 1.048094e-03 2.164144e-07)	(2.504229e-08 5.482981e-04 -2.270248e-07)	(1.598579e-08 4.997956e-04 4.434392e-07)
0.36          	(1.634390e-08 1.045502e-03 2.132428e-07)	(1.408870e-09 5.491980e-04 -2.188746e-07)	(1.493503e-08 4.963043e-04 4.321173e-07)
0.365         	(2.901369e-08 1.043100e-03 1.949159e-07)	(1.099225e-08 5.501857e-04 -2.274011e-07)	(1.802145e-08 4.929143e-04 4.223170e-07)
0.37          	(2.106021e-08 1.040765e-03 1.934318e-07)	(-3.167135e-10 5.511762e-04 -2.252391e-07)	(2.137692e-08 4.895887e-04 4.186709e-07)
0.375         	(6.611423e-08 1.038554e-03 1.405236e-07)	(3.914354e-08 5.522058e-04 -2.497320e-07)	(2.697070e-08 4.863484e-04 3.902556e-07)
0.38          	(5.656786e-08 1.036426e-03 1.350329e-07)	(2.544522e-08 5.532847e-04 -2.464101e-07)	(3.112264e-08 4.831414e-04 3.814431e-07)
0.385         	(6.644625e-08 1.034403e-03 9.526354e-08)	(2.433726e-08 5.544261e-04 -2.497647e-07)	(4.210899e-08 4.799770e-04 3.450282e-07)
0.39          	(7.109032e-08 1.032504e-03 7.890136e-08)	(1.928133e-08 5.556210e-04 -2.509653e-07)	(5.180899e-08 4.768826e-04 3.298666e-07)
0.395         	(9.157311e-08 1.030746e-03 3.743326e-08)	(3.122933e-08 5.568506e-04 -2.616477e-07)	(6.034378e-08 4.738952e-04 2.990809e-07)
0.4           	(1.032065e-07 1.029088e-03 3.491814e-09)	(3.422892e-08 5.581217e-04 -2.674794e-07)	(6.897754e-08 4.709665e-04 2.709713e-07)
0.405         	(1.045392e-07 1.027477e-03 1.116876e-08)	(4.056741e-08 5.593921e-04 -2.753083e-07)	(6.397175e-08 4.680853e-04 2.864770e-07)
0.41          	(7.879123e-08 1.025937e-03 -4.300016e-08)	(1.437800e-08 5.606815e-04 -2.642597e-07)	(6.441323e-08 4.652555e-04 2.212596e-07)
0.415         	(1.127241e-07 1.024519e-03 -1.042012e-08)	(5.712917e-08 5.620291e-04 -2.936965e-07)	(5.559497e-08 4.624897e-04 2.832764e-07)
0.42          	(1.018347e-07 1.023139e-03 -3.498979e-08)	(4.253909e-08 5.633745e-04 -2.894015e-07)	(5.929557e-08 4.597643e-04 2.544117e-07)
0.425         	(1.233077e-07 1.021950e-03 -1.304271e-07)	(5.827777e-08 5.648576e-04 -3.034297e-07)	(6.502997e-08 4.570922e-04 1.730026e-07)
0.43          	(1.326508e-07 1.020801e-03 -1.070905e-07)	(7.501314e-08 5.662956e-04 -3.183393e-07)	(5.763763e-08 4.545050e-04 2.112487e-07)
0.435         	(1.037300e-07 1.019748e-03 -7.398653e-08)	(4.676289e-08 5.677477e-04 -3.054202e-07)	(5.696712e-08 4.520003e-04 2.314337e-07)
0.44          	(1.273452e-07 1.018779e-03 -9.370590e-08)	(6.774385e-08 5.692343e-04 -3.232800e-07)	(5.960130e-08 4.495446e-04 2.295741e-07)
0.445         	(1.196859e-07 1.017891e-03 -9.285880e-08)	(5.800472e-08 5.707580e-04 -3.218124e-07)	(6.168113e-08 4.471335e-04 2.289536e-07)
0.45          	(1.518824e-07 1.017033e-03 -1.865003e-07)	(8.395133e-08 5.722928e-04 -3.434229e-07)	(6.793107e-08 4.447400e-04 1.569226e-07)
0.455         	(1.540566e-07 1.016207e-03 -2.215635e-07)	(9.243769e-08 5.738125e-04 -3.539895e-07)	(6.161891e-08 4.423950e-04 1.324260e-07)
0.46          	(1.432849e-07 1.015460e-03 -1.639267e-07)	(9.456186e-08 5.753294e-04 -3.604828e-07)	(4.872307e-08 4.401310e-04 1.965561e-07)
0.465         	(1.383828e-07 1.014779e-03 -1.233553e-07)	(1.007208e-07 5.768820e-04 -3.697845e-07)	(3.766200e-08 4.378968e-04 2.464293e-07)
0.47          	(1.355878e-07 1.014220e-03 -1.010007e-07)	(1.059130e-07 5.785124e-04 -3.786016e-07)	(2.967480e-08 4.357074e-04 2.776009e-07)
0.475         	(1.327071e-07 1.013733e-03 -9.688651e-08)	(1.074872e-07 5.801959e-04 -3.850641e-07)	(2.521987e-08 4.335369e-04 2.881776e-07)
0.48          	(1.448302e-07 1.013330e-03 -1.334317e-07)	(1.174101e-07 5.819101e-04 -3.974487e-07)	(2.742011e-08 4.314202e-04 2.640170e-07)
0.485         	(1.567810e-07 1.013099e-03 -1.673040e-07)	(1.279767e-07 5.837437e-04 -4.105569e-07)	(2.880428e-08 4.293553e-04 2.432529e-07)
0.49          	(1.507478e-07 1.012700e-03 -1.873829e-07)	(1.198743e-07 5.853775e-04 -4.103883e-07)	(3.087352e-08 4.273222e-04 2.230054e-07)
0.495         	(1.830838e-07 1.012332e-03 -2.259989e-07)	(1.497343e-07 5.870075e-04 -4.376440e-07)	(3.334948e-08 4.253243e-04 2.116452e-07)
0.5           	(1.818907e-07 1.012073e-03 -2.434121e-07)	(1.437613e-07 5.887337e-04 -4.392083e-07)	(3.812940e-08 4.233395e-04 1.957962e-07)
