# Moment      
# CofR        : (0.000000e+00 0.000000e+00 0.000000e+00)
#
# Time        	(total_x total_y total_z)	(pressure_x pressure_y pressure_z)	(viscous_x viscous_y viscous_z)
0             	(-1.401769e-04 1.851386e-02 -3.157505e-04)	(0.000000e+00 0.000000e+00 0.000000e+00)	(-1.401769e-04 1.851386e-02 -3.157505e-04)
