/*--------------------------------*- C++ -*----------------------------------*\
| =========                 |                                                 |
| \\      /  F ield         | OpenFOAM: The Open Source CFD Toolbox           |
|  \\    /   O peration     | Version:  5.0                                   |
|   \\  /    A nd           | Web:      www.OpenFOAM.org                      |
|    \\/     M anipulation  |                                                 |
\*---------------------------------------------------------------------------*/
FoamFile
{
    version     2.0;
    format      ascii;
    class       volVectorField;
    location    "0";
    object      Ulift0;
}
// * * * * * * * * * * * * * * * * * * * * * * * * * * * * * * * * * * * * * //

dimensions      [0 1 -1 0 0 0 0];

internalField   nonuniform List<vector> 
12225
(
(1.00382 -0.000769121 0)
(1.01149 -0.000809354 0)
(1.01942 -0.000888628 0)
(1.02792 -0.00100903 0)
(1.03731 -0.00117584 0)
(1.04793 -0.00139801 0)
(1.06015 -0.0016893 0)
(1.07445 -0.00207039 0)
(1.09139 -0.00257257 0)
(1.11176 -0.0032444 0)
(1.13667 -0.00416419 0)
(1.16775 -0.00546506 0)
(1.20756 -0.00738963 0)
(1.26051 -0.0104235 0)
(1.33494 -0.015675 0)
(1.4495 -0.0262114 0)
(1.65802 -0.0533501 0)
(2.18956 -0.158572 0)
(1.00381 -0.00236072 0)
(1.01147 -0.00248412 0)
(1.01937 -0.00272727 0)
(1.02785 -0.00309652 0)
(1.03721 -0.00360798 0)
(1.04779 -0.00428899 0)
(1.05997 -0.00518155 0)
(1.0742 -0.00634869 0)
(1.09105 -0.00788561 0)
(1.11128 -0.00993974 0)
(1.13597 -0.012748 0)
(1.16669 -0.0167113 0)
(1.20587 -0.0225542 0)
(1.25756 -0.0317083 0)
(1.32907 -0.0473591 0)
(1.43488 -0.0778565 0)
(1.60435 -0.150463 0)
(1.85849 -0.381293 0)
(1.00379 -0.00406031 0)
(1.01141 -0.00427226 0)
(1.01927 -0.00468979 0)
(1.0277 -0.00532369 0)
(1.037 -0.00620136 0)
(1.0475 -0.00736931 0)
(1.05958 -0.00889886 0)
(1.07366 -0.0108968 0)
(1.0903 -0.0135238 0)
(1.11022 -0.0170276 0)
(1.13444 -0.0218032 0)
(1.16438 -0.0285121 0)
(1.20219 -0.0383308 0)
(1.25125 -0.0535208 0)
(1.31697 -0.0788762 0)
(1.40769 -0.12583 0)
(1.53019 -0.225174 0)
(1.64133 -0.46464 0)
(1.00376 -0.00586968 0)
(1.01131 -0.00617536 0)
(1.0191 -0.00677737 0)
(1.02745 -0.00769092 0)
(1.03665 -0.00895493 0)
(1.04702 -0.0106354 0)
(1.05892 -0.0128333 0)
(1.07276 -0.0156991 0)
(1.08906 -0.0194582 0)
(1.10849 -0.0244549 0)
(1.13193 -0.0312321 0)
(1.16063 -0.0406837 0)
(1.19631 -0.0543588 0)
(1.24141 -0.0751154 0)
(1.29908 -0.108605 0)
(1.37171 -0.166763 0)
(1.45243 -0.275398 0)
(1.49065 -0.482718 0)
(1.00371 -0.00778878 0)
(1.01117 -0.00819301 0)
(1.01886 -0.00898877 0)
(1.02708 -0.0101955 0)
(1.03613 -0.0118635 0)
(1.04631 -0.014078 0)
(1.05796 -0.0169689 0)
(1.07145 -0.0207287 0)
(1.08726 -0.0256432 0)
(1.10597 -0.0321438 0)
(1.12833 -0.0409 0)
(1.15531 -0.0529873 0)
(1.18812 -0.0702049 0)
(1.22816 -0.0956947 0)
(1.27636 -0.13515 0)
(1.3308 -0.19899 0)
(1.37893 -0.304829 0)
(1.38066 -0.471941 0)
(1.00365 -0.0098151 0)
(1.01098 -0.0103221 0)
(1.01852 -0.0113195 0)
(1.02658 -0.0128307 0)
(1.03542 -0.0149167 0)
(1.04534 -0.0176809 0)
(1.05664 -0.0212802 0)
(1.06967 -0.0259451 0)
(1.08482 -0.032014 0)
(1.10258 -0.0399896 0)
(1.12353 -0.0506351 0)
(1.14833 -0.065138 0)
(1.17764 -0.0853967 0)
(1.21185 -0.114508 0)
(1.25013 -0.157527 0)
(1.2881 -0.222289 0)
(1.31274 -0.318607 0)
(1.29692 -0.449497 0)
(1.00356 -0.011943 0)
(1.01072 -0.012556 0)
(1.01808 -0.0137612 0)
(1.02591 -0.0155849 0)
(1.03449 -0.0180978 0)
(1.04407 -0.0214194 0)
(1.05493 -0.0257302 0)
(1.06735 -0.0312924 0)
(1.08168 -0.0384852 0)
(1.09826 -0.0478606 0)
(1.11748 -0.0602329 0)
(1.13969 -0.0768208 0)
(1.16502 -0.0994656 0)
(1.19303 -0.130935 0)
(1.22173 -0.175224 0)
(1.24589 -0.23739 0)
(1.25454 -0.321432 0)
(1.23099 -0.42316 0)
(1.00346 -0.0141626 0)
(1.01039 -0.0148837 0)
(1.01751 -0.0163001 0)
(1.02507 -0.01844 0)
(1.03331 -0.021382 0)
(1.04247 -0.0252587 0)
(1.05277 -0.030269 0)
(1.06445 -0.0366981 0)
(1.07777 -0.0449505 0)
(1.09294 -0.0556004 0)
(1.11016 -0.0694657 0)
(1.12946 -0.0877129 0)
(1.15054 -0.11199 0)
(1.17235 -0.144542 0)
(1.19238 -0.188159 0)
(1.20562 -0.245503 0)
(1.20389 -0.316962 0)
(1.17765 -0.396261 0)
(1.00332 -0.0164594 0)
(1.00998 -0.0172889 0)
(1.0168 -0.0189165 0)
(1.02402 -0.0213708 0)
(1.03185 -0.0247357 0)
(1.04049 -0.0291529 0)
(1.05012 -0.0348329 0)
(1.06092 -0.0420726 0)
(1.07305 -0.051284 0)
(1.08661 -0.0630334 0)
(1.1016 -0.0780942 0)
(1.11779 -0.0975075 0)
(1.13455 -0.122629 0)
(1.15051 -0.155098 0)
(1.1631 -0.196576 0)
(1.16811 -0.247967 0)
(1.15995 -0.307808 0)
(1.13357 -0.370117 0)
(1.00316 -0.0188123 0)
(1.00949 -0.0197487 0)
(1.01594 -0.0215833 0)
(1.02275 -0.0243435 0)
(1.03008 -0.028115 0)
(1.0381 -0.0330437 0)
(1.04695 -0.0393434 0)
(1.05674 -0.0473103 0)
(1.06753 -0.0573438 0)
(1.0793 -0.0699728 0)
(1.09189 -0.0858836 0)
(1.10489 -0.105938 0)
(1.11747 -0.131149 0)
(1.12816 -0.162563 0)
(1.13464 -0.200926 0)
(1.13371 -0.246029 0)
(1.1218 -0.295731 0)
(1.09649 -0.345167 0)
(1.00296 -0.0211935 0)
(1.00889 -0.0222325 0)
(1.01492 -0.0242649 0)
(1.02123 -0.0273142 0)
(1.02798 -0.0314647 0)
(1.03528 -0.0368599 0)
(1.04323 -0.043708 0)
(1.05188 -0.0522911 0)
(1.06119 -0.0629767 0)
(1.07106 -0.0762299 0)
(1.08119 -0.0926181 0)
(1.09105 -0.112793 0)
(1.09973 -0.137426 0)
(1.10586 -0.167048 0)
(1.10753 -0.201757 0)
(1.10247 -0.240756 0)
(1.08857 -0.281879 0)
(1.06487 -0.321478 0)
(1.00275 -0.0233845 0)
(1.00824 -0.0245123 0)
(1.01381 -0.0267147 0)
(1.0196 -0.0300096 0)
(1.02573 -0.0344758 0)
(1.03229 -0.0402497 0)
(1.03932 -0.0475263 0)
(1.04682 -0.0565633 0)
(1.05469 -0.0676846 0)
(1.06275 -0.0812794 0)
(1.07063 -0.0977892 0)
(1.07774 -0.117668 0)
(1.08323 -0.141299 0)
(1.08588 -0.168841 0)
(1.08419 -0.2 0)
(1.07661 -0.233757 0)
(1.06193 -0.268193 0)
(1.03986 -0.300631 0)
(1.00251 -0.0254919 0)
(1.00752 -0.0266981 0)
(1.01256 -0.0290487 0)
(1.01777 -0.0325541 0)
(1.02323 -0.0372838 0)
(1.02898 -0.043361 0)
(1.03503 -0.0509598 0)
(1.04132 -0.060304 0)
(1.04772 -0.0716628 0)
(1.05397 -0.0853401 0)
(1.05968 -0.101649 0)
(1.06426 -0.120866 0)
(1.06693 -0.14314 0)
(1.0667 -0.168378 0)
(1.06246 -0.196082 0)
(1.0532 -0.225222 0)
(1.0383 -0.254209 0)
(1.01785 -0.281106 0)
(1.0022 -0.0277869 0)
(1.00657 -0.0290687 0)
(1.01095 -0.0315605 0)
(1.01542 -0.035261 0)
(1.02002 -0.040225 0)
(1.02477 -0.0465545 0)
(1.02963 -0.054392 0)
(1.03449 -0.0639138 0)
(1.03917 -0.0753189 0)
(1.0434 -0.0888108 0)
(1.04678 -0.104567 0)
(1.04878 -0.122687 0)
(1.04873 -0.143131 0)
(1.04591 -0.165625 0)
(1.03958 -0.189592 0)
(1.02918 -0.214105 0)
(1.01451 -0.237953 0)
(0.995819 -0.259815 0)
(1.0018 -0.0301524 0)
(1.00536 -0.0314975 0)
(1.00888 -0.0341039 0)
(1.01242 -0.0379548 0)
(1.01596 -0.0430832 0)
(1.01949 -0.0495609 0)
(1.02293 -0.0574877 0)
(1.02614 -0.0669801 0)
(1.02893 -0.078156 0)
(1.031 -0.0911127 0)
(1.032 -0.105897 0)
(1.0315 -0.122467 0)
(1.029 -0.140644 0)
(1.02402 -0.160072 0)
(1.01615 -0.180191 0)
(1.00516 -0.200258 0)
(0.991073 -0.219414 0)
(0.974202 -0.236814 0)
(1.00129 -0.0323631 0)
(1.00382 -0.0337448 0)
(1.00628 -0.0364119 0)
(1.00866 -0.0403274 0)
(1.01093 -0.0454964 0)
(1.01303 -0.0519522 0)
(1.01485 -0.0597434 0)
(1.01624 -0.0689198 0)
(1.017 -0.0795165 0)
(1.01689 -0.0915337 0)
(1.01562 -0.104914 0)
(1.01286 -0.119517 0)
(1.00831 -0.135099 0)
(1.00171 -0.1513 0)
(0.992869 -0.167653 0)
(0.981763 -0.183613 0)
(0.968523 -0.198616 0)
(0.953444 -0.212156 0)
(1.00066 -0.0340335 0)
(1.00192 -0.0354069 0)
(1.00308 -0.0380455 0)
(1.00409 -0.0418905 0)
(1.00488 -0.046915 0)
(1.00536 -0.0531098 0)
(1.00542 -0.0604702 0)
(1.0049 -0.0689825 0)
(1.00366 -0.0786106 0)
(1.00148 -0.0892814 0)
(0.998173 -0.100872 0)
(0.993548 -0.113199 0)
(0.987443 -0.126016 0)
(0.979753 -0.139016 0)
(0.970451 -0.15185 0)
(0.959601 -0.164153 0)
(0.947363 -0.175584 0)
(0.933976 -0.185854 0)
(0.999907 -0.0345625 0)
(0.999679 -0.0358624 0)
(0.999328 -0.0383469 0)
(0.998771 -0.0419374 0)
(0.997918 -0.0465769 0)
(0.996671 -0.0522176 0)
(0.994921 -0.0588098 0)
(0.992547 -0.0662911 0)
(0.989426 -0.0745778 0)
(0.985435 -0.0835579 0)
(0.980463 -0.0930857 0)
(0.974423 -0.102982 0)
(0.967263 -0.113038 0)
(0.958978 -0.123025 0)
(0.949611 -0.132707 0)
(0.939261 -0.141861 0)
(0.928071 -0.150292 0)
(0.916219 -0.157848 0)
(0.999068 -0.0330998 0)
(0.997176 -0.0342447 0)
(0.99517 -0.0364213 0)
(0.992942 -0.0395398 0)
(0.990391 -0.0435236 0)
(0.987424 -0.0482999 0)
(0.983949 -0.0537922 0)
(0.979884 -0.0599137 0)
(0.975154 -0.0665639 0)
(0.969698 -0.0736254 0)
(0.963476 -0.0809654 0)
(0.956472 -0.0884379 0)
(0.948697 -0.0958897 0)
(0.940191 -0.103168 0)
(0.931024 -0.110127 0)
(0.921289 -0.116641 0)
(0.9111 -0.122606 0)
(0.90058 -0.127949 0)
(0.998398 -0.0300468 0)
(0.995183 -0.0310092 0)
(0.991882 -0.0328303 0)
(0.988378 -0.0354211 0)
(0.984573 -0.0386999 0)
(0.980381 -0.0425869 0)
(0.975732 -0.0469991 0)
(0.970568 -0.0518478 0)
(0.964847 -0.057037 0)
(0.958545 -0.0624636 0)
(0.951654 -0.0680195 0)
(0.94419 -0.0735947 0)
(0.936184 -0.0790816 0)
(0.927688 -0.0843799 0)
(0.918772 -0.0894007 0)
(0.909513 -0.0940703 0)
(0.9 -0.0983327 0)
(0.890321 -0.10215 0)
(0.997953 -0.0264525 0)
(0.993861 -0.027256 0)
(0.98971 -0.0287722 0)
(0.985381 -0.0309198 0)
(0.980779 -0.0336221 0)
(0.975828 -0.0368039 0)
(0.970469 -0.0403878 0)
(0.96466 -0.0442936 0)
(0.958377 -0.0484376 0)
(0.951613 -0.0527336 0)
(0.944377 -0.0570947 0)
(0.936696 -0.0614364 0)
(0.928608 -0.0656792 0)
(0.920167 -0.0697514 0)
(0.911436 -0.0735921 0)
(0.902484 -0.0771524 0)
(0.893382 -0.0803966 0)
(0.884203 -0.0833017 0)
(0.997631 -0.0226531 0)
(0.992909 -0.0233142 0)
(0.988152 -0.0245592 0)
(0.98324 -0.0263174 0)
(0.978082 -0.0285208 0)
(0.972609 -0.0311029 0)
(0.966772 -0.0339961 0)
(0.960537 -0.0371313 0)
(0.953893 -0.0404384 0)
(0.946841 -0.0438469 0)
(0.939399 -0.0472879 0)
(0.931598 -0.050696 0)
(0.923479 -0.0540112 0)
(0.915096 -0.057181 0)
(0.906505 -0.0601617 0)
(0.897767 -0.0629193 0)
(0.888944 -0.0654294 0)
(0.880098 -0.0676775 0)
(0.997403 -0.0189271 0)
(0.992234 -0.0194634 0)
(0.987047 -0.0204721 0)
(0.981726 -0.0218934 0)
(0.976183 -0.0236699 0)
(0.970352 -0.0257448 0)
(0.964189 -0.0280612 0)
(0.957671 -0.0305618 0)
(0.950789 -0.033189 0)
(0.943552 -0.0358864 0)
(0.935982 -0.0385994 0)
(0.928112 -0.0412772 0)
(0.919984 -0.0438744 0)
(0.911649 -0.0463514 0)
(0.903159 -0.0486763 0)
(0.89457 -0.0508244 0)
(0.885938 -0.0527786 0)
(0.877314 -0.054529 0)
(0.997243 -0.0154259 0)
(0.991761 -0.0158539 0)
(0.986275 -0.016658 0)
(0.98067 -0.0177894 0)
(0.974861 -0.0192007 0)
(0.968785 -0.0208456 0)
(0.962402 -0.0226773 0)
(0.955693 -0.0246495 0)
(0.948655 -0.0267161 0)
(0.941297 -0.0288322 0)
(0.933646 -0.0309554 0)
(0.925735 -0.0330463 0)
(0.917606 -0.0350702 0)
(0.909306 -0.0369974 0)
(0.900888 -0.0388039 0)
(0.892402 -0.0404717 0)
(0.883899 -0.0419884 0)
(0.875426 -0.0433471 0)
(0.997133 -0.012222 0)
(0.991436 -0.0125561 0)
(0.985745 -0.0131834 0)
(0.979946 -0.0140652 0)
(0.973956 -0.0151637 0)
(0.967714 -0.016442 0)
(0.961184 -0.0178632 0)
(0.954348 -0.0193906 0)
(0.947205 -0.0209883 0)
(0.93977 -0.0226215 0)
(0.932066 -0.0242574 0)
(0.924129 -0.025866 0)
(0.916002 -0.027421 0)
(0.907729 -0.0289001 0)
(0.89936 -0.0302854 0)
(0.890944 -0.0315637 0)
(0.882527 -0.032726 0)
(0.874156 -0.0337673 0)
(0.99706 -0.00934045 0)
(0.991218 -0.00959321 0)
(0.98539 -0.0100676 0)
(0.979463 -0.010734 0)
(0.973352 -0.0115635 0)
(0.967 -0.0125277 0)
(0.960373 -0.0135986 0)
(0.953454 -0.0147482 0)
(0.946243 -0.0159492 0)
(0.938756 -0.0171755 0)
(0.931019 -0.0184025 0)
(0.923067 -0.0196078 0)
(0.914941 -0.020772 0)
(0.906687 -0.0218786 0)
(0.898351 -0.0229145 0)
(0.889981 -0.02387 0)
(0.881622 -0.0247387 0)
(0.873317 -0.0255171 0)
(0.997012 -0.00677879 0)
(0.991078 -0.00696104 0)
(0.985162 -0.00730299 0)
(0.979151 -0.0077831 0)
(0.972963 -0.00838041 0)
(0.966542 -0.0090743 0)
(0.959852 -0.00984437 0)
(0.95288 -0.0106704 0)
(0.945626 -0.0115328 0)
(0.938107 -0.0124127 0)
(0.93035 -0.0132924 0)
(0.922388 -0.0141561 0)
(0.914264 -0.0149899 0)
(0.906021 -0.015782 0)
(0.897707 -0.0165233 0)
(0.889367 -0.017207 0)
(0.881044 -0.0178285 0)
(0.872782 -0.0183854 0)
(0.996984 -0.0045196 0)
(0.990993 -0.00464062 0)
(0.985024 -0.00486765 0)
(0.978963 -0.00518633 0)
(0.972729 -0.00558268 0)
(0.966265 -0.00604293 0)
(0.959538 -0.00655348 0)
(0.952533 -0.00710091 0)
(0.945254 -0.00767215 0)
(0.937716 -0.00825471 0)
(0.929946 -0.00883696 0)
(0.921979 -0.00940836 0)
(0.913856 -0.00995977 0)
(0.905621 -0.0104835 0)
(0.897319 -0.0109736 0)
(0.888997 -0.0114255 0)
(0.880697 -0.0118363 0)
(0.872459 -0.0122044 0)
(0.996968 -0.00253807 0)
(0.990948 -0.00260589 0)
(0.984949 -0.00273309 0)
(0.978861 -0.00291162 0)
(0.972602 -0.00313361 0)
(0.966115 -0.00339135 0)
(0.959368 -0.00367718 0)
(0.952347 -0.00398359 0)
(0.945054 -0.00430324 0)
(0.937506 -0.00462915 0)
(0.929729 -0.00495481 0)
(0.921759 -0.00527434 0)
(0.913636 -0.00558264 0)
(0.905405 -0.00587544 0)
(0.897111 -0.00614936 0)
(0.888798 -0.00640194 0)
(0.88051 -0.00663153 0)
(0.872286 -0.00683731 0)
(0.996962 -0.000806678 0)
(0.990929 -0.00082821 0)
(0.984919 -0.000868601 0)
(0.97882 -0.000925283 0)
(0.972551 -0.000995761 0)
(0.966055 -0.00107758 0)
(0.9593 -0.00116831 0)
(0.952272 -0.00126556 0)
(0.944973 -0.001367 0)
(0.937421 -0.00147042 0)
(0.929641 -0.00157374 0)
(0.92167 -0.00167512 0)
(0.913548 -0.00177292 0)
(0.905318 -0.0018658 0)
(0.897027 -0.00195269 0)
(0.888718 -0.00203281 0)
(0.880434 -0.00210564 0)
(0.872216 -0.00217092 0)
(0.00543871 -0.011625 1.57481e-22)
(0.0163592 -0.0116061 0)
(0.0273446 -0.0115731 0)
(0.038382 -0.0115259 0)
(0.0494575 -0.0114643 0)
(0.0605574 -0.0113885 0)
(0.0716673 -0.0112985 0)
(0.0827729 -0.0111947 0)
(0.0938597 -0.0110772 0)
(0.104913 -0.0109465 1.47055e-22)
(0.115919 -0.0108032 0)
(0.126863 -0.0106477 0)
(0.137732 -0.0104807 0)
(0.148511 -0.0103029 0)
(0.159188 -0.010115 0)
(0.16975 -0.00991788 0)
(0.180186 -0.00971233 0)
(0.190483 -0.00949924 0)
(0.200631 -0.00927947 1.23277e-22)
(0.210621 -0.00905392 0)
(0.220443 -0.00882348 0)
(0.230089 -0.00858903 -1.13555e-22)
(0.239551 -0.00835144 0)
(0.248822 -0.00811155 0)
(0.257897 -0.00787016 0)
(0.266771 -0.00762806 -1.00077e-22)
(0.275439 -0.00738598 0)
(0.283897 -0.00714462 0)
(0.292143 -0.00690462 0)
(0.300175 -0.00666658 0)
(0.307991 -0.00643105 0)
(0.31559 -0.00619854 -8.00995e-23)
(0.322973 -0.0059695 0)
(0.330139 -0.00574433 7.37637e-23)
(0.33709 -0.00552338 0)
(0.343827 -0.00530698 0)
(0.350351 -0.00509538 0)
(0.356666 -0.00488881 0)
(0.362773 -0.00468746 0)
(0.368676 -0.00449148 0)
(0.374378 -0.00430098 0)
(0.379882 -0.00411605 0)
(0.385191 -0.00393674 0)
(0.390311 -0.00376308 0)
(0.395244 -0.00359508 0)
(0.399996 -0.00343272 0)
(0.40457 -0.00327595 0)
(0.40897 -0.00312474 -7.45717e-23)
(0.413202 -0.00297901 0)
(0.41727 -0.00283868 -6.66126e-23)
(0.421177 -0.00270366 -6.2856e-23)
(0.424929 -0.00257384 5.92446e-23)
(0.42853 -0.00244912 5.57748e-23)
(0.431985 -0.00232939 -5.24439e-23)
(0.435298 -0.0022145 4.9248e-23)
(0.438474 -0.00210435 4.61836e-23)
(0.441516 -0.00199881 0)
(0.44443 -0.00189773 0)
(0.447219 -0.00180098 3.77444e-23)
(0.449888 -0.00170844 0)
(0.45244 -0.00161997 0)
(0.454881 -0.00153542 0)
(0.457213 -0.00145468 0)
(0.459441 -0.0013776 0)
(0.461568 -0.00130406 0)
(0.463599 -0.00123392 2.19686e-23)
(0.465536 -0.00116707 0)
(0.467384 -0.00110337 0)
(0.469145 -0.00104271 0)
(0.470823 -0.000984969 0)
(0.472422 -0.000930028 0)
(0.473943 -0.000877777 0)
(0.475392 -0.000828106 -1.06769e-23)
(0.47677 -0.000780908 0)
(0.47808 -0.00073608 0)
(0.479325 -0.000693523 6.93172e-24)
(0.480508 -0.000653138 5.80776e-24)
(0.481632 -0.000614832 0)
(0.482698 -0.000578514 0)
(0.48371 -0.000544096 0)
(0.48467 -0.000511493 0)
(0.48558 -0.000480624 0)
(0.486442 -0.000451409 0)
(0.487258 -0.000423773 0)
(0.488031 -0.000397642 -1.30359e-24)
(0.488763 -0.000372946 1.99121e-24)
(0.489454 -0.000349616 0)
(0.490108 -0.000327587 6.50791e-24)
(0.490726 -0.000306797 0)
(0.491309 -0.000287186 8.75736e-24)
(0.49186 -0.000268695 0)
(0.49238 -0.000251269 0)
(0.49287 -0.000234855 -1.16717e-23)
(0.493332 -0.000219402 0)
(0.493767 -0.00020486 1.33422e-23)
(0.494177 -0.000191183 0)
(0.494563 -0.000178325 1.48197e-23)
(0.494926 -0.000166245 0)
(0.495267 -0.000154901 0)
(0.495587 -0.000144253 0)
(0.495888 -0.000134265 -1.7274e-23)
(0.496171 -0.0001249 0)
(0.496436 -0.000116124 1.82844e-23)
(0.496684 -0.000107906 -1.87425e-23)
(0.496917 -0.000100212 0)
(0.497136 -9.30149e-05 0)
(0.49734 -8.62845e-05 0)
(0.497531 -7.99957e-05 -2.02973e-23)
(0.497709 -7.41213e-05 0)
(0.497876 -6.86387e-05 0)
(0.498032 -6.35234e-05 0)
(0.498178 -5.87548e-05 0)
(0.498314 -5.43109e-05 -2.17285e-23)
(0.49844 -5.01733e-05 2.1959e-23)
(0.498558 -4.6322e-05 -2.21736e-23)
(0.498668 -4.27403e-05 2.23733e-23)
(0.49877 -3.94106e-05 2.25586e-23)
(0.498865 -3.63178e-05 0)
(0.498954 -3.34462e-05 0)
(0.499036 -3.07823e-05 -2.30398e-23)
(0.499112 -2.8312e-05 0)
(0.499183 -2.60233e-05 0)
(0.499248 -2.39035e-05 0)
(0.499309 -2.19419e-05 0)
(0.499365 -2.01272e-05 0)
(0.499417 -1.845e-05 0)
(0.499465 -1.69003e-05 2.38136e-23)
(0.49951 -1.54698e-05 -2.38932e-23)
(0.499551 -1.41496e-05 0)
(0.499588 -1.29323e-05 0)
(0.499623 -1.18102e-05 0)
(0.499655 -1.07764e-05 0)
(0.499685 -9.82435e-06 0)
(0.499712 -8.94782e-06 0)
(0.499737 -8.14096e-06 0)
(0.49976 -7.3981e-06 0)
(0.499781 -6.71423e-06 0)
(0.4998 -6.08397e-06 4.88331e-23)
(0.499818 -5.50318e-06 0)
(0.499834 -4.96657e-06 0)
(0.499849 -4.47014e-06 0)
(0.499862 -4.00879e-06 0)
(0.499874 -3.57838e-06 0)
(0.499884 -3.17401e-06 0)
(0.499894 -2.79126e-06 0)
(0.499902 -2.42483e-06 4.92397e-23)
(0.49991 -2.0695e-06 4.92788e-23)
(0.499916 -1.71906e-06 0)
(0.499921 -1.36677e-06 0)
(0.499925 -1.00472e-06 4.93961e-23)
(0.499928 -6.23598e-07 -4.94374e-23)
(0.499929 -2.12405e-07 4.94822e-23)
(0.499929 2.42445e-07 -4.95317e-23)
(0.499927 7.57144e-07 -4.95871e-23)
(0.499923 1.35235e-06 0)
(0.499917 2.05296e-06 0)
(0.499908 2.89129e-06 0)
(0.499896 3.90681e-06 4.99256e-23)
(0.499879 5.15121e-06 0)
(0.499858 6.68851e-06 0)
(0.499829 8.603e-06 0)
(0.499792 1.10007e-05 0)
(0.499745 1.4022e-05 -5.10074e-23)
(0.499684 1.78463e-05 0)
(0.499605 2.27132e-05 -5.19357e-23)
(0.499504 2.89353e-05 5.26005e-23)
(0.499374 3.69352e-05 0)
(0.499207 4.72793e-05 0)
(0.49899 6.07511e-05 0)
(0.498707 7.84396e-05 0)
(0.498338 0.000101909 0)
(0.497851 0.000133457 0)
(0.497204 0.000176598 -6.83821e-23)
(0.496332 0.000236962 -7.48405e-23)
(0.495138 0.000324154 0)
(0.493461 0.000456005 0)
(0.491017 0.000669766 0)
(0.48723 0.00105783 0)
(0.480645 0.00191642 0)
(0.466052 0.00460856 0)
(0.00546819 -0.0349381 1.42016e-21)
(0.0164476 -0.0348809 0)
(0.0274919 -0.0347811 -9.41381e-22)
(0.0385874 -0.0346381 0)
(0.0497203 -0.0344519 0)
(0.0608762 -0.0342225 0)
(0.0720406 -0.0339503 0)
(0.0831986 -0.0336362 0)
(0.0943356 -0.033281 -8.97411e-22)
(0.105437 -0.032886 1.33054e-21)
(0.116487 -0.0324526 -8.73862e-22)
(0.127473 -0.0319827 8.6058e-22)
(0.13838 -0.0314782 0)
(0.149194 -0.0309411 0)
(0.159903 -0.0303738 0)
(0.170493 -0.0297788 0)
(0.180952 -0.0291585 0)
(0.19127 -0.0285157 0)
(0.201435 -0.0278529 3.74984e-22)
(0.211438 -0.027173 0)
(0.22127 -0.0264785 0)
(0.230922 -0.0257721 -1.03354e-21)
(0.240387 -0.0250565 0)
(0.249658 -0.0243343 0)
(0.258731 -0.0236077 0)
(0.267599 -0.0228792 -9.13651e-22)
(0.276259 -0.022151 0)
(0.284707 -0.0214252 0)
(0.292941 -0.0207036 0)
(0.300959 -0.0199881 5.26878e-22)
(0.30876 -0.0192804 0)
(0.316343 -0.0185819 -2.47916e-22)
(0.323707 -0.017894 0)
(0.330855 -0.0172179 6.79559e-22)
(0.337786 -0.0165545 0)
(0.344502 -0.015905 -4.14048e-22)
(0.351006 -0.01527 3.96514e-22)
(0.357299 -0.0146502 0)
(0.363385 -0.0140461 3.62728e-22)
(0.369266 -0.0134582 3.46503e-22)
(0.374946 -0.0128869 -3.30735e-22)
(0.380429 -0.0123323 0)
(0.385717 -0.0117947 0)
(0.390816 -0.0112741 5.72467e-22)
(0.395729 -0.0107704 0)
(0.40046 -0.0102837 0)
(0.405014 -0.00981388 0)
(0.409395 -0.0093607 -2.43587e-22)
(0.413608 -0.00892397 0)
(0.417657 -0.00850346 -2.20147e-22)
(0.421546 -0.00809888 -6.06382e-22)
(0.425281 -0.00770992 1.98449e-22)
(0.428865 -0.00733625 1.88232e-22)
(0.432304 -0.00697751 -1.78424e-22)
(0.435601 -0.00663334 1.69013e-22)
(0.438762 -0.00630336 -1.38267e-22)
(0.44179 -0.00598717 0)
(0.44469 -0.00568437 0)
(0.447466 -0.00539457 3.83273e-22)
(0.450122 -0.00511737 2.32839e-22)
(0.452662 -0.00485234 0)
(0.455091 -0.0045991 0)
(0.457412 -0.00435724 0)
(0.459629 -0.00412637 0)
(0.461746 -0.00390609 1.66025e-22)
(0.463767 -0.00369601 2.43136e-22)
(0.465695 -0.00349577 0)
(0.467534 -0.00330499 0)
(0.469287 -0.00312329 0)
(0.470957 -0.00295034 0)
(0.472548 -0.00278578 0)
(0.474062 -0.00262928 0)
(0.475504 -0.0024805 -5.54624e-23)
(0.476875 -0.00233913 0)
(0.478179 -0.00220486 0)
(0.479419 -0.00207739 1.09581e-22)
(0.480596 -0.00195643 4.11314e-23)
(0.481715 -0.0018417 -5.21366e-23)
(0.482776 -0.00173291 0)
(0.483783 -0.00162982 0)
(0.484739 -0.00153217 0)
(0.485644 -0.00143971 0)
(0.486502 -0.0013522 0)
(0.487315 -0.00126942 0)
(0.488084 -0.00119115 2.02031e-23)
(0.488812 -0.00111717 -1.81799e-23)
(0.489501 -0.00104729 0)
(0.490152 -0.000981308 -2.89282e-23)
(0.490767 -0.000919034 0)
(0.491348 -0.00086029 -2.23088e-23)
(0.491896 -0.000804903 0)
(0.492413 -0.000752705 0)
(0.492901 -0.000703537 -7.60692e-24)
(0.493361 -0.000657247 0)
(0.493794 -0.000613687 2.24403e-23)
(0.494202 -0.000572717 0)
(0.494586 -0.000534203 3.55629e-23)
(0.494947 -0.000498017 0)
(0.495287 -0.000464035 -4.77807e-23)
(0.495606 -0.00043214 0)
(0.495906 -0.000402219 -2.74901e-24)
(0.496187 -0.000374166 0)
(0.496451 -0.000347878 5.72177e-24)
(0.496699 -0.000323258 -7.06898e-24)
(0.49693 -0.000300211 0)
(0.497148 -0.00027865 0)
(0.497351 -0.000258489 0)
(0.497541 -0.000239649 -1.1643e-23)
(0.497719 -0.000222052 -7.44976e-23)
(0.497885 -0.000205628 0)
(0.498041 -0.000190304 7.80036e-23)
(0.498185 -0.000176019 -7.95811e-23)
(0.498321 -0.000162707 -9.69035e-23)
(0.498447 -0.000150311 1.65308e-23)
(0.498564 -0.000138774 6.65319e-23)
(0.498674 -0.000128044 1.77493e-23)
(0.498775 -0.000118069 -6.76862e-23)
(0.49887 -0.000108804 0)
(0.498958 -0.000100202 0)
(0.49904 -9.2221e-05 -1.97094e-23)
(0.499116 -8.48208e-05 0)
(0.499186 -7.79642e-05 0)
(0.499251 -7.16139e-05 0)
(0.499312 -6.57371e-05 9.17607e-23)
(0.499368 -6.03007e-05 0)
(0.499419 -5.5276e-05 0)
(0.499467 -5.06334e-05 2.1985e-23)
(0.499512 -4.63477e-05 -1.16122e-22)
(0.499552 -4.23927e-05 -9.43396e-23)
(0.49959 -3.87458e-05 -9.47424e-23)
(0.499625 -3.5384e-05 9.51138e-23)
(0.499657 -3.22871e-05 0)
(0.499686 -2.94348e-05 0)
(0.499713 -2.68089e-05 1.92122e-22)
(0.499738 -2.43916e-05 0)
(0.499761 -2.21662e-05 1.93147e-22)
(0.499782 -2.01174e-05 0)
(0.499801 -1.82296e-05 4.75163e-23)
(0.499819 -1.64895e-05 0)
(0.499835 -1.48822e-05 0)
(0.499849 -1.33948e-05 -1.95085e-22)
(0.499862 -1.2013e-05 0)
(0.499874 -1.07237e-05 0)
(0.499885 -9.51284e-06 0)
(0.499894 -8.36661e-06 0)
(0.499903 -7.2697e-06 2.45149e-22)
(0.49991 -6.20598e-06 4.88304e-23)
(0.499916 -5.15731e-06 0)
(0.499921 -4.10327e-06 0)
(0.499925 -3.02037e-06 4.91776e-23)
(0.499928 -1.88071e-06 -4.93012e-23)
(0.49993 -6.51472e-07 -1.48446e-22)
(0.499929 7.07834e-07 -4.95822e-23)
(0.499928 2.24578e-06 -2.48256e-22)
(0.499924 4.02368e-06 0)
(0.499918 6.11639e-06 0)
(0.499909 8.61968e-06 -1.99882e-22)
(0.499897 1.16523e-05 5.07655e-23)
(0.499881 1.53673e-05 0)
(0.499859 1.99573e-05 0)
(0.499831 2.5672e-05 0)
(0.499795 3.28298e-05 -2.05086e-22)
(0.499748 4.1847e-05 -5.40245e-23)
(0.499688 5.32614e-05 0)
(0.499611 6.77842e-05 -5.68228e-23)
(0.499512 8.63498e-05 5.88261e-23)
(0.499384 0.000110214 0)
(0.499219 0.000141065 0)
(0.499005 0.000181229 0)
(0.498728 0.000233942 0)
(0.498365 0.000303838 0)
(0.497887 0.000397711 0)
(0.497254 0.000525917 -4.17261e-22)
(0.496402 0.000704955 -4.75073e-22)
(0.495241 0.000962772 -4.04931e-22)
(0.493621 0.00135057 0)
(0.491294 0.00197285 0)
(0.487797 0.00307691 0)
(0.48224 0.00537996 0)
(0.473474 0.011584 5.39885e-21)
(0.00552794 -0.058442 1.5838e-21)
(0.0166269 -0.0583451 1.58021e-21)
(0.0277903 -0.0581758 -6.91277e-25)
(0.0390039 -0.0579334 0)
(0.0502528 -0.0576177 0)
(0.0615222 -0.0572288 0)
(0.0727966 -0.0567676 -1.53328e-21)
(0.0840606 -0.0562354 1.51801e-21)
(0.0952989 -0.0556338 -2.36239e-24)
(0.106496 -0.0549651 2.63944e-24)
(0.117637 -0.0542319 -2.91534e-24)
(0.128706 -0.0534371 1.44204e-21)
(0.13969 -0.0525842 -1.41492e-21)
(0.150575 -0.0516768 0)
(0.161346 -0.050719 0)
(0.171991 -0.049715 1.33475e-21)
(0.182498 -0.048669 0)
(0.192856 -0.0475856 -2.55097e-21)
(0.203055 -0.0464694 0)
(0.213083 -0.045325 2.42541e-21)
(0.222934 -0.0441569 0)
(0.232598 -0.0429696 -1.15318e-21)
(0.242068 -0.0417676 0)
(0.25134 -0.0405551 0)
(0.260406 -0.0393362 0)
(0.269263 -0.0381148 -1.01977e-21)
(0.277906 -0.0368945 0)
(0.286334 -0.035679 0)
(0.294543 -0.0344713 1.82493e-21)
(0.302533 -0.0332744 8.86923e-22)
(0.310302 -0.0320911 1.69356e-21)
(0.317851 -0.0309237 -1.62916e-21)
(0.325179 -0.0297746 1.56578e-21)
(0.332288 -0.0286456 7.59988e-22)
(0.339179 -0.0275385 0)
(0.345854 -0.0264548 6.82808e-22)
(0.352316 -0.0253958 6.70909e-22)
(0.358566 -0.0243625 0)
(0.364609 -0.0233557 6.15004e-22)
(0.370447 -0.0223762 5.88167e-22)
(0.376083 -0.0214246 5.4347e-22)
(0.381523 -0.0205011 -1.05469e-21)
(0.386768 -0.019606 1.00539e-21)
(0.391825 -0.0187394 9.77062e-22)
(0.396696 -0.0179012 0)
(0.401386 -0.0170915 0)
(0.4059 -0.0163098 0)
(0.410243 -0.0155561 0)
(0.414417 -0.0148298 -7.42364e-22)
(0.418429 -0.0141305 7.03861e-22)
(0.422283 -0.0134578 -6.87732e-22)
(0.425983 -0.0128112 0)
(0.429534 -0.01219 0)
(0.432941 -0.0115937 0)
(0.436207 -0.0110217 0)
(0.439337 -0.0104733 -1.02675e-21)
(0.442337 -0.00994779 0)
(0.445209 -0.00944462 0)
(0.447958 -0.00896306 4.41529e-22)
(0.450588 -0.00850244 4.16298e-22)
(0.453104 -0.00806208 0)
(0.45551 -0.00764131 0)
(0.457809 -0.00723946 6.48899e-22)
(0.460004 -0.00685588 0)
(0.462101 -0.0064899 -2.60298e-22)
(0.464103 -0.00614088 2.8694e-22)
(0.466012 -0.0058082 -4.91284e-22)
(0.467833 -0.00549123 0)
(0.469569 -0.00518938 0)
(0.471224 -0.00490204 0)
(0.472799 -0.00462865 3.61382e-22)
(0.4743 -0.00436864 0)
(0.475728 -0.00412147 0)
(0.477086 -0.00388661 2.79656e-22)
(0.478378 -0.00366354 0)
(0.479606 -0.00345176 1.39627e-22)
(0.480772 -0.0032508 0)
(0.48188 -0.00306017 -1.18174e-22)
(0.482931 -0.00287944 0)
(0.483929 -0.00270817 0)
(0.484876 -0.00254592 0)
(0.485773 -0.0023923 0)
(0.486623 -0.00224691 0)
(0.487428 -0.00210937 0)
(0.48819 -0.00197933 0)
(0.488911 -0.00185642 0)
(0.489594 -0.00174031 4.32392e-23)
(0.490239 -0.00163068 0)
(0.490848 -0.00152721 -1.97614e-23)
(0.491424 -0.0014296 0)
(0.491967 -0.00133757 0)
(0.49248 -0.00125084 0)
(0.492963 -0.00116914 9.43944e-24)
(0.493419 -0.00109222 2.81629e-23)
(0.493848 -0.00101984 -1.27652e-23)
(0.494253 -0.000951763 0)
(0.494633 -0.000887766 1.71015e-24)
(0.494991 -0.000827636 -5.73164e-23)
(0.495328 -0.000771168 -1.44893e-23)
(0.495644 -0.000718168 0)
(0.495941 -0.000668449 7.48574e-23)
(0.49622 -0.000621832 7.99945e-23)
(0.496481 -0.000578148 0)
(0.496727 -0.000537234 0)
(0.496956 -0.000498935 0)
(0.497172 -0.000463105 9.74864e-23)
(0.497373 -0.000429601 -2.02357e-22)
(0.497562 -0.000398292 0)
(0.497738 -0.000369049 -2.74269e-22)
(0.497903 -0.000341753 2.21721e-22)
(0.498057 -0.000316289 2.91682e-22)
(0.498201 -0.000292547 -6.69501e-23)
(0.498335 -0.000270425 -3.06819e-22)
(0.49846 -0.000249824 0)
(0.498576 -0.000230651 3.19947e-22)
(0.498685 -0.000212818 0)
(0.498785 -0.000196241 -7.75076e-23)
(0.498879 -0.000180842 0)
(0.498967 -0.000166546 2.60345e-22)
(0.499048 -0.000153282 0)
(0.499123 -0.000140984 0)
(0.499193 -0.000129588 0)
(0.499257 -0.000119034 -2.7082e-22)
(0.499317 -0.000109266 8.70424e-23)
(0.499373 -0.000100231 2.74966e-22)
(0.499424 -9.1879e-05 -2.76807e-22)
(0.499472 -8.41633e-05 0)
(0.499515 -7.70398e-05 -9.05757e-23)
(0.499556 -7.04667e-05 -9.12965e-23)
(0.499593 -6.44051e-05 -3.74827e-22)
(0.499628 -5.88178e-05 9.25737e-23)
(0.49966 -5.36703e-05 2.85232e-22)
(0.499689 -4.89297e-05 0)
(0.499716 -4.45653e-05 -9.89681e-23)
(0.49974 -4.05476e-05 0)
(0.499763 -3.68492e-05 4.78906e-22)
(0.499784 -3.34439e-05 0)
(0.499803 -3.03071e-05 0)
(0.49982 -2.74151e-05 0)
(0.499836 -2.47447e-05 0)
(0.49985 -2.2273e-05 -1.9316e-22)
(0.499863 -1.99773e-05 0)
(0.499875 -1.78353e-05 0)
(0.499886 -1.58244e-05 -2.93573e-22)
(0.499895 -1.3921e-05 0)
(0.499904 -1.21003e-05 1.95387e-22)
(0.499911 -1.03351e-05 2.94778e-22)
(0.499917 -8.59579e-06 0)
(0.499922 -6.84837e-06 0)
(0.499926 -5.0541e-06 2.95933e-22)
(0.499929 -3.16688e-06 0)
(0.499931 -1.13237e-06 -1.97776e-22)
(0.499931 1.11606e-06 0)
(0.499929 3.65895e-06 -1.98814e-22)
(0.499926 6.59707e-06 0)
(0.49992 1.00546e-05 -5.9841e-22)
(0.499911 1.41888e-05 -8.01284e-22)
(0.4999 1.91964e-05 0)
(0.499884 2.53292e-05 -6.04992e-22)
(0.499863 3.29056e-05 6.08254e-22)
(0.499836 4.23365e-05 6.12311e-22)
(0.499801 5.41479e-05 -2.09711e-22)
(0.499755 6.90241e-05 0)
(0.499697 8.78528e-05 0)
(0.499622 0.000111802 0)
(0.499526 0.000142411 -6.55342e-22)
(0.499402 0.000181738 0)
(0.499243 0.000232558 0)
(0.499036 0.000298671 0)
(0.498768 0.000385367 0)
(0.498418 0.000500179 8.09183e-22)
(0.497959 0.000654111 0)
(0.497351 0.000863816 -3.8431e-22)
(0.496539 0.00115557 6.43928e-22)
(0.495441 0.00157324 -5.37384e-22)
(0.49393 0.00219526 0)
(0.491811 0.00317532 0)
(0.48878 0.00485017 0)
(0.484469 0.00805899 0)
(0.479326 0.0151149 6.93474e-21)
(0.00561961 -0.0822697 4.45871e-21)
(0.016902 -0.0821304 -2.22404e-21)
(0.0282481 -0.0818873 2.21745e-21)
(0.0396425 -0.0815391 0)
(0.0510692 -0.0810854 0)
(0.0625122 -0.0805269 0)
(0.0739548 -0.0798648 -2.15924e-21)
(0.0853806 -0.079101 2.13769e-21)
(0.0967732 -0.0782381 2.11345e-21)
(0.108116 -0.0772796 -6.25452e-21)
(0.119394 -0.0762293 2.05732e-21)
(0.13059 -0.0750917 0)
(0.14169 -0.0738719 -1.99177e-21)
(0.15268 -0.0725754 0)
(0.163545 -0.071208 0)
(0.174273 -0.0697759 5.62635e-21)
(0.184851 -0.0682855 0)
(0.195269 -0.0667433 -3.58914e-21)
(0.205515 -0.065156 0)
(0.215581 -0.0635301 3.41194e-21)
(0.225458 -0.0618722 0)
(0.235138 -0.0601889 0)
(0.244615 -0.0584863 3.12208e-21)
(0.253884 -0.0567704 0)
(0.262939 -0.0550472 2.93202e-21)