/*--------------------------------*- C++ -*----------------------------------*\
  =========                 |
  \\      /  F ield         | OpenFOAM: The Open Source CFD Toolbox
   \\    /   O peration     | Website:  https://openfoam.org
    \\  /    A nd           | Version:  6
     \\/     M anipulation  |
\*---------------------------------------------------------------------------*/
FoamFile
{
    version     2.0;
    format      ascii;
    class       volScalarField;
    location    "300";
    object      alphat;
}
// * * * * * * * * * * * * * * * * * * * * * * * * * * * * * * * * * * * * * //

dimensions      [1 -1 -1 0 0 0 0];

internalField   nonuniform List<scalar> 
16000
(
4.9165593e-06
2.3970789e-05
2.7850618e-05
3.7816511e-05
3.1902713e-05
4.0542515e-05
3.853338e-05
4.3549737e-05
4.3669336e-05
4.4114665e-05
4.4180595e-05
4.3014573e-05
4.2929455e-05
4.1908519e-05
4.1912796e-05
4.1523957e-05
4.176929e-05
4.1916371e-05
4.2446915e-05
4.3030794e-05
4.3879985e-05
4.4863147e-05
4.6072889e-05
4.7469136e-05
4.9101252e-05
5.0972913e-05
5.3124428e-05
5.5584939e-05
5.8402518e-05
6.16293e-05
6.5335727e-05
6.9606342e-05
7.4545025e-05
8.0278506e-05
8.6950325e-05
9.4743912e-05
0.00010388679
0.00011466875
0.00012745013
0.00014265759
0.00016081444
0.00018257673
0.00020875468
0.00024034296
0.00027856697
0.00032494003
0.0003813202
0.00044998591
0.0005337242
0.00063592602
0.00076069552
0.00091296998
0.0010987013
0.0012195536
0.0012207561
0.0012208837
0.0012202849
0.0012193011
0.0012181029
0.0012166157
0.0012147245
0.0012123913
0.0012095668
0.0012062463
0.0012025142
0.001198612
0.0011948481
0.0011914661
0.0011884285
0.0011858216
0.0011834241
0.00118163
0.0011796451
0.0011787834
0.0011767431
0.0011779603
0.0011751949
0.0011808663
0.0011724511
0.0011799499
4.1375714e-06
2.3725423e-05
2.5390053e-05
3.4554553e-05
2.9375241e-05
3.6593172e-05
3.5433462e-05
3.9115625e-05
3.9972242e-05
3.959877e-05
4.0110862e-05
3.8576318e-05
3.8675108e-05
3.7581819e-05
3.7674309e-05
3.7261672e-05
3.7511679e-05
3.7622715e-05
3.8107969e-05
3.8626222e-05
3.939089e-05
4.0272427e-05
4.1359041e-05
4.2612486e-05
4.407753e-05
4.5757319e-05
4.7687654e-05
4.9894922e-05
5.2422061e-05
5.5316054e-05
5.8637739e-05
6.2459068e-05
6.6872816e-05
7.1992023e-05
7.795515e-05
8.4929691e-05
9.3112618e-05
0.00010274706
0.00011414508
0.00012770219
0.00014388363
0.00016326079
0.00018654778
0.00021462451
0.00024856667
0.00028970205
0.00033966273
0.00040044611
0.00047449724
0.00056479646
0.00067496004
0.00080935814
0.00097326376
0.0011730731
0.0012198432
0.0012201046
0.0012195452
0.0012185553
0.0012173687
0.0012160073
0.0012143601
0.0012122436
0.0012096042
0.0012064219
0.0012027598
0.0011988483
0.0011950382
0.0011915963
0.0011885316
0.0011858605
0.0011834777
0.0011815696
0.0011797022
0.0011786634
0.0011768153
0.0011774669
0.001175126
0.0011802043
0.0011725617
0.0011797446
3.5578546e-06
2.3493145e-05
2.3427881e-05
3.1757668e-05
2.7351959e-05
3.320048e-05
3.306854e-05
3.5132963e-05
3.6822969e-05
3.5386232e-05
3.6357045e-05
3.4399099e-05
3.4734226e-05
3.358014e-05
3.3756873e-05
3.333523e-05
3.3593945e-05
3.3685258e-05
3.4136239e-05
3.4606989e-05
3.5304325e-05
3.6105981e-05
3.7092944e-05
3.8231048e-05
3.9559881e-05
4.1083271e-05
4.2832874e-05
4.4833069e-05
4.7122263e-05
4.9742987e-05
5.2750028e-05
5.6209607e-05
6.0203703e-05
6.4830277e-05
7.0214312e-05
7.6509117e-05
8.3903904e-05
9.2619136e-05
0.00010291785
0.00011514616
0.00012973821
0.00014720815
0.00016818538
0.00019345721
0.00022398481
0.00026094528
0.00030578842
0.0003602857
0.00042660088
0.00050737358
0.00060580718
0.00072577975
0.00087197144
0.0010500542
0.0012189541
0.0012193646
0.001218849
0.0012178422
0.0012166334
0.0012152761
0.0012137261
0.0012118693
0.001209455
0.0012064509
0.0012028948
0.0011990024
0.0011951587
0.0011916737
0.0011885826
0.0011858725
0.0011834867
0.0011815168
0.00117971
0.0011785306
0.0011768682
0.0011771376
0.0011751014
0.0011795317
0.0011725592
0.0011790896
3.1622561e-06
2.3207479e-05
2.1727476e-05
2.9144231e-05
2.5460949e-05
3.0103768e-05
3.0808659e-05
3.1548226e-05
3.3792864e-05
3.1591656e-05
3.2818975e-05
3.0688163e-05
3.1137553e-05
3.0005069e-05
3.0214748e-05
2.9818947e-05
3.0069987e-05
3.0158571e-05
3.0575366e-05
3.1011193e-05
3.1649796e-05
3.2385392e-05
3.3287122e-05
3.4327531e-05
3.5540213e-05
3.6930507e-05
3.8526207e-05
4.0350356e-05
4.2437604e-05
4.4826957e-05
4.7568142e-05
5.0721403e-05
5.4361212e-05
5.8578646e-05
6.3485278e-05
6.921709e-05
7.5944856e-05
8.3882421e-05
9.3278108e-05
0.00010442551
0.00011771304
0.00013362408
0.00015272869
0.00017573277
0.00020351217
0.00023713131
0.0002778977
0.00032741309
0.00038762865
0.0004609259
0.0005501976
0.0006589497
0.00079142049
0.0009527369
0.0011491319
0.0012186627
0.0012181987
0.00121717
0.0012159267
0.001214546
0.0012129985
0.0012112267
0.0012090827
0.0012063023
0.0012028952
0.0011990547
0.0011951964
0.0011916842
0.0011885765
0.0011858444
0.0011834553
0.0011814482
0.0011796844
0.0011784025
0.0011769026
0.0011768843
0.0011750919
0.0011788067
0.0011726071
0.0011787042
2.8321007e-06
2.2829883e-05
2.030067e-05
2.6732675e-05
2.3735517e-05
2.7282825e-05
2.8714621e-05
2.828842e-05
3.0898963e-05
2.8121765e-05
2.9471719e-05
2.7341176e-05
2.7826077e-05
2.6765184e-05
2.697777e-05
2.6627753e-05
2.6863794e-05
2.6959801e-05
2.7345371e-05
2.7755187e-05
2.8343419e-05
2.9023807e-05
2.9852643e-05
3.0809671e-05
3.1922677e-05
3.3198654e-05
3.4662026e-05
3.6334738e-05
3.8248292e-05
4.0438779e-05
4.2951691e-05
4.584241e-05
4.9179356e-05
5.3045856e-05
5.7544441e-05
6.2801408e-05
6.8969985e-05
7.6241401e-05
8.4857167e-05
9.5095668e-05
0.00010729275
0.00012188808
0.00013942141
0.00016053226
0.00018601979
0.00021686335
0.00025425444
0.00029965768
0.00035485597
0.00042202338
0.00050380497
0.00060340838
0.00072471915
0.00087243609
0.0010522713
0.0012179795
0.0012175807
0.0012165285
0.0012152439
0.0012138296
0.0012122624
0.0012105031
0.0012084725
0.0012059648
0.0012027548
0.0011990029
0.0011951505
0.0011916266
0.0011885137
0.0011857742
0.0011833855
0.0011813602
0.0011796262
0.0011782813
0.0011769097
0.0011766292
0.0011750947
0.0011781386
0.0011726728
0.0011781853
2.556996e-06
2.2311236e-05
1.910914e-05
2.4477299e-05
2.2148336e-05
2.4674816e-05
2.6732243e-05
2.5293863e-05
2.8102893e-05
2.5015272e-05
2.6356552e-05
2.4328077e-05
2.4791633e-05
2.3839915e-05
2.4036379e-05
2.37457e-05
2.3964315e-05
2.407499e-05
2.443409e-05
2.4825427e-05
2.5372011e-05
2.6007305e-05
2.6775323e-05
2.7662604e-05
2.8691873e-05
2.9871609e-05
3.1223461e-05
3.2768472e-05
3.4535601e-05
3.6558529e-05
3.8879275e-05
4.1549199e-05
4.4631713e-05
4.8204145e-05
5.236151e-05
5.7220481e-05
6.29249e-05
6.9649751e-05
7.761317e-05
8.7087969e-05
9.8386184e-05
0.00011190303
0.00012813956
0.00014769913
0.00017131189
0.0001998888
0.00023453202
0.00027659362
0.00032772396
0.00038993088
0.00046566074
0.00055788172
0.00067019396
0.00080695447
0.00097345505
0.0011761265
0.0012169859
0.0012159114
0.00121458
0.0012131261
0.0012115291
0.0012097581
0.0012077593
0.0012054218
0.0012024633
0.0011988423
0.001195019
0.0011914989
0.0011883939
0.0011856606
0.0011832791
0.0011812501
0.0011795389
0.0011781601
0.0011768908
0.001176389
0.0011751021
0.0011775768
0.0011727572
0.0011778416
2.323398e-06
1.9190148e-05
1.8050562e-05
2.2345882e-05
2.0702775e-05
2.2246707e-05
2.4855488e-05
2.254886e-05
2.5402885e-05
2.2236247e-05
2.3477111e-05
2.1619211e-05
2.2025205e-05
2.1201848e-05
2.1371571e-05
2.1144659e-05
2.13457e-05
2.1473595e-05
2.1810464e-05
2.2187886e-05
2.2699799e-05
2.3297488e-05
2.4014354e-05
2.4842685e-05
2.5801114e-05
2.6899238e-05
2.8156509e-05
2.9593174e-05
3.1236102e-05
3.3116999e-05
3.5274998e-05
3.7758081e-05
4.0625576e-05
4.3949726e-05
4.7819361e-05
5.234375e-05
5.7657181e-05
6.3924499e-05
7.1347011e-05
8.0179951e-05
9.0724916e-05
0.00010334792
0.00011850793
0.00013678067
0.00015884567
0.00018555189
0.00021793337
0.00025725005
0.00030504511
0.00036319309
0.0004339789
0.00052017713
0.0006251555
0.00075299506
0.00090864867
0.0010981427
0.0012164011
0.001215309
0.0012139272
0.0012124294
0.0012107972
0.0012090039
0.0012070074
0.0012047314
0.0012020106
0.0011985697
0.0011948011
0.0011913004
0.0011882169
0.001185503
0.0011831376
0.001181117
0.0011794255
0.0011780357
0.0011768476
0.0011761808
0.0011751077
0.0011770317
0.0011728447
0.0011775071
2.10517e-06
1.8087818e-05
1.6806842e-05
2.0317537e-05
1.9391757e-05
1.9990904e-05
2.3057209e-05
2.0106771e-05
2.2801805e-05
1.9756963e-05
2.0835694e-05
1.9190434e-05
1.9518803e-05
1.8829268e-05
1.8968469e-05
1.8803901e-05
1.8989297e-05
1.9134537e-05
1.9453525e-05
1.9820281e-05
2.030386e-05
2.0870377e-05
2.1544743e-05
2.2323765e-05
2.3222883e-05
2.4252555e-05
2.5430486e-05
2.6776197e-05
2.8314899e-05
3.0076634e-05
3.2098246e-05
3.4424847e-05
3.7112463e-05
4.0229206e-05
4.3858802e-05
4.8104444e-05
5.3092911e-05
5.8979665e-05
6.5956331e-05
7.4260452e-05
8.4179889e-05
9.6062766e-05
0.00011034274
0.00012755585
0.00014835216
0.00017352712
0.00020405982
0.00024113686
0.00028621371
0.00034105763
0.00040782219
0.00048912445
0.00058814242
0.00070873127
0.00085556873
0.0010343479
0.0012158129
0.0012147123
0.0012132777
0.0012117336
0.001210063
0.0012082422
0.0012062363
0.0012039873
0.0012013851
0.0011981831
0.0011944975
0.0011910319
0.0011879837
0.001185302
0.0011829628
0.0011809613
0.0011792896
0.0011779066
0.0011767817
0.0011760007
0.0011751099
0.0011765127
0.0011729358
0.0011772369
1.9138584e-06
1.7489453e-05
1.5623367e-05
1.8409083e-05
1.8181637e-05
1.7903073e-05
2.1272814e-05
1.7922281e-05
2.0341735e-05
1.753208e-05
1.8415366e-05
1.700444e-05
1.7250062e-05
1.6691369e-05
1.6802481e-05
1.6696135e-05
1.6869903e-05
1.703176e-05
1.7337547e-05
1.7696425e-05
1.8157504e-05
1.8698596e-05
1.9338137e-05
2.0076376e-05
2.0926369e-05
2.1899085e-05
2.3010977e-05
2.4280865e-05
2.5732659e-05
2.7395033e-05
2.9302961e-05
3.1499202e-05
3.4037071e-05
3.6981323e-05
4.0411582e-05
4.4426014e-05
4.9145352e-05
5.4718074e-05
6.1326103e-05
6.9194812e-05
7.8600184e-05
8.9876033e-05
0.00010343313
0.00011978028
0.00013954017
0.00016346766
0.00019249515
0.0002277513
0.00027061997
0.00032278198
0.00038628433
0.00046361584
0.00055780001
0.00067250725
0.00081219278
0.00098227807
0.0011893503
0.0012141116
0.0012126232
0.0012110317
0.0012093213
0.0012074705
0.0012054491
0.0012032107
0.001200675
0.0011976806
0.0011941106
0.0011906953
0.0011876961
0.0011850593
0.0011827571
0.0011807845
0.0011791351
0.0011777724
0.0011766961
0.0011758465
0.0011751102
0.0011760411
0.0011730352
0.0011769779
1.7480405e-06
1.6843281e-05
1.4522024e-05
1.6585571e-05
1.7049691e-05
1.6015441e-05
1.9463524e-05
1.5949147e-05
1.8021711e-05
1.5523579e-05
1.6205134e-05
1.5031035e-05
1.5200288e-05
1.4763165e-05
1.4852679e-05
1.4798941e-05
1.4966155e-05
1.5143705e-05
1.5440943e-05
1.579456e-05
1.6238606e-05
1.6759584e-05
1.7371331e-05
1.8076518e-05
1.8886578e-05
1.9812723e-05
2.0870488e-05
2.207808e-05
2.3458376e-05
2.5038968e-05
2.685333e-05
2.8942274e-05
3.1356955e-05
3.4159446e-05
3.7426059e-05
4.1250846e-05
4.5749893e-05
5.1066059e-05
5.7372165e-05
6.4888219e-05
7.3877502e-05
8.4660699e-05
9.7629822e-05
0.00011327971
0.00013220372
0.00015512704
0.00018294348
0.00021673549
0.00025782962
0.00030783694
0.00036871859
0.00044285952
0.0005331578
0.00064313335
0.00077706146
0.000940144
0.0011387086
0.0012134977
0.0012119559
0.0012103174
0.0012085671
0.0012066856
0.0012046462
0.0012024103
0.0011999167
0.0011970602
0.0011936446
0.0011902941
0.001187357
0.0011847771
0.0011825234
0.0011805887
0.0011789666
0.0011776339
0.0011765948
0.0011757164
0.0011751085
0.0011756294
0.001173152
0.0011767513
1.6036231e-06
1.6117901e-05
1.3492517e-05
1.483147e-05
1.5975002e-05
1.4304393e-05
1.7610505e-05
1.4161427e-05
1.5854611e-05
1.3707402e-05
1.4199312e-05
1.324905e-05
1.3354673e-05
1.302563e-05
1.310154e-05
1.3094026e-05
1.3259692e-05
1.3451897e-05
1.3690176e-05
1.4032003e-05
1.4457062e-05
1.4957092e-05
1.554214e-05
1.6216053e-05
1.698879e-05
1.7871412e-05
1.8878534e-05
2.0027617e-05
2.1340479e-05
2.2843659e-05
2.4569267e-05
2.6556193e-05
2.885365e-05
3.1521249e-05
3.4632319e-05
3.8277246e-05
4.2567946e-05
4.7642666e-05
5.4021728e-05
6.1255908e-05
6.9913385e-05
8.0303207e-05
9.2804031e-05
0.00010790087
0.00012616178
0.00014828911
0.0001751467
0.00020777947
0.0002474693
0.0002957713
0.00035457823
0.00042619173
0.00051340915
0.00061962914
0.00074898188
0.00090649287
0.0010982784
0.0012128618
0.0012112682
0.0012095841
0.0012077954
0.001205884
0.0012038263
0.001201589
0.0011991223
0.0011963436
0.0011931051
0.001189833
0.0011869701
0.0011844588
0.0011822646
0.0011803769
0.0011787886
0.0011774923
0.0011764827
0.0011756086
0.0011751043
0.0011752849
0.0011732896
0.0011765099
1.4777633e-06
1.528797e-05
1.2528244e-05
1.3153029e-05
1.4920982e-05
1.2749045e-05
1.5750273e-05
1.2535464e-05
1.3850012e-05
1.206206e-05
1.2389121e-05
1.1640208e-05
1.1698408e-05
1.1462588e-05
1.148123e-05
1.1494645e-05
1.1652354e-05
1.1852376e-05
1.2139656e-05
1.2487431e-05
1.2909455e-05
1.3402104e-05
1.3973746e-05
1.4629559e-05
1.5378901e-05
1.6232976e-05
1.7205956e-05
1.8314919e-05
1.9581038e-05
2.1030206e-05
2.2693762e-05
2.4609144e-05
2.6824325e-05
2.9397294e-05
3.2399343e-05
3.5918277e-05
4.0063018e-05
4.4969712e-05
5.0801008e-05
5.7760298e-05
6.6096e-05
7.6107535e-05
8.8847273e-05
0.0001035164
0.00012126499
0.00014277719
0.00016889543
0.00020063343
0.00023923953
0.00028622474
0.00034342821
0.00041308597
0.00049791595
0.00060122082
0.00072701583
0.00088018706
0.0010666833
0.0012121957
0.0012105533
0.0012088265
0.0012070019
0.0012050629
0.0012029881
0.0012007491
0.0011983049
0.0011955916
0.0011924997
0.0011893183
0.0011865405
0.0011841082
0.0011819842
0.0011801525
0.0011786058
0.00117735
0.0011763652
0.0011755207
0.0011750967
0.0011750095
0.0011734482
0.001176306
1.3684903e-06
1.4339035e-05
1.1629118e-05
1.1631426e-05
1.385579e-05
1.1328093e-05
1.3924596e-05
1.1052445e-05
1.2016975e-05
1.0571062e-05
1.0765267e-05
1.0190329e-05
1.0141709e-05
9.9608241e-06
1.0020879e-05
1.008489e-05
1.0260713e-05
1.0482356e-05
1.0777948e-05
1.1131497e-05
1.1552492e-05
1.2040359e-05
1.2602518e-05
1.3245054e-05
1.3976895e-05
1.4809332e-05
1.5756227e-05
1.6834317e-05
1.8064261e-05
1.947146e-05
2.1086842e-05
2.2946534e-05
2.5097687e-05
2.7597117e-05
3.0514684e-05
3.3936246e-05
3.7967994e-05
4.2744804e-05
4.8425713e-05
5.5210449e-05
6.3342718e-05
7.3116701e-05
8.4899157e-05
9.9140869e-05
0.00011638658
0.00013843952
0.00016401074
0.00019508487
0.00023288653
0.00027889313
0.00033490288
0.00040310168
0.00048614652
0.00058726634
0.00071038796
0.00086029051
0.0010427946
0.0012114925
0.0012098053
0.0012080397
0.0012061829
0.0012042196
0.0012021303
0.0011998906
0.0011974667
0.0011948089
0.0011918372
0.0011887574
0.0011860741
0.00118373
0.0011816854
0.0011799186
0.0011784222
0.0011772092
0.0011762478
0.0011754495
0.0011750849
0.0011747983
0.0011736135
0.0011761435
1.2737433e-06
1.3262888e-05
1.0788388e-05
1.0252287e-05
1.2741782e-05
1.0029057e-05
1.2162013e-05
9.7003115e-06
1.0361362e-05
9.222353e-06
9.2314162e-06
8.7615133e-06
8.754082e-06
8.6616569e-06
8.7452846e-06
8.8501383e-06
9.0432099e-06
9.2832551e-06
9.587549e-06
9.9471928e-06
1.0369197e-05
1.0854911e-05
1.1411267e-05
1.2045019e-05
1.2764752e-05
1.3581822e-05
1.4509879e-05
1.556539e-05
1.6768572e-05
1.8144437e-05
1.9650434e-05
2.1453905e-05
2.3540253e-05
2.596512e-05
2.8797021e-05
3.2120098e-05
3.6242247e-05
4.0923921e-05
4.6495276e-05
5.3153767e-05
6.1140655e-05
7.0743693e-05
8.2326744e-05
9.6333692e-05
0.00011330421
0.00013389611
0.00015890851
0.00019095278
0.0002281945
0.00027351849
0.00032869294
0.00039586726
0.00047765375
0.00057722726
0.00069844952
0.0008460218
0.001025672
0.0012107468
0.0012090198
0.0012072202
0.0012053359
0.0012033525
0.0012012525
0.0011990143
0.0011966099
0.0011940006
0.0011911279
0.0011881588
0.0011855776
0.0011833291
0.0011813718
0.0011796784
0.001178241
0.0011770729
0.0011761353
0.0011753918
0.0011750669
0.0011746414
0.0011737808
0.0011760208
1.192251e-06
1.2065488e-05
9.9974456e-06
9.0006961e-06
1.1549212e-05
8.8388167e-06
1.049223e-05
8.4671492e-06
8.8821207e-06
7.8700896e-06
7.8531926e-06
7.5387463e-06
7.5512094e-06
7.5287609e-06
7.635542e-06
7.7737766e-06
7.983496e-06
8.239774e-06
8.5533058e-06
8.9197221e-06
9.344746e-06
9.8308923e-06
1.0384859e-05
1.0989517e-05
1.1695575e-05
1.2496019e-05
1.3404065e-05
1.4435689e-05
1.5610467e-05
1.6952603e-05
1.8491644e-05
2.0263916e-05
2.2314155e-05
2.4697562e-05
2.7482205e-05
3.0752086e-05
3.4611162e-05
3.9187455e-05
4.4637756e-05
5.1157983e-05
5.8987475e-05
6.8923974e-05
8.0379334e-05
9.423813e-05
0.00011103383
0.00013141968
0.00015618673
0.00018630327
0.00022497207
0.00026987254
0.00032452542
0.00039105563
0.00047204521
0.00057063232
0.00069063435
0.00083670075
0.0010144984
0.0012099547
0.0012081938
0.0012063658
0.0012044594
0.001202461
0.0012003548
0.0011981216
0.0011957377
0.0011931724
0.0011903827
0.0011875318
0.0011850586
0.0011829109
0.0011810464
0.0011794339
0.0011780639
0.0011769431
0.0011760323
0.001175345
0.0011750406
0.0011745277
0.0011739415
0.0011759287
1.1235549e-06
1.0759437e-05
9.248985e-06
7.8630427e-06
1.0315255e-05
7.746155e-06
8.9434234e-06
7.2847e-06
7.3877775e-06
6.6916422e-06
6.6711827e-06
6.4781966e-06
6.5131592e-06
6.5460473e-06
6.6754805e-06
6.8415085e-06
7.0673648e-06
7.3385018e-06
7.6618974e-06
8.0359761e-06
8.44812e-06
8.9321368e-06
9.4819442e-06
1.0104404e-05
1.0808319e-05
1.1604356e-05
1.2505719e-05
1.3528305e-05
1.469145e-05
1.6019231e-05
1.7541012e-05
1.9292925e-05
2.1319541e-05
2.3675885e-05
2.642984e-05
2.9665284e-05
3.3486056e-05
3.801949e-05
4.342177e-05
4.9890037e-05
5.7664556e-05
6.7022883e-05
7.8319272e-05
9.1998535e-05
0.00010948507
0.00012977328
0.00015442228
0.00018439972
0.00022087235
0.00026774726
0.00032215163
0.00038836898
0.00046896416
0.00056705402
0.00068642989
0.00083171239
0.0010085361
0.0012091146
0.001207326
0.0012054758
0.0012035532
0.0012015457
0.0011994386
0.0011972147
0.0011948538
0.0011923308
0.0011896132
0.001186886
0.0011845248
0.0011824809
0.0011807124
0.0011791864
0.0011778906
0.001176821
0.0011759423
0.0011753073
0.0011750037
0.0011744472
0.0011740884
0.0011758512
1.0680036e-06
9.3590001e-06
8.5318523e-06
6.8281758e-06
9.0358677e-06
6.7423614e-06
7.5460911e-06
6.1122855e-06
6.1518175e-06
5.6768255e-06
5.661832e-06
5.5626303e-06
5.6222747e-06
5.6992704e-06
5.8506904e-06
6.0405254e-06
6.2821245e-06
6.5673567e-06
6.885088e-06
7.2638247e-06
7.6965147e-06
8.1871686e-06
8.7416746e-06
9.3671484e-06
1.0072459e-05
1.0868264e-05
1.1767778e-05
1.278692e-05
1.3944769e-05
1.526541e-05
1.6778155e-05
1.8519126e-05
2.0532957e-05
2.2874775e-05
2.5612636e-05
2.8830811e-05
3.2633463e-05
3.7147627e-05
4.2530016e-05
4.8979573e-05
5.6735751e-05
6.6072037e-05
7.7349319e-05
9.101655e-05
0.00010759595
0.00012772578
0.00015349596
0.00018346585
0.00021993062
0.00026430407
0.0003213326
0.00038752134
0.00046806806
0.00056608241
0.00068534505
0.00083046837
0.0010070792
0.0012082264
0.0012064169
0.001204551
0.0012026186
0.001200608
0.0011985059
0.0011962967
0.0011939624
0.0011914821
0.0011888305
0.0011862308
0.001183984
0.0011820447
0.0011803729
0.0011789361
0.001177719
0.0011767052
0.0011758664
0.0011752779
0.0011749599
0.0011743945
0.0011742234
0.0011757728
1.0277828e-06
7.8781537e-06
7.8168136e-06
5.8862317e-06
7.7430919e-06
5.8031018e-06
6.6950363e-06
5.1308488e-06
5.1029576e-06
4.8036978e-06
4.8052419e-06
4.7773114e-06
4.8629793e-06
4.9760632e-06
5.1486436e-06
5.3595557e-06
5.6027456e-06
5.8982111e-06
6.2403483e-06
6.630561e-06
7.0727648e-06
7.5715053e-06
8.1328136e-06
8.7639558e-06
9.4738748e-06
1.0273145e-05
1.117501e-05
1.2170514e-05
1.3321053e-05
1.4631653e-05
1.6131362e-05
1.7856085e-05
1.9850299e-05
2.2169005e-05
2.4880274e-05
2.8068624e-05
3.183821e-05
3.6315773e-05
4.1659177e-05
4.8382581e-05
5.6151258e-05
6.5502299e-05
7.6808273e-05
9.0517967e-05
0.00010715011
0.00012734831
0.00015189722
0.00018335873
0.00021994773
0.0002644718
0.00031864629
0.00038822174
0.00046900807
0.00056730039
0.00068688045
0.00083237028
0.0010094105
0.0012072926
0.0012054691
0.0012035941
0.0012016582
0.001199651
0.00119756
0.0011953711
0.0011930683
0.0011906333
0.0011880453
0.0011855752
0.0011834436
0.0011816082
0.0011800314
0.0011786833
0.0011775456
0.0011765915
0.0011758012
0.001175255
0.001174914
0.0011743613
0.0011743469
0.0011756824
1.00793e-06
6.4713759e-06
7.0781662e-06
5.0177987e-06
6.9145406e-06
5.1883825e-06
4.9304354e-06
4.262321e-06
4.2364733e-06
4.0551171e-06
4.0833764e-06
4.1112767e-06
4.2227368e-06
4.3662927e-06
4.548514e-06
4.7745218e-06
5.0439789e-06
5.3550078e-06
5.7102082e-06
6.1120367e-06
6.5646265e-06
7.0728723e-06
7.6429099e-06
8.2820636e-06
8.9870738e-06
9.7888509e-06
1.0691481e-05
1.1710582e-05
1.2865323e-05
1.4179322e-05
1.5681781e-05
1.7408875e-05
1.9405464e-05
2.172705e-05
2.4442529e-05
2.7637521e-05
3.1416979e-05
3.5908967e-05
4.1275391e-05
4.7717094e-05
5.5460355e-05
6.5255869e-05
7.6629371e-05
9.0425102e-05
0.00010716257
0.00012749132
0.00015219923
0.00018224632
0.00022074445
0.00026554744
0.00032005138
0.00038636277
0.00047141337
0.00057026427
0.00069050442
0.00083678032
0.0010147645
0.001206318
0.0012044872
0.0012026095
0.0012006765
0.0011986786
0.0011966048
0.0011944423
0.0011921765
0.001189791
0.0011872676
0.001184927
0.0011829098
0.0011811763
0.0011796914
0.0011784285
0.0011773669
0.001176474
0.0011757392
0.0011752336
0.001174869
0.0011743404
0.0011744389
0.0011755664
1.0104447e-06
6.3657555e-06
6.3556688e-06
5.7654522e-06
6.3218457e-06
3.9342472e-06
3.9903267e-06
3.5290231e-06
3.5179354e-06
3.4291901e-06
3.4834229e-06
3.5564687e-06
3.6918825e-06
3.8506381e-06
4.0585958e-06
4.3044036e-06
4.5898656e-06
4.9151689e-06
5.2831215e-06
5.6968532e-06
6.1606842e-06
6.679721e-06
7.2530417e-06
7.8995637e-06
8.6231362e-06
9.4342444e-06
1.0345649e-05
1.1372972e-05
1.253544e-05
1.3856802e-05
1.536651e-05
1.710113e-05
1.9106003e-05
2.1437325e-05
2.4165103e-05
2.7376124e-05
3.1175945e-05
3.569462e-05
4.1098752e-05
4.7589179e-05
5.5388695e-05
6.478571e-05
7.6737379e-05
9.0651633e-05
0.00010753403
0.00012803965
0.00015296079
0.00018326367
0.0002221235
0.00026729716
0.00032224057
0.00038907265
0.00047487292
0.00057448108
0.0006956258
0.00084298859
0.0010222876
0.0012053089
0.0012034774
0.0012016033
0.0011996789
0.001197696
0.0011956448
0.0011935142
0.0011912912
0.0011889606
0.0011865053
0.0011842923
0.0011823874
0.0011807527
0.0011793559
0.0011781729
0.001177181
0.0011763469
0.0011756698
0.0011752027
0.001174822
0.0011743248
0.0011744898
0.0011754178
1.0101834e-06
6.4924082e-06
5.612897e-06
5.0048654e-06
4.6000099e-06
3.2090771e-06
3.2124258e-06
2.9281633e-06
2.9288486e-06
2.9129438e-06
2.992808e-06
3.1018293e-06
3.2502597e-06
3.4385424e-06
3.6656865e-06
3.9283835e-06
4.2284121e-06
4.5672252e-06
4.9478763e-06
5.3739022e-06
5.8497459e-06
6.3756957e-06
6.9658601e-06
7.624124e-06
8.3591304e-06
9.1813268e-06
1.0103449e-05
1.1141141e-05
1.231372e-05
1.3645132e-05
1.5165152e-05
1.6910802e-05
1.8927997e-05
2.1273847e-05
2.4019642e-05
2.7253003e-05
3.1080128e-05
3.5634957e-05
4.108921e-05
4.7638788e-05
5.5502455e-05
6.5464549e-05
7.7051279e-05
9.1104523e-05
0.00010815531
0.00012886471
0.00015403115
0.00018462791
0.00022385964
0.00026945301
0.00032489588
0.00039232252
0.00047891459
0.00057938472
0.00070156469
0.0008501779
0.0010309966
0.0012042738
0.0012024478
0.0012005829
0.0011986725
0.0011967092
0.001194685
0.0011925905
0.0011904151
0.0011881455
0.0011857649
0.001183675
0.0011818786
0.0011803391
0.0011790262
0.0011779173
0.0011769878
0.0011762075
0.0011755842
0.0011751487
0.0011747562
0.0011742927
0.0011745008
0.0011752243
7.8424077e-07
6.9962026e-06
4.5885041e-06
3.1296174e-06
3.2551701e-06
2.6253952e-06
2.5824297e-06
2.4346522e-06
2.4547911e-06
2.4926953e-06
2.5980959e-06
2.7295448e-06
2.9044264e-06
3.1132771e-06
3.3569386e-06
3.6345821e-06
3.9482446e-06
4.3001343e-06
4.693495e-06
5.1320819e-06
5.6176037e-06
6.1596302e-06
6.7623993e-06
7.433093e-06
8.1803001e-06
9.0144249e-06
9.9481919e-06
1.0997284e-05
1.2181141e-05
1.3523954e-05
1.5055868e-05
1.6814374e-05
1.884607e-05
2.120918e-05
2.3976089e-05
2.7234702e-05
3.1092836e-05
3.5690365e-05
4.1201011e-05
4.7809149e-05
5.6122752e-05
6.5778266e-05
7.7486986e-05
9.1681714e-05
0.00010890488
0.00012982142
0.00015523764
0.00018613301
0.00022569773
0.00027171016
0.00032765259
0.00039567538
0.00048299977
0.00058432856
0.00070754359
0.00085741199
0.0010397623
0.0012032226
0.0012014081
0.0011995579
0.0011976661
0.0011957264
0.0011937319
0.0011916754
0.001189549
0.0011873441
0.0011850512
0.0011830777
0.0011813839
0.0011799347
0.0011787014
0.0011776612
0.0011767881
0.0011760568
0.0011754793
0.0011750635
0.001174665
0.0011742487
0.0011744542
0.0011749746
6.072761e-07
3.7510889e-06
3.6093624e-06
2.5652493e-06
2.5132829e-06
2.1258106e-06
2.0918068e-06
2.0305551e-06
2.0793407e-06
2.157889e-06
2.2875593e-06
2.443403e-06
2.6379085e-06
2.8638057e-06
3.1220664e-06
3.4133482e-06
3.7399643e-06
4.1045499e-06
4.5104507e-06
4.9615015e-06
5.4621841e-06
6.0151365e-06
6.6304167e-06
7.3134441e-06
8.0727578e-06
8.9187298e-06
9.8640907e-06
1.0924584e-05
1.2119794e-05
1.3474169e-05
1.5018209e-05
1.6789886e-05
1.8836596e-05
2.1217679e-05
2.400607e-05
2.7289876e-05
3.1180223e-05
3.6015709e-05
4.1619745e-05
4.8327609e-05
5.6384741e-05
6.6133182e-05
7.7950943e-05
9.2273051e-05
0.00010965194
0.00013075404
0.00015639382
0.00018920153
0.00022735537
0.00027372895
0.00033010161
0.00039863841
0.00048651584
0.00058857406
0.00071267139
0.00086361422
0.0010472818
0.0012021669
0.0012003696
0.0011985394
0.001196671
0.0011947585
0.0011927959
0.0011907766
0.0011886939
0.0011865401
0.0011843674
0.001182501
0.0011809019
0.0011795363
0.0011783769
0.0011774002
0.0011765798
0.0011758954
0.0011753583
0.0011749568
0.0011745639
0.0011742029
0.0011743752
0.0011747224
4.8449167e-07
2.5425761e-06
2.7863726e-06
2.0233143e-06
1.9519795e-06
1.7280494e-06
1.7146588e-06
1.714452e-06
1.7907923e-06
1.9010064e-06
2.0516937e-06
2.2290861e-06
2.4397051e-06
2.6800147e-06
2.9512937e-06
3.2550435e-06
3.5937444e-06
3.9702369e-06
4.3878925e-06
4.8505503e-06
5.3626413e-06
5.9292981e-06
6.556542e-06
7.2515245e-06
8.0228529e-06
8.8810139e-06
9.8389086e-06
1.0912532e-05
1.2121822e-05
1.3491687e-05
1.5053177e-05
1.6845001e-05
1.8915704e-05
2.1325734e-05
2.4148359e-05
2.7473368e-05
3.1417836e-05
3.6128502e-05
4.1761606e-05
4.8496608e-05
5.6602105e-05
6.6420779e-05
7.8317952e-05
9.2734444e-05
0.00011022471
0.00013256653
0.00015854927
0.0001901111
0.00022846026
0.00027506437
0.00033170969
0.00040435326
0.00048867409
0.00059117726
0.00071581735
0.00086742832
0.001051926
0.0012011181
0.0011993436
0.0011975389
0.0011956991
0.0011938188
0.0011918928
0.0011899152
0.0011878801
0.0011857809
0.0011837159
0.0011819448
0.0011804301
0.0011791393
0.001178046
0.0011771261
0.0011763537
0.0011757133
0.0011752115
0.0011748228
0.0011744459
0.001174141
0.0011742711
0.0011744721
3.8155989e-07
1.9873454e-06
2.0883953e-06
1.6069588e-06
1.5303643e-06
1.4146666e-06
1.4247251e-06
1.4695164e-06
1.5705323e-06
1.7051972e-06
1.8730995e-06
2.0678349e-06
2.2912675e-06
2.5432761e-06
2.825398e-06
3.1395643e-06
3.4883249e-06
3.8746052e-06
4.3017776e-06
4.7736692e-06
5.2946703e-06
5.8698682e-06
6.5052314e-06
7.2078566e-06
7.9862965e-06
8.8509887e-06
9.8148003e-06
1.0893728e-05
1.2107759e-05
1.3481856e-05
1.5047155e-05
1.6842695e-05
1.8917516e-05
2.1331849e-05
2.4158496e-05
2.7490178e-05
3.1448263e-05
3.6172429e-05
4.1805854e-05
4.8544563e-05
5.6677637e-05
6.7017992e-05
7.9034759e-05
9.3591416e-05
0.00011124326
0.0001326639
0.00015867197
0.00019026199
0.00022864297
0.00027528115
0.00033498917
0.00040437253
0.00048869969
0.00059121455
0.00071587752
0.00086753185
0.0010521066
0.0012000897
0.0011983429
0.0011965683
0.0011947613
0.0011929173
0.0011910315
0.0011890987
0.0011871139
0.0011850714
0.0011830981
0.0011814085
0.0011799659
0.0011787392
0.0011777024
0.001176831
0.0011761008
0.0011754991
0.0011750263
0.0011746497
0.0011742955
0.001174038
0.0011741202
0.0011741982
2.6575987e-07
1.5485122e-06
1.5375811e-06
1.2930425e-06
1.2200424e-06
1.1771204e-06
1.2133282e-06
1.2935048e-06
1.4174441e-06
1.5726053e-06
1.7561109e-06
1.965587e-06
2.2015237e-06
2.4649671e-06
2.757773e-06
3.0817216e-06
3.4401696e-06
3.8357957e-06
4.2720014e-06
4.7526035e-06
5.2819704e-06
5.865161e-06
6.5081012e-06
7.2178386e-06
8.0028665e-06
8.8735597e-06
9.8427318e-06
1.0926347e-05
1.2144358e-05
1.3521681e-05
1.5089514e-05
1.6887185e-05
1.8963628e-05
2.1377943e-05
2.429274e-05
2.7648401e-05
3.1636951e-05
3.6384206e-05
4.203377e-05
4.8808622e-05
5.6998408e-05
6.6903192e-05
7.8882306e-05
9.3393606e-05
0.00011098593
0.00013233065
0.00015824068
0.00019139789
0.00022989802
0.00027665958
0.00033346759
0.00040249548
0.0004863917
0.00058838693
0.00071242698
0.00086333845
0.0010470321
0.0011990905
0.0011973757
0.001195635
0.0011938645
0.0011920599
0.0011902169
0.0011883311
0.0011863977
0.001184412
0.0011825124
0.0011808881
0.0011795035
0.0011783283
0.0011773365
0.0011765039
0.0011758081
0.0011752378
0.0011747872
0.0011744215
0.0011740914
0.0011738689
0.0011739019
0.0011738856
2.7230978e-07
1.2549224e-06
1.1215454e-06
1.0445039e-06
1.0015454e-06
1.0035581e-06
1.061826e-06
1.1647983e-06
1.3030652e-06
1.4692385e-06
1.660311e-06
1.875641e-06
2.1159854e-06
2.3828227e-06
2.6781179e-06
3.0042177e-06
3.3638314e-06
3.7600052e-06
4.1960723e-06
4.6754687e-06
5.2025456e-06
5.7823782e-06
6.4208814e-06
7.1250649e-06
7.9033667e-06
8.7660861e-06
9.7259512e-06
1.0798815e-05
1.2004463e-05
1.3367627e-05
1.4919448e-05
1.6699053e-05
1.8754221e-05
2.1142876e-05
2.3940218e-05
2.7244916e-05
3.1167474e-05
3.582026e-05
4.1362795e-05
4.8033279e-05
5.6095171e-05
6.5832557e-05
7.8209676e-05
9.2583544e-05
0.00011000563
0.00013113913
0.00015678911
0.00018793416
0.00022576391
0.00027172554
0.00032758066
0.0003954755
0.00047802689
0.00057842859
0.00070058336
0.00084926725
0.0010303316
0.0011981296
0.0011964524
0.0011947506
0.0011930207
0.0011912592
0.001189462
0.0011876255
0.0011857456
0.0011838183
0.0011819697
0.0011803909
0.0011790468
0.0011779074
0.0011769467
0.0011761406
0.0011754685
0.001174919
0.001174481
0.0011741222