/*--------------------------------*- C++ -*----------------------------------*\
  =========                 |
  \\      /  F ield         | OpenFOAM: The Open Source CFD Toolbox
   \\    /   O peration     | Website:  https://openfoam.org
    \\  /    A nd           | Version:  6
     \\/     M anipulation  |
\*---------------------------------------------------------------------------*/
FoamFile
{
    version     2.0;
    format      ascii;
    class       volScalarField;
    location    "300";
    object      k;
}
// * * * * * * * * * * * * * * * * * * * * * * * * * * * * * * * * * * * * * //

dimensions      [0 2 -2 0 0 0 0];

internalField   nonuniform List<scalar> 
16000
(
0.11523308
0.031591193
0.022273079
0.017528511
0.015276625
0.014221207
0.013271927
0.012885886
0.012439334
0.012202423
0.011954803
0.011780224
0.011620664
0.011489856
0.011382111
0.011293752
0.011219896
0.011157783
0.011104912
0.011059599
0.011020444
0.0109864
0.010956608
0.010930398
0.010907219
0.01088663
0.010868262
0.01085181
0.010837016
0.010823665
0.010811569
0.010800568
0.010790506
0.01078128
0.010772765
0.010764875
0.010757521
0.010750613
0.010744066
0.010737799
0.010731732
0.010725787
0.01071989
0.010713972
0.010707964
0.010701798
0.010695402
0.010688706
0.010681636
0.010674119
0.010666078
0.01065743
0.01064809
0.010637961
0.010626929
0.01061484
0.010601479
0.010586524
0.010569337
0.010548009
0.010520768
0.010487039
0.010446102
0.0103979
0.010343828
0.010287546
0.010233947
0.010186437
0.010144997
0.010109944
0.010079746
0.010057183
0.010035998
0.010026025
0.010010433
0.010025752
0.010015034
0.010080732
0.010016582
0.010081916
0.098794171
0.032114381
0.021687493
0.017382306
0.015066343
0.01412599
0.013157327
0.012804104
0.012355164
0.012125429
0.011881111
0.011707567
0.0115521
0.011429285
0.011328685
0.011246218
0.011177283
0.011119329
0.011070006
0.011027745
0.010991233
0.010959492
0.010931716
0.010907276
0.010885657
0.010866444
0.010849289
0.010833906
0.010820053
0.010807525
0.010796148
0.010785772
0.010776264
0.010767505
0.010759374
0.010751792
0.010744663
0.010737926
0.010731496
0.010725298
0.010719255
0.010713295
0.010707347
0.010701345
0.010695228
0.01068893
0.010682384
0.010675524
0.010668282
0.010660587
0.010652364
0.010643537
0.01063402
0.010623722
0.010612536
0.010600326
0.010586909
0.010572041
0.010555391
0.010536346
0.010513189
0.010483098
0.010445272
0.010399437
0.010346632
0.010290412
0.010236224
0.010188023
0.010146161
0.010110486
0.010080215
0.010056702
0.010036322
0.01002549
0.0100103
0.010020806
0.010011651
0.010074378
0.010016587
0.010081636
0.086292898
0.03262046
0.021074052
0.017213413
0.014849694
0.014016256
0.013039184
0.012713339
0.012268613
0.012042645
0.011805313
0.011631488
0.011486659
0.011372307
0.011278602
0.011201813
0.011137631
0.011083691
0.011037796
0.010998481
0.01096452
0.010935
0.010909166
0.01088643
0.010866308
0.010848411
0.010832413
0.010818046
0.010805081
0.010793325
0.010782614
0.010772807
0.010763779
0.01075542
0.01074763
0.010740312
0.010733378
0.010726752
0.01072038
0.010714195
0.010708119
0.010702086
0.010696028
0.010689884
0.010683597
0.010677108
0.010670353
0.01066327
0.010655795
0.010647861
0.010639399
0.010630333
0.010620582
0.010610058
0.010598658
0.010586259
0.010572693
0.010557745
0.010541148
0.010522536
0.010501228
0.010475469
0.010441407
0.010398584
0.010347639
0.010291929
0.010237402
0.010188745
0.010146577
0.010110551
0.010080173
0.010056175
0.010036221
0.010024394
0.010010448
0.010017813
0.010009794
0.010067505
0.010014973
0.010074736
0.07759045
0.032947528
0.020456427
0.017022012
0.014631823
0.013890222
0.012920479
0.012611837
0.012180598
0.011952852
0.011727338
0.011559681
0.011425099
0.011318854
0.011231792
0.011160461
0.011100858
0.011050781
0.011008186
0.010971705
0.010940197
0.010912808
0.010888836
0.010867727
0.010849032
0.010832384
0.010817479
0.010804065
0.010791927
0.010780883
0.010770779
0.010761481
0.010752873
0.010744852
0.010737325
0.010730206
0.010723415
0.010716864
0.010710493
0.010704259
0.010698096
0.010691933
0.010685709
0.010679369
0.010672858
0.010666124
0.010659107
0.01065175
0.010643992
0.010635771
0.010627019
0.010617667
0.010607635
0.010596839
0.010585179
0.010572539
0.010558768
0.010543664
0.010526984
0.010508431
0.010487554
0.01046347
0.010433909
0.010394832
0.010346444
0.010291772
0.010237226
0.010188355
0.010146075
0.010109906
0.010079518
0.010055245
0.01003572
0.010023055
0.010010561
0.010015519
0.010008409
0.010059085
0.010014156
0.01007042
0.069941306
0.032989154
0.019846956
0.016806665
0.0144144
0.013747328
0.012801847
0.012499285
0.012091276
0.011856513
0.011647619
0.011492262
0.011367525
0.01126904
0.011188366
0.011122278
0.01106708
0.011020716
0.010981294
0.010947534
0.010918379
0.010893032
0.010870837
0.010851279
0.010833936
0.010818467
0.010804586
0.010792057
0.010780678
0.01077028
0.010760716
0.010751861
0.010743606
0.010735855
0.010728521
0.010721526
0.010714796
0.010708261
0.010701845
0.010695494
0.010689177
0.010682823
0.010676373
0.010669776
0.010662984
0.010655948
0.010648615
0.010640929
0.010632837
0.010624277
0.010615188
0.010605501
0.010595142
0.010584028
0.010572064
0.010559138
0.01054511
0.010529794
0.01051296
0.010494344
0.010473583
0.01045008
0.010422626
0.010388075
0.010343006
0.010289953
0.010235726
0.010186882
0.010144694
0.010108586
0.010078299
0.010053952
0.010034798
0.010021648
0.010010414
0.010012829
0.010007433
0.010051122
0.010013653
0.010063569
0.063217036
0.032611146
0.019258755
0.016566267
0.01419936
0.013586768
0.012684076
0.012375079
0.012000628
0.011765929
0.011572947
0.011429272
0.011313975
0.01122291
0.011148366
0.011087306
0.011036334
0.010993531
0.010957151
0.010925997
0.01089909
0.010875688
0.010855181
0.010837089
0.010821017
0.010806647
0.010793713
0.010781992
0.010771297
0.010761468
0.010752368
0.010743881
0.010735904
0.010728347
0.010721131
0.010714183
0.010707437
0.01070083
0.010694303
0.010687784
0.010681239
0.010674632
0.010667895
0.010660982
0.010653852
0.01064646
0.010638758
0.010630696
0.010622221
0.010613277
0.010603806
0.010593743
0.010583016
0.010571545
0.010559239
0.010545989
0.010531665
0.010516092
0.010499054
0.010480306
0.010459532
0.010436259
0.010409672
0.010378084
0.010337191
0.010286419
0.01023288
0.010184308
0.010142421
0.010106572
0.010076512
0.010052261
0.010033454
0.010020096
0.010009955
0.010010085
0.0100066
0.01004439
0.010013315
0.010058768
0.057306672
0.031699504
0.018701956
0.016299317
0.013988365
0.013407731
0.012567684
0.01224257
0.011907137
0.011681183
0.01150339
0.011370807
0.011264537
0.011180558
0.011111884
0.011055634
0.01100871
0.010969313
0.010935838
0.010907168
0.0108824
0.01086084
0.010841925
0.010825206
0.010810316
0.010796957
0.010784882
0.010773883
0.010763785
0.010754439
0.010745717
0.010737511
0.010729725
0.010722278
0.010715095
0.010708112
0.010701269
0.010694509
0.010687779
0.010681028
0.010674194
0.010667266
0.010660179
0.01065289
0.010645366
0.010637566
0.010629446
0.010620959
0.010612058
0.010602689
0.010592797
0.010582321
0.01057119
0.010559329
0.010546648
0.010533043
0.010518389
0.010502525
0.010485244
0.010466317
0.010445458
0.010422265
0.010396101
0.010365811
0.010328887
0.010281161
0.010228706
0.01018065
0.010139276
0.01010388
0.010074189
0.010050189
0.010031719
0.010018389
0.010009163
0.010007582
0.010005739
0.01003757
0.01001284
0.010053677
0.052113295
0.030451183
0.018179853
0.016003728
0.01378321
0.013209455
0.012452819
0.012117758
0.011810311
0.011602342
0.011439008
0.01131695
0.011219293
0.01114207
0.011079002
0.011027344
0.010984283
0.010948132
0.01091742
0.010891108
0.010868359
0.010848531
0.010831101
0.010815653
0.010801843
0.010789396
0.010778081
0.010767704
0.010758104
0.010749141
0.010740698
0.010732674
0.010724984
0.010717551
0.010710309
0.0107032
0.010696172
0.010689175
0.010682162
0.010675091
0.010667914
0.010660591
0.010653094
0.010645372
0.010637402
0.010629145
0.010620561
0.010611609
0.010602244
0.010592415
0.01058207
0.010571149
0.010559587
0.010547308
0.010534228
0.010520243
0.010505235
0.010489053
0.010471501
0.010452362
0.010431375
0.010408184
0.010382263
0.010352743
0.010317961
0.01027418
0.010223246
0.010175942
0.010135289
0.010100536
0.010071363
0.010047752
0.010029636
0.010016518
0.01000804
0.010005284
0.010004811
0.010030825
0.010012175
0.010049073
0.047549853
0.029240647
0.017675489
0.015678315
0.013585718
0.012999875
0.012338089
0.012001598
0.011720563
0.011529485
0.011379867
0.011267794
0.011178332
0.011107542
0.011049811
0.011002527
0.010963139
0.010930068
0.010901971
0.010877878
0.010857022
0.010838803
0.010822741
0.010808446
0.010795602
0.010783953
0.010773283
0.010763414
0.010754197
0.010745505
0.010737229
0.010729277
0.010721573
0.010714049
0.010706647
0.010699315
0.010692009
0.010684687
0.010677309
0.01066984
0.010662243
0.010654466
0.010646503
0.010638296
0.010629832
0.010621075
0.01061199
0.010602538
0.010592677
0.01058236
0.010571536
0.010560148
0.010548133
0.010535418
0.010521919
0.010507538
0.01049216
0.010475642
0.0104578
0.010438428
0.010417284
0.010394049
0.010368274
0.010339264
0.010305815
0.010265492
0.010216571
0.010170245
0.010130513
0.010096583
0.010068084
0.010044988
0.010027265
0.010014495
0.010006616
0.010003168
0.010003812
0.01002451
0.010011309
0.010044215
0.043533079
0.028127831
0.017189057
0.015322979
0.013396588
0.012803703
0.012221393
0.011894069
0.011637872
0.011462674
0.01132603
0.011223425
0.01114174
0.011077064
0.011024401
0.010981268
0.010945357
0.010915194
0.010889552
0.010867533
0.010848427
0.010831682
0.010816852
0.010803579
0.010791568
0.010780584
0.010770427
0.010760935
0.010751971
0.01074342
0.010735184
0.010727181
0.010719345
0.010711616
0.010703945
0.010696289
0.01068861
0.010680875
0.010673051
0.010665109
0.010657016
0.010648737
0.010640254
0.010631517
0.010622517
0.010613226
0.010603609
0.010593631
0.010583252
0.010572427
0.010561108
0.010549238
0.010536757
0.010523593
0.010509666
0.01049488
0.010479124
0.010462261
0.010444121
0.010424504
0.010403189
0.010379884
0.010354199
0.010325559
0.010293055
0.010255111
0.01020878
0.01016364
0.010125016
0.01009208
0.010064409
0.010041948
0.010024676
0.010012346
0.010004944
0.010001218
0.010002747
0.010018817
0.010010302
0.010039649
0.039990059
0.027089061
0.01672235
0.014936814
0.013214553
0.012621333
0.012099995
0.011795141
0.011562224
0.011401972
0.01127757
0.011183937
0.011109613
0.011050735
0.011002867
0.010963656
0.01093102
0.01090358
0.010880221
0.01086011
0.010842597
0.010827169
0.010813418
0.010801012
0.010789681
0.010779208
0.010769413
0.010760147
0.010751287
0.010742732
0.010734395
0.010726207
0.01071811
0.010710056
0.010702004
0.01069392
0.010685775
0.010677542
0.010669196
0.010660713
0.010652067
0.010643236
0.010634187
0.010624883
0.010615318
0.010605466
0.010595298
0.010584778
0.010573868
0.010562525
0.010550702
0.010538344
0.010525393
0.010511777
0.01049742
0.010482228
0.010466094
0.010448887
0.010430447
0.010410585
0.010389094
0.010365709
0.010340085
0.010311734
0.010279919
0.010243411
0.010200001
0.010156237
0.010118887
0.010087102
0.010060407
0.010038695
0.01002195
0.010010115
0.010003097
0.009999423
0.010001623
0.01001385
0.010009236
0.010034732
0.03685771
0.026100689
0.016276932
0.014528181
0.013037943
0.012453406
0.011982986
0.011704788
0.011493626
0.011347455
0.011234576
0.011149436
0.011082059
0.011028663
0.010985309
0.010949782
0.010920201
0.010895285
0.010874015
0.010855627
0.010839524
0.010825232
0.010812379
0.01080066
0.01078983
0.010779691
0.010770081
0.010760869
0.010751947
0.010743228
0.010734639
0.010726123
0.010717633
0.010709131
0.010700587
0.010691976
0.010683275
0.010674467
0.010665532
0.010656452
0.010647207
0.010637782
0.010628135
0.01061824
0.010608092
0.010597668
0.010586939
0.010575871
0.010564427
0.010552567
0.010540242
0.010527401
0.010513983
0.010499922
0.010485141
0.01046955
0.010453046
0.010435503
0.010416771
0.010396673
0.010375012
0.010351549
0.010325976
0.01029788
0.010266661
0.010231373
0.01019039
0.010148165
0.010112232
0.010081735
0.010056151
0.010035302
0.010019168
0.010007856
0.010001159
0.0099977731
0.010000456
0.010009655
0.010008286
0.010030397
0.034080975
0.025137674
0.015854026
0.014155564
0.012864114
0.012299906
0.011876403
0.01162297
0.011432093
0.0112992
0.011197142
0.011120029
0.011059186
0.011010951
0.010971819
0.010939721
0.010912957
0.01089034
0.010870943
0.010854064
0.010839156
0.010825787
0.010813619
0.010802376
0.010791838
0.010781828
0.010772206
0.010762857
0.010753691
0.010744636
0.010735636
0.010726645
0.01071763
0.010708563
0.010699423
0.010690194
0.010680861
0.010671413
0.010661836
0.010652118
0.01064224
0.010632193
0.010621936
0.010611441
0.010600705
0.010589709
0.010578423
0.010566814
0.010554847
0.010542479
0.010529664
0.010516351
0.010502482
0.010487989
0.010472799
0.010456824
0.010439965
0.010422103
0.010403097
0.010382777
0.010360963
0.010337433
0.010311915
0.010284053
0.010253361
0.010219111
0.010180124
0.010139576
0.010105175
0.010076079
0.010051722
0.010031843
0.010016414
0.010005634
0.0099992166
0.0099962539
0.0099992489
0.01000617
0.010007408
0.010026706
0.031612788
0.024174319
0.015452745
0.013816843
0.012689348
0.012160425
0.011780046
0.011549683
0.011377686
0.011257308
0.011165387
0.011095839
0.011041112
0.010997701
0.010962487
0.010933538
0.010909321
0.010888742
0.01087096
0.010855334
0.010841367
0.010828668
0.010816935
0.010805923
0.010795437
0.010785327
0.010775473
0.010765781
0.010756179
0.010746615
0.010737045
0.010727439
0.010717775
0.010708037
0.010698213
0.010688294
0.010678271
0.010668139
0.010657887
0.010647507
0.010636982
0.010626307
0.010615441
0.010604351
0.010593039
0.010581485
0.010569659
0.010557528
0.010545056
0.010532202
0.010518919
0.010505156
0.010490856
0.010475954
0.010460377
0.010444041
0.010426851
0.010408693
0.010389435
0.010368919
0.010346975
0.010323401
0.010297951
0.01027032
0.010240106
0.010206751
0.0101694
0.010130637
0.010097855
0.010070241
0.010047201
0.010028392
0.010013762
0.010003519
0.0099973562
0.0099948536
0.009997994
0.01000326
0.010006553
0.0100236
0.029412122
0.023182319
0.015072022
0.013510348
0.012512082
0.012034559
0.011693748
0.011484927
0.011330476
0.011221885
0.011139433
0.011076984
0.011027955
0.010989009
0.01095737
0.010931247
0.01090926
0.010890409
0.010873933
0.010859253
0.010845924
0.010833599
0.01082201
0.010810949
0.01080025
0.01078979
0.010779472
0.010769227
0.010759001
0.010748758
0.010738473
0.010728128
0.010717714
0.010707222
0.01069665
0.010685993
0.010675248
0.01066441
0.010653476
0.010642433
0.01063127
0.010619981
0.010608524
0.01059686
0.010584997
0.010572912
0.010560575
0.010547952
0.010535006
0.010521696
0.010507975
0.010493793
0.010479092
0.01046381
0.010447875
0.010431207
0.010413715
0.010395291
0.010375812
0.01035513
0.010333088
0.010309499
0.010284143
0.010256751
0.010226991
0.010194423
0.010158429
0.010121527
0.010090421
0.010064337
0.010042671
0.010025015
0.010011271
0.010001583
0.009995666
0.0099935792
0.009996688
0.010000785
0.010005603
0.010021019
0.027443822
0.02213122
0.01471009
0.013235004
0.012352702
0.011921935
0.011617405
0.011428729
0.011290562
0.011193046
0.011119429
0.011063597
0.011019807
0.010984916
0.010956453
0.010932772
0.010912635
0.010895136
0.010879597
0.010865499
0.010852454
0.01084016
0.010828391
0.010816974
0.010805779
0.010794712
0.010783702
0.010772702
0.010761679
0.010750615
0.010739497
0.010728321
0.010717085
0.01070579
0.010694437
0.010683026
0.010671555
0.010660021
0.010648419
0.010636738
0.010624966
0.010613098
0.010601085
0.010588885
0.01057651
0.010563934
0.010551126
0.010538051
0.010524671
0.010510943
0.010496822
0.010482257
0.010467192
0.010451565
0.010435308
0.010418343
0.010400583
0.01038193
0.010362265
0.010341454
0.010319351
0.010295785
0.010270556
0.010243427
0.010214113
0.010182266
0.010147423
0.010112433
0.010083028
0.010058489
0.010038215
0.010021765
0.010008981
0.0099998803
0.0099942309
0.0099924637
0.0099953566
0.0099986601
0.010004417
0.010018798
0.025678342
0.020988676
0.014364198
0.012988655
0.012210256
0.011822222
0.011550962
0.011381132
0.011258056
0.011170947
0.0111055
0.011055751
0.011016679
0.01098536
0.010959596
0.010937892
0.010919147
0.01090255
0.010887507
0.010873569
0.010860403
0.010847764
0.010835468
0.010823383
0.010811414
0.010799497
0.010787589
0.010775665
0.010763709
0.010751718
0.010739692
0.010727634
0.010715549
0.010703442
0.010691314
0.010679168
0.010667
0.010654808
0.010642582
0.010630309
0.010617979
0.010605585
0.010593062
0.010580378
0.010567542
0.010554526
0.010541295
0.010527816
0.010514048
0.010499949
0.010485472
0.010470567
0.010455179
0.010439249
0.010422709
0.010405487
0.0103875
0.010368656
0.010348846
0.010327947
0.010305825
0.010282325
0.010257264
0.010230431
0.010201579
0.010170418
0.010136594
0.010103535
0.010075833
0.01005282
0.01003392
0.010018686
0.010006903
0.0099984387
0.0099931083
0.009991556
0.009994074
0.0099968767
0.010003187
0.010016729
0.0240917
0.019721769
0.014029972
0.012769566
0.012084077
0.01173526
0.011494462
0.011342168
0.011233113
0.011155695
0.011097697
0.011053413
0.011018447
0.010990114
0.01096647
0.010946177
0.010928271
0.010912045
0.010896992
0.010882743
0.010869027
0.010855654
0.010842488
0.010829441
0.010816452
0.010803485
0.010790523
0.010777558
0.010764591
0.010751626
0.010738671
0.010725734
0.01071282
0.010699935
0.01068708
0.010674253
0.01066145
0.010648664
0.010635881
0.010623084
0.010610265
0.010597408
0.010584436
0.01057133
0.010558094
0.010544695
0.0105311
0.01051727
0.010503167
0.010488747
0.010473962
0.010458765
0.010443101
0.010426912
0.010410135
0.010392699
0.010374528
0.010355536
0.010335624
0.01031468
0.010292583
0.010269194
0.010244348
0.010217854
0.010189495
0.010159019
0.010126141
0.010095007
0.010068986
0.010047455
0.010029876
0.010015823
0.010005032
0.0099972445
0.0099923054
0.0099908958
0.0099929217
0.0099953724
0.010002062
0.010014685
0.02266593
0.018526721
0.013698378
0.012576393
0.011973692
0.011660808
0.011448021
0.01131208
0.011215889
0.011147344
0.011095956
0.011056379
0.011024764
0.01099869
0.010976458
0.010956896
0.010939181
0.010922729
0.010907124
0.010892076
0.010877385
0.010862918
0.010848587
0.010834342
0.010820155
0.010806014
0.010791918
0.010777873
0.010763887
0.010749969
0.010736127
0.010722369
0.010708697
0.010695112
0.010681613
0.010668192
0.010654841
0.010641548
0.010628292
0.010615055
0.010601829
0.010588581
0.01057523
0.010561773
0.010548204
0.010534487
0.010520587
0.010506465
0.010492082
0.010477395
0.010462356
0.010446917
0.010431026
0.010414627
0.010397659
0.010380057
0.010361748
0.010342653
0.010322683
0.010301738
0.010279711
0.010256478
0.010231894
0.010205788
0.010177965
0.0101482
0.010116246
0.010087003
0.010062619
0.010042511
0.010026178
0.010013229
0.010003371
0.0099962632
0.0099917806
0.0099904943
0.0099919937
0.0099941288
0.010000921
0.010012556
0.021383475
0.017507655
0.013394971
0.012408317
0.011878816
0.011598688
0.011411214
0.011290999
0.011206407
0.011145723
0.011099922
0.011064097
0.011034899
0.011010195
0.010988533
0.010968931
0.010950712
0.010933414
0.010916724
0.010900433
0.010884409
0.010868571
0.010852875
0.010837301
0.010821843
0.010806504
0.010791292
0.010776216
0.010761284
0.010746502
0.010731876
0.010717405
0.010703087
0.010688918
0.010674887
0.010660982
0.010647188
0.010633488
0.010619856
0.010606271
0.010592726
0.010579165
0.010565514
0.010551779
0.010537945
0.010523975
0.010509833
0.01049548
0.010480876
0.010465977
0.010450737
0.01043511
0.010419044
0.010402486
0.010385377
0.010367657
0.010349258
0.010330107
0.010310125
0.010289222
0.010267306
0.01024427
0.010219989
0.010194317
0.010167081
0.010138075
0.010107066
0.01007965
0.010056843
0.010038087
0.010022916
0.010010971
0.010001941
0.0099954667
0.0099914557
0.0099902966
0.0099913511
0.0099932044
0.0099996599
0.010010207
0.02022752
0.016645082
0.013128201
0.012264473
0.011798723
0.011548595
0.011384741
0.011278786
0.011204307
0.011150187
0.011108708
0.011075454
0.011047561
0.011023208
0.011001207
0.010980767
0.010961367
0.010942668
0.010924457
0.0109066
0.010889021
0.010871681
0.010854563
0.010837664
0.010820988
0.01080454
0.010788328
0.010772353
0.010756619
0.010741124
0.010725863
0.010710828
0.010696009
0.010681392
0.010666959
0.010652694
0.010638575
0.010624576
0.010610667
0.010596833
0.010583058
0.010569263
0.010555387
0.010541448
0.010527419
0.010513262
0.010498942
0.010484418
0.01046965
0.010454596
0.010439212
0.01042345
0.010407262
0.010390597
0.0103734
0.010355612
0.010337173
0.010318015
0.010298066
0.010277248
0.01025548
0.010232673
0.010208725
0.010183517
0.010156908
0.010128722
0.010098728
0.010073047
0.010051734
0.010034252
0.010020161
0.010009116
0.010000797
0.009994865
0.0099912694
0.0099902016
0.0099908477
0.0099923347
0.0099982943
0.010007545
0.019179579
0.015896795
0.012892313
0.012138497
0.011731984
0.011510761
0.011368092
0.011274648
0.011208494
0.011159352
0.011120684
0.011088638
0.011060827
0.011035781
0.011012565
0.010990584
0.010969469
0.010948991
0.010929017
0.01090947
0.01089031
0.010871517
0.010853084
0.01083501
0.010817292
0.010799928
0.010782915
0.010766244
0.010749905
0.010733886
0.010718171
0.010702742
0.010687581
0.010672664
0.010657968
0.01064347
0.010629142
0.010614952
0.010600869
0.010586885
0.010572964
0.010559004
0.010544981
0.01053091
0.010516753
0.010502476
0.010488039
0.010473404
0.010458532
0.01044338
0.010427905
0.010412064
0.010395808
0.01037909
0.010361857
0.010344056
0.010325628
0.010306512
0.010286644
0.010265952
0.010244368
0.010221815
0.010198211
0.010173464
0.010147478
0.010120142
0.010091337
0.010067267
0.01004734
0.010031042
0.010017947
0.010007715
0.010000013
0.0099945339
0.0099912509
0.0099901798
0.009990465
0.0099916749
0.0099968
0.010004545
0.018227981
0.015236299
0.012687043
0.012028665
0.01167875
0.011484742
0.011360268
0.011277094
0.011217067
0.011170989
0.01113342
0.011101139
0.01107224
0.011045586
0.011020486
0.010996518
0.010973431
0.010951077
0.010929368
0.010908253
0.010887701
0.01086769
0.010848202
0.010829223
0.010810736
0.010792722
0.010775162
0.010758034
0.010741314
0.010724978
0.010709
0.010693354
0.01067801
0.010662939
0.010648114
0.010633506
0.01061908
0.010604799
0.010590645
0.010576601
0.010562598
0.010548546
0.010534458
0.010520323
0.010506105
0.010491769
0.010477277
0.01046259
0.01044767
0.010432476
0.010416968
0.010401101
0.010384832
0.010368115
0.010350901
0.010333139
0.010314777
0.010295757
0.01027602
0.010255503
0.010234143
0.010211871
0.010188616
0.010164296
0.010138828
0.010112118
0.010084978
0.010062361
0.010043687
0.010028458
0.010016266
0.010006766
0.009999619
0.0099945523
0.0099915246
0.0099904109
0.0099904383
0.0099915179
0.0099958611
0.010002179
0.017364319
0.014623145
0.012511208
0.011938995
0.011638845
0.011468702
0.011358826
0.011283162
0.011226756
0.011181703
0.011143595
0.011109852
0.011079013
0.011050224
0.011022986
0.010996991
0.010972057
0.010948064
0.010924933
0.010902605
0.010881035
0.01086018
0.010840003
0.010820466
0.010801533
0.010783168
0.010765335
0.010747999
0.010731124
0.010714675
0.010698618
0.010682918
0.010667541
0.010652453
0.010637623
0.010623016
0.010608593
0.01059432
0.010580185
0.010566158
0.010552137
0.010538073
0.010523987
0.010509855
0.01049564
0.010481306
0.010466818
0.010452137
0.010437226
0.010422047
0.010406559
0.010390722
0.010374495
0.010357833
0.010340692
0.010323025
0.010304782
0.010285913
0.010266361
0.010246073
0.01022499
0.010203052
0.010180195
0.010156351
0.010131445
0.010105399
0.01007972
0.010058371
0.010040787
0.010026491
0.010015083
0.010006215
0.0099995558
0.0099948607
0.0099920547
0.0099909138
0.0099907959
0.0099918261
0.009995532
0.010000656
0.016589855
0.014084577
0.012363639
0.011867162
0.011609357
0.011458789
0.011359442
0.011288259
0.011233064
0.011187317
0.011147525
0.011111679
0.011078659
0.0110478
0.011018698
0.010991093
0.010964805
0.010939704
0.010915685
0.010892664
0.010870563
0.010849315
0.010828857
0.010809132
0.010790086
0.010771666
0.010753824
0.010736513
0.010719691
0.010703315
0.010687344
0.01067174
0.010656463
0.010641479
0.010626753
0.010612246
0.010597917
0.010583743
0.010569713
0.010555761
0.010541784
0.010527781
0.010513765
0.010499699
0.010485548
0.010471276
0.01045685
0.010442232
0.010427387
0.010412277
0.010396866
0.010381114
0.010364982
0.010348429
0.010331414
0.010313894
0.010295823
0.010277155
0.01025784
0.010237827
0.010217068
0.010195507
0.01017309
0.010149756
0.010125443
0.010100084
0.010075622
0.010055327
0.01003865
0.010025128
0.010014368
0.010006021
0.0099997668
0.0099953803
0.0099927449
0.0099915844
0.0099914023
0.0099924144
0.0099955864
0.0099997177
0.015906253
0.013640229
0.012241711
0.011809377
0.011585373
0.011449324
0.011356432
0.011287071
0.011231407
0.011184133
0.011142451
0.011104737
0.011070055
0.011037806
0.011007594
0.010979139
0.010952227
0.010926695
0.010902406
0.01087924
0.010857097
0.010835885
0.010815523
0.010795937
0.010777062
0.010758835
0.010741201
0.010724108
0.010707506
0.01069135
0.010675596
0.010660204
0.010645135
0.010630351
0.010615817
0.010601489
0.010587333
0.010573339
0.010559474
0.010545635
0.01053177
0.010517903
0.010504014
0.010490073
0.010476042
0.01046189
0.010447581
0.010433082
0.010418358
0.010403372
0.010388091
0.010372477
0.010356493
0.010340103
0.010323266
0.010305943
0.010288092
0.010269672
0.010250638
0.010230943
0.010210545
0.010189396
0.010167446
0.010144643
0.010120933
0.010096258
0.010072737
0.010053253
0.010037274
0.010024345
0.010014076
0.010006122
0.010000174
0.009996017
0.0099934933
0.009992309
0.0099920954
0.0099930669
0.009995765
0.0099990909
0.015282038
0.013261616
0.012134618
0.011756745
0.011558187
0.011432242
0.011342856
0.01127397
0.011217543
0.011169184
0.011126477
0.011087965
0.011052741
0.011020188
0.010989871
0.010961468
0.01093473
0.010909461
0.010885499
0.010862711
0.010840979
0.010820195
0.01080027
0.010781121
0.010762677
0.010744871
0.010727646
0.010710947
0.010694725
0.010678932
0.010663527
0.010648466
0.010633713
0.010619232
0.010604981
0.01059092
0.01057703
0.010563299
0.010549657
0.010536002
0.010522335
0.010508676
0.01049499
0.010481243
0.010467404
0.010453439
0.010439317
0.010425002
0.010410464
0.010395668
0.01038058
0.010365167
0.010349393
0.010333223
0.01031662
0.010299548
0.010281969
0.010263843
0.010245131
0.010225792
0.010205786
0.010185072
0.010163609
0.010141353
0.010118257
0.010094277
0.010071343
0.010052367
0.010036822
0.010024258
0.010014284
0.010006557
0.010000782
0.009996741
0.0099942443
0.009993006
0.0099927697
0.0099937177
0.0099960684
0.009998844
0.014475074
0.01278503
0.011938183
0.011632284
0.011469245
0.011363929
0.011287385
0.011226929
0.011176419
0.011132521
0.01109335
0.011057751
0.011024973
0.0109945
0.01096596
0.010939073
0.010913625
0.010889443
0.010866388
0.01084444
0.010823513
0.010803496
0.010784295
0.010765828
0.010748023
0.010730816
0.010714149
0.010697972
0.010682236
0.010666898
0.010651916
0.010637253
0.010622875
0.010608746
0.010594825
0.010581085
0.010567518
0.010554084
0.010540676
0.010527256
0.010513854
0.010500449
0.01048701
0.010473506
0.010459904
0.010446175
0.010432287
0.010418207
0.010403905
0.010389349
0.010374505
0.010359343
0.010343827
0.010327925
0.010311603
0.010294824
0.010277554
0.010259756
0.010241391
0.010222422
0.010202812
0.010182522
0.010161514
0.010139747
0.01011718
0.010093769
0.010071148
0.010052437
0.010037112
0.01002472
0.01001487
0.010007219
0.010001479
0.0099974223
0.0099948332
0.0099934602
0.0099931305
0.0099939115
0.0099957595
0.0099979869
0.014023758
0.012587678
0.011824749
0.011548636
0.011399549
0.011302386
0.01123122
0.011174793
0.011127519
0.011086422
0.011049806
0.011016626
0.010986195
0.010958031
0.010931779
0.010907168
0.010883979
0.010862034
0.010841186
0.01082122
0.010802017
0.010783508
0.010765635
0.010748342
0.010731579
0.010715301
0.010699466
0.010684034
0.01066897
0.010654238
0.010639805
0.010625642
0.010611717
0.010598
0.010584485
0.010571156
0.010557988
0.010544904
0.010531827
0.010518764
0.010505723
0.010492672
0.01047958
0.010466419
0.010453157
0.010439765
0.010426212
0.010412468
0.010398504
0.010384288
0.010369789
0.010354976
0.010339817
0.010324281
0.010308334
0.010291943
0.010275074
0.010257693
0.010239762
0.010221247
0.010202111
0.010182318
0.010161833
0.010140618
0.010118633
0.010095839
0.010072914
0.010053951
0.010038435
0.010025894
0.010015922
0.010008166
0.01000233
0.0099981664
0.0099954453
0.0099939466
0.0099935241
0.0099941296
0.0099956176
0.0099976134
0.013644158
0.012407444
0.011684012
0.011437494
0.011305198
0.011220742
0.011159081
0.0111103
0.011069268
0.011033379
0.011001156
0.010971712
0.010944479
0.010919062
0.010895178
0.010872613
0.010851202
0.01083081
0.010811329
0.010792666
0.010774746
0.010757504
0.010740883
0.010724828
0.01070929
0.010694223
0.010679584
0.010665332
0.01065143
0.010637839
0.010624527
0.010611461
0.010598606
0.010585922
0.010573363
0.010560925
0.010548564
0.010536189
0.010523788
0.010511393
0.010498978
0.010486518
0.010473987
0.010461361
0.010448612
0.010435714
0.01042264
0.010409362
0.010395853
0.010382085
0.010368029
0.010353655
0.010338934
0.010323836
0.010308329
0.010292382
0.010275962
0.010259035
0.010241569
0.010223526
0.010204873
0.010185576
0.010165599
0.010144905
0.010123456
0.010101214
0.010078139
0.01005843
0.010042272
0.010029177
0.010018722
0.010010546
0.010004339
0.0099998348
0.0099967979
0.0099950224
0.0099943523
0.0099946637
0.0099958009
0.0099975922
58.770101
107.6279
61.899796
41.162843
28.219092
19.576404
13.78941
9.8561038
7.1127895
5.1518287
3.7294585
2.6979889
1.9427505
1.3966468
0.9945563
0.7048372
0.49452124
0.3448903
0.2396502
0.16609373
0.11509794
0.080123844
0.056416687
0.040545914
0.030064877
0.02323389
0.018846399
0.016064078
0.014320344
0.013237597
0.012568348
0.012153426
0.011892543
0.011723773
0.011609672
0.011528052
0.011466013
0.011416159
0.011374246
0.011338045
0.011306054
0.011277362
0.011251631
0.011228209
0.011206726
0.011186917
0.011168423
0.011150208
0.011126426
0.011088716
0.011037647
0.01097852
0.010917284
0.010858842
0.010806931
0.010761277
0.010720814
0.010684098
0.010649246