/*--------------------------------*- C++ -*----------------------------------*\
  =========                 |
  \\      /  F ield         | OpenFOAM: The Open Source CFD Toolbox
   \\    /   O peration     | Website:  https://openfoam.org
    \\  /    A nd           | Version:  6
     \\/     M anipulation  |
\*---------------------------------------------------------------------------*/
FoamFile
{
    version     2.0;
    format      ascii;
    class       volScalarField;
    location    "300";
    object      nut;
}
// * * * * * * * * * * * * * * * * * * * * * * * * * * * * * * * * * * * * * //

dimensions      [0 2 -1 0 0 0 0];

internalField   nonuniform List<scalar> 
16000
(
4.2589459e-06
2.0653352e-05
2.4035405e-05
3.2595042e-05
2.7511006e-05
3.493881e-05
3.3210461e-05
3.7517774e-05
3.7617672e-05
3.7988415e-05
3.8038423e-05
3.702327e-05
3.6941354e-05
3.6052157e-05
3.6046086e-05
3.5700905e-05
3.5901216e-05
3.6016367e-05
3.6460758e-05
3.6950281e-05
3.7667069e-05
3.8498082e-05
3.9522735e-05
4.0706439e-05
4.2091396e-05
4.3680556e-05
4.550828e-05
4.7599309e-05
4.9994573e-05
5.2738431e-05
5.5890858e-05
5.9523834e-05
6.3725776e-05
6.8604556e-05
7.4282844e-05
8.0916268e-05
8.8698451e-05
9.7876047e-05
0.00010875582
0.00012170086
0.00013715645
0.00015568093
0.00017796377
0.00020485137
0.00023738656
0.0002768572
0.0003248446
0.00038328794
0.00045455948
0.00054154575
0.00064774078
0.00077734837
0.00093543695
0.0010382889
0.0010392864
0.001039384
0.001038878
0.0010380586
0.0010370706
0.0010358497
0.0010342978
0.0010323815
0.0010300589
0.0010273242
0.001024251
0.0010210401
0.0010179631
0.0010152108
0.0010127833
0.0010106983
0.0010088695
0.0010074517
0.0010060914
0.0010053379
0.0010042402
0.0010048448
0.00100394
0.0010072572
0.0010031884
0.0010061934
3.5833691e-06
2.0436931e-05
2.1908228e-05
2.9776375e-05
2.5325933e-05
3.1526886e-05
3.0530592e-05
3.3687562e-05
3.4422088e-05
3.4087932e-05
3.4522018e-05
3.3190382e-05
3.3266903e-05
3.2316181e-05
3.238625e-05
3.2021159e-05
3.2225778e-05
3.231037e-05
3.2716127e-05
3.3149606e-05
3.3794067e-05
3.4538097e-05
3.5457298e-05
3.6518691e-05
3.7760525e-05
3.918532e-05
4.0823576e-05
4.2697686e-05
4.4844193e-05
4.7303056e-05
5.0126044e-05
5.337437e-05
5.7126985e-05
6.1480091e-05
6.6551456e-05
7.2483765e-05
7.9444829e-05
8.7641043e-05
9.7337932e-05
0.00010887207
0.00012263924
0.00013912557
0.00015893859
0.0001828269
0.0002117057
0.00024670475
0.00028921283
0.00034092967
0.00040393615
0.000480769
0.00057450656
0.00068886943
0.00082834757
0.00099838815
0.00103819
0.0010384233
0.0010379716
0.0010371667
0.001036207
0.0010351106
0.0010337824
0.0010320657
0.0010299143
0.0010273103
0.0010243077
0.0010211007
0.0010179912
0.0010152006
0.0010127495
0.0010106296
0.0010087966
0.0010073252
0.0010060098
0.0010052075
0.0010041318
0.0010044648
0.0010036463
0.0010067941
0.0010030782
0.0010060564
3.0802118e-06
2.022924e-05
2.0208618e-05
2.7355743e-05
2.3572728e-05
2.8591987e-05
2.8480821e-05
3.0243779e-05
3.1695122e-05
3.0446455e-05
3.1274996e-05
2.9580312e-05
2.9860217e-05
2.8858214e-05
2.9000971e-05
2.8628835e-05
2.8841243e-05
2.8909375e-05
2.9285992e-05
2.9679033e-05
3.0265951e-05
3.0941687e-05
3.17756e-05
3.2738252e-05
3.3863439e-05
3.5154287e-05
3.6637742e-05
3.8334492e-05
4.0277203e-05
4.2502032e-05
4.5055574e-05
4.7994147e-05
5.1387477e-05
5.5318868e-05
5.9894634e-05
6.5245159e-05
7.153131e-05
7.894116e-05
8.7697854e-05
9.8095702e-05
0.00011050402
0.00012536015
0.00014319939
0.0001646914
0.00019065378
0.00022208786
0.00026022711
0.00030657876
0.00036298407
0.00043168948
0.00051542159
0.00061748178
0.00074185486
0.00089337093
0.0010370904
0.0010374746
0.0010370832
0.0010362858
0.0010353277
0.0010342538
0.0010330261
0.0010315469
0.0010296023
0.0010271641
0.0010242643
0.0010210857
0.0010179572
0.0010151411
0.0010126727
0.0010105328
0.0010086934
0.0010071943
0.0010059024
0.0010050434
0.0010040369
0.0010041922
0.0010034362
0.0010063007
0.0010028774
0.0010055542
2.7363049e-06
1.9972755e-05
1.873277e-05
2.5090764e-05
2.1931116e-05
2.5909914e-05
2.6518649e-05
2.7140787e-05
2.9068114e-05
2.7163181e-05
2.8211715e-05
2.6370063e-05
2.6748147e-05
2.5765871e-05
2.5937131e-05
2.5587919e-05
2.579399e-05
2.5860227e-05
2.6207728e-05
2.6571077e-05
2.7107777e-05
2.7727015e-05
2.8487939e-05
2.936691e-05
3.0392573e-05
3.1569366e-05
3.2920925e-05
3.4466803e-05
3.6236451e-05
3.8263014e-05
4.0588763e-05
4.3264903e-05
4.6354745e-05
4.9935708e-05
5.4102635e-05
5.8971121e-05
6.4686351e-05
7.1430053e-05
7.941387e-05
8.8886962e-05
0.0001001794
0.00011370236
0.00012994058
0.00014949426
0.00017310827
0.00020168792
0.00023634541
0.00027844337
0.0003296419
0.00039196758
0.00046788236
0.00056037056
0.00067304049
0.0008102578
0.00097733089
0.0010365293
0.0010362084
0.0010354173
0.0010344532
0.0010333811
0.0010321756
0.0010307872
0.0010290895
0.0010268573
0.0010240984
0.001020977
0.001017847
0.0010150184
0.0010125432
0.0010103948
0.0010085542
0.001007039
0.0010057704
0.0010048636
0.0010039379
0.0010039569
0.0010032509
0.0010057199
0.0010027224
0.0010052054
2.4489716e-06
1.9634721e-05
1.749132e-05
2.2998274e-05
2.0430438e-05
2.3464285e-05
2.4697257e-05
2.4316881e-05
2.6556922e-05
2.4159052e-05
2.5312066e-05
2.3472714e-05
2.3881151e-05
2.2961658e-05
2.3135582e-05
2.2826427e-05
2.3019867e-05
2.3092906e-05
2.3413828e-05
2.3755114e-05
2.4248759e-05
2.4820789e-05
2.5519296e-05
2.6326844e-05
2.7267093e-05
2.834591e-05
2.9584046e-05
3.100012e-05
3.2620889e-05
3.4477007e-05
3.660712e-05
3.9058281e-05
4.188862e-05
4.5168933e-05
4.8986336e-05
5.3448136e-05
5.8684526e-05
6.4858005e-05
7.2173728e-05
8.0868919e-05
9.1228365e-05
0.00010362582
0.00011852026
0.00013645526
0.00015811032
0.00018431823
0.00021609231
0.00025467834
0.00030159307
0.00035868629
0.00042820894
0.00051289114
0.00061604062
0.00074165819
0.00089460826
0.0010355816
0.0010353448
0.0010345608
0.0010335867
0.0010325095
0.0010313086
0.0010299505
0.0010283674
0.0010263839
0.0010238077
0.0010207752
0.0010176622
0.0010148343
0.0010123634
0.0010102175
0.0010083817
0.0010068615
0.0010056129
0.001004678
0.0010038223
0.0010036976
0.0010030873
0.0010051642
0.0010025868
0.0010047231
2.2092376e-06
1.917312e-05
1.6451312e-05
2.1039478e-05
1.9047492e-05
2.1201611e-05
2.297048e-05
2.1721367e-05
2.4129374e-05
2.1467918e-05
2.2612313e-05
2.0862938e-05
2.1252836e-05
2.0428389e-05
2.0588631e-05
2.0331112e-05
2.050983e-05
2.0595837e-05
2.0894242e-05
2.1219881e-05
2.167793e-05
2.2211389e-05
2.2857803e-05
2.360558e-05
2.4474043e-05
2.5470339e-05
2.6612845e-05
2.7919408e-05
2.9414612e-05
3.1127048e-05
3.309239e-05
3.5354251e-05
3.7966474e-05
4.0994724e-05
4.4519687e-05
4.8640445e-05
5.347916e-05
5.9184442e-05
6.5941583e-05
7.398235e-05
8.3572364e-05
9.5046743e-05
0.00010883155
0.00012543956
0.00014549139
0.00016976154
0.00019918718
0.00023491818
0.00027835832
0.00033121579
0.00039557217
0.00047395358
0.00056942453
0.00068569452
0.00082726977
0.00099962746
0.0010344881
0.0010337139
0.0010327268
0.0010316405
0.0010304371
0.0010290898
0.0010275526
0.001025731
0.0010233844
0.0010204773
0.0010174014
0.0010145875
0.0010121323
0.0010099999
0.0010081758
0.00100666
0.0010054299
0.0010044825
0.0010036875
0.0010034338
0.0010029307
0.0010046777
0.0010024628
0.0010043631
2.0054018e-06
1.6475093e-05
1.5524628e-05
1.9187164e-05
1.77854e-05
1.9094018e-05
2.133356e-05
1.9341311e-05
2.1784804e-05
1.9059306e-05
2.0116258e-05
1.8515697e-05
1.8856015e-05
1.8142975e-05
1.8280459e-05
1.8078286e-05
1.8242165e-05
1.8343271e-05
1.8622785e-05
1.8936657e-05
1.9365075e-05
1.9866357e-05
2.0468946e-05
2.1166187e-05
2.19739e-05
2.2900192e-05
2.3961562e-05
2.5175177e-05
2.6563831e-05
2.8154424e-05
2.9980162e-05
3.2081763e-05
3.4509575e-05
3.732491e-05
4.060316e-05
4.4437071e-05
4.8940635e-05
5.4253792e-05
6.054745e-05
6.8038345e-05
7.6982864e-05
8.7691854e-05
0.00010055506
0.00011606176
0.00013478939
0.00015745957
0.00018495142
0.00021833625
0.00025892655
0.00030831685
0.00036845122
0.00044169076
0.00053090194
0.00063955903
0.00077187935
0.00093299527
0.0010336338
0.0010328744
0.0010318721
0.001030774
0.0010295639
0.001028219
0.0010267031
0.0010249512
0.0010228225
0.0010200827
0.0010170657
0.0010142791
0.0010118512
0.0010097429
0.0010079383
0.0010064355
0.0010052234
0.0010042767
0.0010035325
0.0010031826
0.0010027721
0.001004187
0.001002334
0.0010039938
1.8148914e-06
1.5510606e-05
1.4437894e-05
1.7423746e-05
1.6638106e-05
1.7135367e-05
1.9763532e-05
1.7222763e-05
1.9526447e-05
1.6909615e-05
1.7826337e-05
1.6410513e-05
1.6684179e-05
1.6087048e-05
1.6198593e-05
1.6050434e-05
1.6201138e-05
1.6317386e-05
1.6581725e-05
1.6886574e-05
1.7290773e-05
1.7765366e-05
1.8331524e-05
1.8986468e-05
1.9743288e-05
2.0610831e-05
2.16041e-05
2.2739641e-05
2.403883e-05
2.552714e-05
2.7235815e-05
2.9203114e-05
3.1476558e-05
3.4113917e-05
3.7186213e-05
4.078099e-05
4.5005809e-05
4.9992583e-05
5.590394e-05
6.2941495e-05
7.1349595e-05
8.1424435e-05
9.3533726e-05
0.00010813299
0.0001257745
0.00014713425
0.0001730445
0.00020451406
0.00024278064
0.00028934735
0.00034604633
0.00041510444
0.00049922643
0.00060169405
0.00072649008
0.00087846271
0.0010327765
0.0010320402
0.0010310209
0.0010299091
0.0010286898
0.0010273428
0.0010258381
0.0010241265
0.0010221143
0.0010195915
0.0010166574
0.001013911
0.0010115219
0.0010094481
0.0010076713
0.0010061891
0.0010049959
0.0010040604
0.0010033579
0.0010029422
0.0010026099
0.0010037017
0.0010021978
0.0010036582
1.6477042e-06
1.4976982e-05
1.340277e-05
1.5764254e-05
1.5576936e-05
1.5322426e-05
1.8205654e-05
1.532705e-05
1.739116e-05
1.4980179e-05
1.5728461e-05
1.4515633e-05
1.4718444e-05
1.4234434e-05
1.432219e-05
1.4224383e-05
1.4365358e-05
1.4496056e-05
1.4749211e-05
1.504739e-05
1.5432345e-05
1.5885146e-05
1.6421428e-05
1.7041358e-05
1.7755994e-05
1.8574617e-05
1.9511162e-05
2.0581572e-05
2.1806109e-05
2.3209071e-05
2.4820101e-05
2.667544e-05
2.8820281e-05
3.1309517e-05
3.4210653e-05
3.7606924e-05
4.1600711e-05
4.6317948e-05
5.1912958e-05
5.8576952e-05
6.6544141e-05
7.6098192e-05
8.7587754e-05
0.00010144485
0.00011819845
0.0001384899
0.00016311163
0.00019302308
0.00022940088
0.00027367451
0.00032758523
0.00039325062
0.00047324372
0.00057068882
0.00068937893
0.00083393072
0.0010099545
0.0010312092
0.0010301719
0.001029045
0.0010278148
0.0010264631
0.001024964
0.0010232782
0.0010213375
0.0010190045
0.0010161803
0.0010134866
0.0010111473
0.001009118
0.0010073776
0.0010059231
0.0010047511
0.0010038345
0.0010031656
0.0010027117
0.0010024441
0.0010032423
0.001002054
0.0010033144
1.502608e-06
1.4400989e-05
1.2438279e-05
1.4179192e-05
1.458255e-05
1.3683019e-05
1.6627502e-05
1.3614665e-05
1.5378703e-05
1.3238558e-05
1.3813494e-05
1.2805335e-05
1.2942962e-05
1.2563871e-05
1.263345e-05
1.2581056e-05
1.2716639e-05
1.2860929e-05
1.3106856e-05
1.3400563e-05
1.3770929e-05
1.4206459e-05
1.4718862e-05
1.5310379e-05
1.5990683e-05
1.6769261e-05
1.7659265e-05
1.8676112e-05
1.9839176e-05
2.1171825e-05
2.2702414e-05
2.4465515e-05
2.6504464e-05
2.8871851e-05
3.1632337e-05
3.486563e-05
3.8670122e-05
4.3166926e-05
4.8502589e-05
5.486369e-05
6.2473623e-05
7.160458e-05
8.2589597e-05
9.5848534e-05
0.00011188537
0.00013131612
0.00015490031
0.00018355796
0.00021841686
0.000260847
0.00031251648
0.00037545432
0.00045212665
0.00054552944
0.00065930229
0.00079787456
0.00096663525
0.0010303798
0.0010293237
0.001028181
0.001026939
0.001025581
0.0010240845
0.0010224166
0.0010205257
0.0010183225
0.0010156402
0.0010130106
0.0010107313
0.0010087561
0.0010070607
0.0010056407
0.0010044931
0.001003601
0.001002959
0.0010024908
0.0010022757
0.0010028201
0.0010019062
0.0010029927
1.3760481e-06
1.3756172e-05
1.1535699e-05
1.2655735e-05
1.3637174e-05
1.2196988e-05
1.5013945e-05
1.2063478e-05
1.3500543e-05
1.1664244e-05
1.2076711e-05
1.1261586e-05
1.1345121e-05
1.1059145e-05
1.1117417e-05
1.1104851e-05
1.1239298e-05
1.1396227e-05
1.1592246e-05
1.1875958e-05
1.2230125e-05
1.2647725e-05
1.3137246e-05
1.3701931e-05
1.4350207e-05
1.5091429e-05
1.5937965e-05
1.6904594e-05
1.8009784e-05
1.9275999e-05
2.0730423e-05
2.240598e-05
2.4344337e-05
2.6595973e-05
2.9222987e-05
3.230194e-05
3.5927649e-05
4.0217262e-05
4.5610642e-05
5.1729321e-05
5.9053955e-05
6.7846656e-05
7.8429347e-05
9.1213244e-05
0.00010668082
0.00012542857
0.00014819045
0.00017585447
0.00020951033
0.00025048031
0.0003003742
0.00036115002
0.00043518802
0.00052538074
0.00063524406
0.00076905688
0.0009320279
0.0010295505
0.0010284755
0.0010273169
0.0010260628
0.0010246978
0.001023202
0.0010215476
0.0010196923
0.0010175663
0.0010150442
0.0010124892
0.0010102792
0.0010083667
0.0010067246
0.0010053457
0.001004227
0.0010033625
0.0010027428
0.0010022793
0.0010021056
0.0010024413
0.0010017594
0.0010026564
1.2655603e-06
1.3021647e-05
1.0689522e-05
1.1199718e-05
1.2709796e-05
1.0846508e-05
1.3397171e-05
1.065331e-05
1.1765141e-05
1.0238902e-05
1.0510617e-05
9.868777e-06
9.9122269e-06
9.7064235e-06
9.7165095e-06
9.7222283e-06
9.8501631e-06
1.0013919e-05
1.0251482e-05
1.0540191e-05
1.0891653e-05
1.1302798e-05
1.1780691e-05
1.232971e-05
1.2957773e-05
1.3674354e-05
1.4491443e-05
1.5423488e-05
1.6488403e-05
1.770809e-05
1.9109068e-05
2.0723016e-05
2.2590528e-05
2.4760682e-05
2.7293826e-05
3.0264298e-05
3.3764338e-05
3.7909264e-05
4.2836894e-05
4.871962e-05
5.5768077e-05
6.4236097e-05
7.5014396e-05
8.7430318e-05
0.00010245738
0.00012067656
0.0001428035
0.00016969965
0.00020242605
0.0002422674
0.00029078777
0.00034988924
0.00042188434
0.00050958375
0.00061640531
0.00074650898
0.00090496049
0.0010287204
0.0010276269
0.0010264528
0.0010251867
0.0010238148
0.0010223193
0.0010206763
0.0010188514
0.0010167905
0.0010144011
0.0010119298
0.001009797
0.0010079551
0.0010063739
0.0010050424
0.0010039576
0.0010031227
0.0010025221
0.0010020772
0.001001935
0.0010021089
0.0010016233
0.0010023576
1.1693921e-06
1.2185807e-05
9.8996443e-06
9.8804493e-06
1.1773599e-05
9.6133623e-06
1.1813592e-05
9.3681058e-06
1.0180308e-05
8.9484351e-06
9.1071763e-06
8.6147599e-06
8.5681944e-06
8.409923e-06
8.4554534e-06
8.5044143e-06
8.6478453e-06
8.829997e-06
9.074576e-06
9.3680839e-06
9.7185164e-06
1.0125398e-05
1.0594995e-05
1.1132456e-05
1.1745333e-05
1.2443177e-05
1.3237709e-05
1.4143082e-05
1.5176766e-05
1.6360239e-05
1.7719653e-05
1.9285567e-05
2.1097857e-05
2.3204585e-05
2.5664859e-05
2.8551342e-05
3.1953927e-05
3.5986804e-05
4.0784696e-05
4.6516844e-05
5.3389831e-05
6.1653015e-05
7.1618027e-05
8.366712e-05
9.8262672e-05
0.00011693074
0.00013858704
0.00016491249
0.0001969479
0.00023594932
0.0002834459
0.00034129698
0.0004117631
0.00049759205
0.00060212624
0.00072943433
0.00088447259
0.0010278893
0.0010267781
0.0010255892
0.0010243121
0.0010229339
0.0010214387
0.001019806
0.0010180076
0.0010160018
0.0010137211
0.0010113411
0.0010092921
0.001007527
0.0010060135
0.0010047356
0.0010036902
0.0010028856
0.0010023023
0.0010018842
0.0010017648
0.0010018199
0.0010014957
0.0010020993
1.0857342e-06
1.124274e-05
9.1603204e-06
8.6855994e-06
1.0797209e-05
8.4869035e-06
1.0288177e-05
8.1975841e-06
8.750968e-06
7.7825232e-06
7.7848741e-06
7.3831275e-06
7.3718797e-06
7.2891477e-06
7.3549119e-06
7.4386659e-06
7.5967742e-06
7.7945052e-06
8.0463795e-06
8.3449195e-06
8.696031e-06
9.1008734e-06
9.5653035e-06
1.0095037e-05
1.0697339e-05
1.1381808e-05
1.2159986e-05
1.3045791e-05
1.4056313e-05
1.5212688e-05
1.647943e-05
1.7997103e-05
1.9753782e-05
2.1796516e-05
2.418325e-05
2.6985165e-05
3.0461647e-05
3.4412222e-05
3.9115323e-05
4.4738229e-05
5.1485401e-05
5.960072e-05
6.9393268e-05
8.1239472e-05
9.5597299e-05
0.00011302527
0.00013420215
0.00016133892
0.00019289225
0.00023130659
0.0002780855
0.00033505718
0.00040444405
0.00048894777
0.00059185516
0.00071716843
0.00086976466
0.0010270575
0.0010259299
0.0010247275
0.0010234406
0.0010220572
0.0010205631
0.0010189405
0.001017166
0.0010152074
0.0010130154
0.0010107328
0.0010087725
0.0010070889
0.0010056482
0.0010044298
0.0010034293
0.0010026558
0.0010020888
0.0010017002
0.001001595
0.001001567
0.001001374
0.001001878
1.0134598e-06
1.0198756e-05
8.4642186e-06
7.6023622e-06
9.7563539e-06
7.4559419e-06
8.8466208e-06
7.1315801e-06
7.4759924e-06
6.6183232e-06
6.5992447e-06
6.3300861e-06
6.336082e-06
6.3129336e-06
6.39847e-06
6.5105544e-06
6.6827533e-06
6.8941567e-06
7.1537381e-06
7.4578579e-06
7.8113419e-06
8.2163401e-06
8.6785137e-06
9.1836247e-06
9.7741386e-06
1.0444299e-05
1.1205277e-05
1.2070574e-05
1.3056729e-05
1.4184191e-05
1.5477921e-05
1.696861e-05
1.8694062e-05
2.0700932e-05
2.3046765e-05
2.5802601e-05
2.9056383e-05
3.2916454e-05
3.7515554e-05
4.3019624e-05
4.9631451e-05
5.8024191e-05
6.7705705e-05
7.9423146e-05
9.3629192e-05
0.00011087843
0.00013184274
0.00015734474
0.00019009644
0.00022814522
0.00027447463
0.00033089196
0.00039959383
0.00048325058
0.00058511116
0.00070913352
0.0008601426
0.0010262262
0.0010250838
0.0010238697
0.0010225746
0.0010211878
0.0010196962
0.0010180841
0.0010163322
0.0010144148
0.001012296
0.0010101153
0.001008247
0.0010066478
0.0010052832
0.0010041292
0.0010031788
0.0010024377
0.0010018871
0.001001526
0.0010014258
0.0010013426
0.0010012514
0.00100169
9.5211393e-07
9.0659385e-06
7.8051372e-06
6.6190757e-06
8.6836278e-06
6.5109502e-06
7.5130195e-06
6.1126781e-06
6.1944336e-06
5.6055125e-06
5.5839791e-06
5.4181104e-06
5.4434528e-06
5.4672675e-06
5.5720465e-06
5.7076211e-06
5.8934103e-06
6.1172715e-06
6.3850597e-06
6.6954991e-06
7.0381365e-06
7.4412055e-06
7.8997192e-06
8.4194893e-06
9.0079622e-06
9.6741559e-06
1.0429227e-05
1.1286603e-05
1.2262616e-05
1.3377598e-05
1.4656345e-05
1.6129372e-05
1.7834327e-05
1.9817703e-05
2.2136871e-05
2.4862748e-05
2.8083157e-05
3.1905836e-05
3.6462997e-05
4.1921589e-05
4.8485126e-05
5.6388824e-05
6.5933675e-05
7.7496691e-05
9.2281473e-05
0.00010944485
0.00013030568
0.00015568596
0.00018657726
0.00022628866
0.00027240224
0.00032854861
0.00039690973
0.00048013772
0.00058145931
0.00070480775
0.00085498025
0.0010253974
0.0010242422
0.0010230183
0.0010217172
0.001020329
0.0010188417
0.0010172416
0.001015512
0.0010136322
0.0010115753
0.0010094994
0.0010077247
0.0010062109
0.0010049237
0.0010038374
0.0010029415
0.0010022352
0.0010017025
0.0010013641
0.001001259
0.0010011422
0.0010011201
0.0010015258
9.0191276e-07
7.8579024e-06
7.1736836e-06
5.7262068e-06
7.5768544e-06
5.6445699e-06
6.3130632e-06
5.1073945e-06
5.1360962e-06
4.7349442e-06
4.7185776e-06
4.6322026e-06
4.6786077e-06
4.7397151e-06
4.8630728e-06
5.0186808e-06
5.2176716e-06
5.4533104e-06
5.7164077e-06
6.0306903e-06
6.3903769e-06
6.7988835e-06
7.2612006e-06
7.7833533e-06
8.3728415e-06
9.0386741e-06
9.7920104e-06
1.0646293e-05
1.1617632e-05
1.2726356e-05
1.3997208e-05
1.5460687e-05
1.7154481e-05
1.9125155e-05
2.1430216e-05
2.4140896e-05
2.7345279e-05
3.1150842e-05
3.5690234e-05
4.1131905e-05
4.7678643e-05
5.5562265e-05
6.5089458e-05
7.6640531e-05
9.0658755e-05
0.000107686
0.00012948982
0.00015486127
0.00018574331
0.00022333776
0.00027166578
0.00032778476
0.00039610143
0.00047926177
0.00058048339
0.00070369246
0.00085367949
0.001024574
0.0010234081
0.0010221767
0.001020872
0.0010194848
0.0010180043
0.0010164181
0.0010147116
0.0010128677
0.0010108655
0.0010088957
0.001007215
0.0010057857
0.0010045752
0.0010035574
0.0010027188
0.0010020502
0.0010015388
0.0010012177
0.0010010992
0.0010009656
0.0010009909
0.0010013736
8.6458813e-07
6.5882249e-06
6.5454241e-06
4.9152674e-06
6.4641061e-06
4.836306e-06
5.5751902e-06
4.2673086e-06
4.2402338e-06
3.9876465e-06
3.985667e-06
3.9594912e-06
4.0279458e-06
4.119436e-06
4.2605856e-06
4.4338597e-06
4.6343044e-06
4.8785069e-06
5.1619002e-06
5.4857233e-06
5.8533085e-06
6.2685217e-06
6.7364738e-06
7.2633153e-06
7.8566061e-06
8.5252827e-06
9.2805251e-06
1.0115097e-05
1.1080253e-05
1.2180482e-05
1.3440299e-05
1.4890008e-05
1.6567159e-05
1.8518197e-05
2.0800633e-05
2.3485896e-05
2.6662051e-05
3.0436322e-05
3.4942331e-05
4.0613101e-05
4.7169631e-05
5.5064966e-05
6.4615644e-05
7.620172e-05
9.0263625e-05
0.00010734776
0.00012812059
0.00015474961
0.00018573599
0.00022345726
0.00026937206
0.00032835405
0.00039687358
0.00048026957
0.00058176056
0.00070528092
0.00085563279
0.0010237599
0.0010225858
0.0010213494
0.0010200435
0.0010186599
0.0010171889
0.0010156191
0.0010139377
0.0010121298
0.0010101784
0.0010083146
0.0010067268
0.0010053799
0.0010042434
0.0010032923
0.0010025108
0.0010018826
0.001001397
0.0010010894
0.0010009513
0.0010008094
0.0010008719
0.0010012261
8.4417298e-07
5.3874398e-06
5.8991286e-06
4.169896e-06
5.7435874e-06
4.3021716e-06
4.0844867e-06
3.5264799e-06
3.5018029e-06
3.3487005e-06
3.3694711e-06
3.3902645e-06
3.4804451e-06
3.5974805e-06
3.746849e-06
3.9327895e-06
4.1550895e-06
4.4122705e-06
4.7065616e-06
5.0400832e-06
5.4163519e-06
5.8395257e-06
6.3148028e-06
6.8483813e-06
7.4377208e-06
8.1085733e-06
8.8645412e-06
9.7188046e-06
1.0687538e-05
1.1790668e-05
1.3052832e-05
1.4504559e-05
1.6183712e-05
1.8137159e-05
2.0423098e-05
2.3113886e-05
2.6298261e-05
3.0084571e-05
3.4609853e-05
4.0044123e-05
4.6579068e-05
5.4847911e-05
6.4455578e-05
7.6114376e-05
9.0265436e-05
0.00010746024
0.00012836801
0.00015380443
0.00018640363
0.00022436247
0.00027055815
0.00032678235
0.00039891239
0.00048278561
0.00058484084
0.00070903327
0.00086019227
0.0010229601
0.0010217804
0.0010205415
0.001019237
0.0010178597
0.0010164008
0.0010148503
0.0010131966
0.0010114263
0.0010095248
0.0010077653
0.0010062683
0.0010050008
0.0010039342
0.001003046
0.0010023185
0.0010017312
0.0010012753
0.0010009805
0.001000821
0.0010006726
0.0010007565
0.0010010768
8.419844e-07
5.2722275e-06
5.2684936e-06
4.7651373e-06
5.2216305e-06
3.2436873e-06
3.286623e-06
2.9029707e-06
2.8912312e-06
2.8159086e-06
2.8586723e-06
2.9172674e-06
3.0275319e-06
3.1574264e-06
3.3282257e-06
3.5306731e-06
3.7663323e-06
4.0354452e-06
4.340419e-06
4.683935e-06
5.0696665e-06
5.5019472e-06
5.9801564e-06
6.5200418e-06
7.1249627e-06
7.8037765e-06
8.5672554e-06
9.4285829e-06
1.0403977e-05
1.1513472e-05
1.2781915e-05
1.4240159e-05
1.5926472e-05
1.7888307e-05
2.0184798e-05
2.2889291e-05
2.6091042e-05
2.9900097e-05
3.4457462e-05
3.9933144e-05
4.6515952e-05
5.4450804e-05
6.4545511e-05
7.6305385e-05
9.0580112e-05
0.00010792594
0.00012901594
0.00015467111
0.00018757931
0.00022585556
0.00027242776
0.00032909833
0.00040187009
0.00048639279
0.00058922395
0.00071434872
0.00086663547
0.0010221808
0.001020998
0.0010197591
0.0010184585
0.0010170898
0.0010156455
0.0010141171
0.0010124941
0.0010107644
0.001008914
0.0010072557
0.0010058463
0.0010046545
0.0010036536
0.0010028227
0.0010021437
0.0010015949
0.0010011698
0.0010008882
0.0010007119
0.0010005588
0.0010006387
0.0010009181
8.3689581e-07
5.3460442e-06
4.6247503e-06
4.1113059e-06
3.7752988e-06
2.6288524e-06
2.6290022e-06
2.3936108e-06
2.3923498e-06
2.3778839e-06
2.4422135e-06
2.5308047e-06
2.6521147e-06
2.8065252e-06
2.9933141e-06
3.2098596e-06
3.4577138e-06
3.7381678e-06
4.0538341e-06
4.4077312e-06
4.8036343e-06
5.2419163e-06
5.7343235e-06
6.2842274e-06
6.8989348e-06
7.587271e-06
8.359987e-06
9.2302836e-06
1.0214455e-05
1.13327e-05
1.2610136e-05
1.4078001e-05
1.5775049e-05
1.7749507e-05
2.0061596e-05
2.2785372e-05
2.6010659e-05
2.9850801e-05
3.4451118e-05
3.9977465e-05
4.6615384e-05
5.5026933e-05
6.4816866e-05
7.6696006e-05
9.1115266e-05
0.00010863609
0.00012993682
0.00015584458
0.0001890725
0.00022770982
0.00027471189
0.0003318943
0.00040534715
0.00049061201
0.00059433445
0.00072053552
0.00087412982
0.0010214289
0.0010202458
0.0010190093
0.0010177148
0.0010163567
0.0010149289
0.0010134244
0.0010118347
0.0010101491
0.0010083542
0.0010067922
0.001005466
0.0010043457
0.001003406
0.0010026271
0.0010019902
0.0010014751
0.0010010777
0.0010008073
0.0010006162
0.0010004533
0.0010005194
0.0010007446
6.4544916e-07
5.723154e-06
3.7542911e-06
2.5527141e-06
2.6527425e-06
2.135829e-06
2.0989557e-06
1.9770883e-06
1.9924981e-06
2.0227698e-06
2.108422e-06
2.215766e-06
2.3590069e-06
2.5305246e-06
2.7311045e-06
2.9601699e-06
3.2194888e-06
3.5109746e-06
3.837397e-06
4.2019548e-06
4.6061815e-06
5.0580669e-06
5.5612544e-06
6.1218226e-06
6.747034e-06
7.445678e-06
8.2284969e-06
9.1087241e-06
1.0102758e-05
1.1231005e-05
1.2518896e-05
1.3998065e-05
1.5707851e-05
1.7697423e-05
2.0027937e-05
2.277371e-05
2.602596e-05
2.9903051e-05
3.4551987e-05
4.0128973e-05
4.7146718e-05
5.5303297e-05
6.5198474e-05
7.719987e-05
9.176807e-05
0.00010946792
0.00013098455
0.00015715051
0.00019066728
0.0002296673
0.0002771018
0.00033480032
0.00040888755
0.00049489569
0.00059951388
0.0007268007
0.00088171907
0.0010207128
0.001019532
0.0010183006
0.0010170142
0.0010156684
0.0010142579
0.0010127774
0.0010112208
0.0010095815
0.0010078521
0.0010063795
0.001005131
0.0010040773
0.0010031945
0.0010024627
0.0010018627
0.0010013764
0.0010010011
0.0010007365
0.001000533
0.0010003647
0.0010003971
0.0010005549
4.9594777e-07
3.0450569e-06
2.9297997e-06
2.076168e-06
2.0322319e-06
1.7165328e-06
1.6880652e-06
1.6379484e-06
1.6773514e-06
1.741268e-06
1.8470724e-06
1.974649e-06
2.1341953e-06
2.319928e-06
2.5327454e-06
2.7732889e-06
3.0435533e-06
3.345802e-06
3.6828887e-06
4.0580777e-06
4.4751768e-06
4.9364957e-06
5.4504467e-06
6.0216648e-06
6.6573718e-06
7.366332e-06
8.1592936e-06
9.0495427e-06
1.0053603e-05
1.1192097e-05
1.2490761e-05
1.3981641e-05
1.5704756e-05
1.7710226e-05
2.0059689e-05
2.2827664e-05
2.6108188e-05
3.0186219e-05
3.491532e-05
4.0578172e-05
4.7383302e-05
5.5620835e-05
6.5611121e-05
7.7723714e-05
9.2427789e-05
0.00011028959
0.00013200132
0.00015978987
0.00019212454
0.00023144035
0.00027925105
0.00033739894
0.0004119723
0.00049861813
0.00060400712
0.0007322318
0.00088829881
0.0010200419
0.0010188666
0.001017643
0.0010163674
0.0010150355
0.0010136429
0.0010121847
0.0010106558
0.0010090504
0.0010074133
0.0010060218
0.0010048435
0.0010038503
0.0010030192
0.0010023303
0.0010017639
0.0010013041
0.0010009476
0.0010006863
0.0010004758
0.0010003097
0.0010003103
0.0010004033
3.9205454e-07
2.0462649e-06
2.24186e-06
1.6238296e-06
1.5656108e-06
1.3849053e-06
1.374175e-06
1.3744115e-06
1.4366791e-06
1.5266904e-06
1.6498932e-06
1.7952982e-06
1.968274e-06
2.1660803e-06
2.3898658e-06
2.6409589e-06
2.9214903e-06
3.2338911e-06
3.5810361e-06
3.9661935e-06
4.3931298e-06
4.8662019e-06
5.3905147e-06
5.9721234e-06
6.6183085e-06
7.3379312e-06
8.1418857e-06
9.0436714e-06
1.0060113e-05
1.1212229e-05
1.2526222e-05
1.4034774e-05
1.5778883e-05
1.7809622e-05
2.0188937e-05
2.2992803e-05
2.6320303e-05
3.0295606e-05
3.5051067e-05
4.0739092e-05
4.758796e-05
5.5887894e-05
6.5948992e-05
7.8145732e-05
9.2949166e-05
0.00011186347
0.00013387291
0.00016061889
0.0001931291
0.00023265212
0.00028070791
0.0003423497
0.0004139329
0.00050097903
0.00060685539
0.0007356786
0.00089248722
0.0010194264
0.0010182598
0.0010170473
0.0010157855
0.0010144708
0.0010130991
0.0010116663
0.0010101677
0.0010085986
0.0010070428
0.0010057222
0.0010046053
0.0010036652
0.0010028792
0.0010022276
0.0010016911
0.0010012554
0.0010009156
0.0010006584
0.0010004466
0.0010002863
0.001000262
0.0010003014
3.0565111e-07
1.5845541e-06
1.664827e-06
1.2788331e-06
1.2179075e-06
1.1259929e-06
1.1350075e-06
1.1721239e-06
1.2547149e-06
1.3648226e-06
1.5022784e-06
1.6620574e-06
1.8457781e-06
2.0534549e-06
2.2864439e-06
2.5464217e-06
2.8355746e-06
3.1564029e-06
3.511782e-06
3.9049704e-06
4.3397012e-06
4.8202944e-06
5.3518115e-06
5.9402635e-06
6.5928866e-06
7.3185033e-06
8.1279822e-06
9.0348289e-06
1.0055914e-05
1.1212308e-05
1.2530299e-05
1.4042858e-05
1.5791413e-05
1.7826877e-05
2.0210836e-05
2.3021769e-05
2.6362386e-05
3.0350929e-05
3.5108873e-05
4.0802823e-05
4.7678253e-05
5.64211e-05
6.6587681e-05
7.8908136e-05
9.3854398e-05
0.00011199912
0.0001340384
0.00016081818
0.00019336704
0.0002329327
0.0002835976
0.00034249961
0.00041411072
0.00050119325
0.00060712018
0.00073601682
0.00089293386
0.001018877
0.0010177221
0.0010165237
0.0010152787
0.0010139838
0.0010126356
0.0010112304
0.0010097642
0.001008233
0.0010067451
0.0010054836
0.001004418
0.0010035222
0.0010027739
0.0010021533
0.0010016419
0.0010012267
0.0010009005
0.0010006471
0.001000438
0.0010002844
0.0010002395
0.0010002348
2.1069781e-07
1.2230168e-06
1.2146843e-06
1.0211388e-06
9.6454173e-07
9.3191209e-07
9.6247978e-07
1.0283812e-06
1.12971e-06
1.2566241e-06
1.4069874e-06
1.5790177e-06
1.7732266e-06
1.990565e-06
2.2326422e-06
2.5010098e-06
2.7985068e-06
3.1274327e-06
3.4906862e-06
3.891517e-06
4.33364e-06
4.8213518e-06
5.3596795e-06
5.9545941e-06
6.6132843e-06
7.3445229e-06
8.1591375e-06
9.0706114e-06
1.0095794e-05
1.1255726e-05
1.257676e-05
1.4092124e-05
1.5843174e-05
1.7879903e-05
2.0339123e-05
2.3171913e-05
2.6540084e-05
3.0550261e-05
3.5324494e-05
4.1052346e-05
4.7979218e-05
5.6359835e-05
6.6499592e-05
7.8787593e-05
9.369045e-05
0.0001117791
0.00013374503
0.00016186134
0.00019452499
0.00023421152
0.00028244064
0.00034106306
0.00041233435
0.00049900629
0.00060444022
0.00073274829
0.00088896677
0.0010184055
0.0010172652
0.0010160835
0.0010148576
0.0010135848
0.0010122619
0.0010108858
0.0010094529
0.0010079597
0.0010065244
0.0010053087
0.0010042828
0.0010034211
0.0010027017
0.0010021048
0.001001613
0.0010012135
0.0010008971
0.0010006469
0.0010004413
0.001000292
0.0010002284
0.0010001882
2.1362819e-07
9.8312435e-07
8.7976342e-07
8.2065983e-07
7.8884434e-07
7.9259305e-07
8.4113752e-07
9.2556615e-07
1.0386799e-06
1.1747663e-06
1.3315693e-06
1.5086871e-06
1.706836e-06
1.9273103e-06
2.1718028e-06
2.4423222e-06
2.7411805e-06
3.070974e-06
3.4345446e-06
3.8348294e-06
4.2755272e-06
4.7609464e-06
5.2961042e-06
5.8869406e-06
6.5405996e-06
7.2657936e-06
8.0732834e-06
8.9764658e-06
9.9920584e-06
1.1140959e-05
1.2449488e-05
1.395072e-05
1.5685068e-05
1.7701564e-05
2.006389e-05
2.2855575e-05
2.6170195e-05
3.0103168e-05
3.4790167e-05
4.0433517e-05
4.7256354e-05
5.5500275e-05
6.598104e-05
7.8159561e-05
9.2926328e-05
0.00011084555
0.0001326023
0.00015902951
0.00019113992
0.00023016583
0.00027760752
0.0003352931
0.00040545187
0.00049080502
0.00059467818
0.0007211416
0.00087518233
0.0010180342
0.0010169113
0.0010157486
0.0010145441
0.001013295
0.0010119989
0.0010106529
0.0010092542
0.0010077999
0.0010063978
0.001005211
0.0010042101
0.0010033698
0.0010026682
0.0010020857
0.0010016055
0.001001215
0.0010009032
0.0010006536