/*--------------------------------*- C++ -*----------------------------------*\
  =========                 |
  \\      /  F ield         | OpenFOAM: The Open Source CFD Toolbox
   \\    /   O peration     | Website:  https://openfoam.org
    \\  /    A nd           | Version:  6
     \\/     M anipulation  |
\*---------------------------------------------------------------------------*/
FoamFile
{
    version     2.0;
    format      ascii;
    class       volScalarField;
    location    "300";
    object      omega;
}
// * * * * * * * * * * * * * * * * * * * * * * * * * * * * * * * * * * * * * //

dimensions      [0 0 -1 0 0 0 0];

internalField   nonuniform List<scalar> 
16000
(
1366.7047
1529.5916
805.85777
501.33933
340.70846
258.51426
194.2428
159.96089
129.42347
110.34778
93.425514
81.180514
70.596988
62.221127
55.131439
49.306432
44.347016
40.15892
36.556521
33.456504
30.762129
28.412708
26.35078
24.534388
22.927186
21.500512
20.230052
19.095871
18.081156
17.171859
16.356134
15.623988
14.966852
14.377346
13.849048
13.376324
12.95416
12.578035
12.243838
11.947774
11.686331
11.456304
11.254696
11.078698
10.925687
10.793228
10.679047
10.581051
10.497347
10.426258
10.366359
10.316541
10.276186
10.245666
10.225217
10.212626
10.20474
10.198388
10.191531
10.182952
10.171894
10.158104
10.141266
10.121343
10.098919
10.075555
10.053358
10.033814
10.016947
10.002929
9.9911298
9.9827947
9.9752356
9.972792
9.9681665
9.9774128
9.9757298
10.008101
9.9847468
10.019859
1284.3357
1571.3896
807.87139
508.38762
342.38439
262.04518
195.61585
161.81912
130.39362
111.2781
93.97563
81.574835
70.810343
62.390312
55.251072
49.398638
44.413003
40.207637
36.591233
33.481168
30.779282
28.424585
26.359012
24.540211
22.931535
21.504087
20.233374
19.099308
18.084949
17.176131
16.360929
15.629299
14.972652
14.383555
13.855556
13.383017
12.960924
12.584792
12.25053
11.95435
11.692725
11.462466
11.260589
11.084293
10.930959
10.798167
10.683646
10.5853
10.501231
10.429741
10.369365
10.318909
10.277528
10.244961
10.222152
10.208098
10.199613
10.193194
10.186566
10.178956
10.169634
10.157394
10.141885
10.122976
10.101098
10.077764
10.055317
10.035478
10.018431
10.004146
9.9923166
9.9835703
9.9763662
9.9735533
9.96911
9.9762642
9.9752785
10.006393
9.985849
10.020945
1090.8396
1612.5401
807.26863
514.57634
343.2896
265.05393
196.60396
163.32809
131.11889
111.93814
94.322081
81.745522
70.901958
62.456073
55.280131
49.408226
44.405155
40.189166
36.565293
33.450609
30.746236
28.390662
26.325464
24.50786
22.900985
21.475742
20.207502
19.07605
18.064353
17.158152
16.345442
15.616138
14.961641
14.374506
13.848282
13.377315
12.956587
12.581611
12.248346
11.95304
11.692144
11.462482
11.261091
11.08518
10.932139
10.799562
10.685192
10.586935
10.502894
10.431361
10.370853
10.320127
10.278234
10.244645
10.219609
10.203873
10.194643
10.188063
10.18146
10.174036
10.165501
10.155106
10.141205
10.123586
10.102508
10.079398
10.056809
10.036778
10.019602
10.005168
9.9932972
9.9843442
9.9773318
9.9740907
9.9701995
9.9759918
9.9755164
10.00447
9.9862384
10.019087
1117.3195
1649.6236
804.60003
519.84946
343.53966
267.45979
197.27299
164.41396
131.6097
112.26701
94.445699
81.772932
70.876392
62.411775
55.214227
49.330794
44.320076
40.100477
36.476221
33.362721
30.661248
28.309503
26.248953
24.436378
22.834782
21.414893
20.151994
19.025777
18.019151
17.117786
16.309614
15.584525
14.93392
14.350344
13.827356
13.359326
12.941249
12.568628
12.237434
11.943978
11.684711
11.456465
11.256298
11.081441
10.929289
10.797461
10.683715
10.585969
10.502333
10.431096
10.370766
10.320078
10.278022
10.243917
10.217601
10.199942
10.189811
10.183009
10.176375
10.168979
10.16063
10.15095
10.138971
10.122957
10.102978
10.080318
10.057725
10.037606
10.020387
10.005897
9.9940272
9.9849605
9.9781422
9.974543
9.9712953
9.9760451
9.9759783
10.001876
9.9869673
10.01827
1141.5657
1680.1438
800.23957
524.10092
343.16393
269.18507
197.63227
165.01842
131.85747
112.22924
94.332991
81.657752
70.733929
62.257783
55.053356
49.166521
44.157749
39.941665
36.324055
33.217606
30.524413
28.181221
26.129613
24.325925
22.733094
21.321723
20.067046
18.948698
17.949561
17.055261
16.253683
15.534698
14.889731
14.311329
13.793062
13.329322
12.915139
12.546043
12.21801
11.927385
11.670629
11.444607
11.246394
11.073246
10.922569
10.792008
10.679348
10.58252
10.499648
10.429029
10.369168
10.318791
10.276856
10.242601
10.215651
10.196336
10.185119
10.178032
10.171338
10.163921
10.155624
10.146196
10.135118
10.121042
10.10249
10.080528
10.058078
10.037976
10.020803
10.006346
9.9945278
9.9854364
9.9787883
9.9749851
9.9722971
9.9759421
9.9766328
9.9994826
9.9878167
10.016261
1163.5556
1700.8784
794.68562
527.21941
342.21258
270.13546
197.70154
165.06499
131.84872
111.99604
94.076532
81.398118
70.472741
61.992464
54.79587
48.914127
43.916959
39.711761
36.107934
33.014566
30.33514
28.005353
25.96707
24.176208
22.595706
21.196084
19.952568
18.844769
17.855579
16.970606
16.177705
15.466739
14.829174
14.257572
13.745521
13.287449
12.878418
12.513987
12.190173
11.903376
11.650016
11.427013
11.231473
11.060683
10.912056
10.783273
10.672151
10.576637
10.494883
10.425192
10.366077
10.316265
10.274698
10.240567
10.213371
10.193085
10.180557
10.173117
10.166343
10.158875
10.150578
10.141252
10.130549
10.117744
10.100985
10.080008
10.057859
10.03788
10.020845
10.006508
9.9947966
9.9857559
9.9792672
9.9753814
9.973179
9.9758291
9.9773591
9.9976242
9.988715
10.015072
1183.3183
1708.6568
788.42823
529.05985
340.73829
270.19603
197.49718
164.54212
131.53637
111.56891
93.676446
80.994422
70.092254
61.615991
54.441515
48.573767
43.597724
39.410958
35.828061
32.75392
30.093773
27.7823
25.761753
23.987704
22.423119
21.0385
19.809102
18.714543
17.737762
16.864383
16.082243
15.381202
14.752795
14.189603
13.685249
13.234198
12.831562
12.472925
12.154334
11.872316
11.623218
11.404
11.211822
11.04401
10.897981
10.771458
10.662298
10.568472
10.488162
10.419689
10.361578
10.312561
10.271579
10.237798
10.210648
10.189932
10.176127
10.168249
10.16138
10.153843
10.145517
10.136231
10.125713
10.113469
10.098416
10.078752
10.057075
10.037326
10.02052
10.006389
9.9948467
9.9859242
9.9795916
9.9757255
9.9739299
9.975833
9.978078
9.995718
9.9895251
10.013685
1200.9193
1700.7691
781.71418
529.40627
338.80568
269.22007
197.02963
163.73266
130.87908
110.95053
93.132772
80.447994
69.59221
61.128977
53.990245
48.145838
43.200227
39.039608
35.484768
32.436072
29.800754
27.512541
25.514181
23.760964
22.215911
20.849574
19.637268
18.558653
17.596747
16.737228
15.967932
15.278714
14.661203
14.108019
13.612816
13.170113
12.775084
12.423348
12.110951
11.834613
11.590611
11.375913
11.187742
11.023498
10.880582
10.75677
10.649971
10.558178
10.479617
10.412628
10.355756
10.307745
10.267541
10.234297
10.207403
10.186537
10.171838
10.163415
10.156439
10.14882
10.140447
10.131169
10.120762
10.108852
10.094724
10.076761
10.055744
10.036327
10.019842
10.005998
9.9946913
9.9859475
9.9797782
9.9760112
9.9745468
9.975933
9.9787677
9.9938308
9.9902188
10.012445
1216.4964
1690.5201
773.86761
528.04876
336.51126
267.27015
196.27916
162.67041
130.06979
110.14924
92.447894
79.762971
68.974098
60.53374
53.443295
47.631812
42.725591
38.59882
35.079088
32.062056
29.457089
27.197086
25.225353
23.496998
21.975098
20.630323
19.43808
18.378104
17.433526
16.590115
15.835729
15.160202
14.555296
14.013675
13.52904
13.095964
12.709704
12.365933
12.060643
11.790837
11.552696
11.343206
11.159642
10.999506
10.860177
10.739483
10.635406
10.545955
10.469414
10.404149
10.348726
10.301907
10.262649
10.230105
10.203641
10.182866
10.167713
10.1586
10.15151
10.143802
10.135371
10.126082
10.115744
10.104059
10.090509
10.074039
10.053896
10.034907
10.018831
10.005354
9.9943501
9.9858402
9.9798503
9.9762405
9.975039
9.9761155
9.9794212
9.9921123
9.9907882
10.011034
1230.2325
1681.5467
764.96136
524.78876
333.93486
264.9376
195.19092
161.3753
129.11298
109.17405
91.623492
78.943741
68.23938
59.832587
52.801988
47.033247
42.175073
38.089853
34.612234
31.633106
29.064015
26.837178
24.896521
23.197069
21.701945
20.382012
19.2128
18.174145
17.249321
16.424238
15.686801
15.026795
14.436153
13.907603
13.434896
13.012666
12.636268
12.301478
12.004126
11.741636
11.510058
11.306409
11.127982
10.972441
10.837122
10.719906
10.618866
10.532027
10.457742
10.394407
10.340615
10.295149
10.256981
10.225272
10.199378
10.17887
10.163593
10.153791
10.146585
10.138783
10.130288
10.120979
10.110688
10.09917
10.086032
10.070592
10.051572
10.033103
10.017515
10.00448
9.9938461
9.9856218
9.9798356
9.9764216
9.9754261
9.9763688
9.9800354
9.9906424
9.9912563
10.009694
1242.339
1673.4117
755.14035
519.31097
331.10036
262.27344
193.66085
159.86535
128.00987
108.03324
90.660472
77.99426
67.389367
59.027716
52.067742
46.351791
41.550164
37.514168
34.085719
31.150766
28.6231
26.4344
24.529278
22.862798
21.398075
20.10626
18.963037
17.948362
17.045675
16.241088
15.5226
14.879881
14.305098
13.791055
13.331565
12.921315
12.555778
12.230934
11.942238
11.687769
11.463384
11.266135
11.093289
10.942769
10.811824
10.698384
10.600652
10.516645
10.44481
10.383576
10.331564
10.287586
10.25063
10.219867
10.194652
10.174529
10.159273
10.14898
10.141658
10.133762
10.125203
10.11587
10.105614
10.094228
10.081393
10.066579
10.048825
10.030958
10.015931
10.003406
9.9932062
9.9853168
9.9797655
9.9765688
9.9757352
9.9766829
9.9806085
9.9894631
9.9916575
10.008146
1253.0874
1665.5384
744.56344
511.51243
328.01187
259.34259
191.88897
158.16009
126.76065
106.73537
89.559851
76.918362
66.425492
58.121224
51.242041
45.589144
40.852551
36.873397
33.495033
30.610332
28.129839
25.984586
24.119872
22.490889
21.060626
19.800605
18.686692
17.698973
16.821073
16.039368
15.342054
14.718561
14.161375
13.663403
13.218532
12.821494
12.46786
12.154064
11.875925
11.630083
11.413428
11.223067
11.056143
10.910997
10.784733
10.675296
10.581089
10.500082
10.430845
10.371842
10.321728
10.279342
10.243693
10.213966
10.189518
10.169877
10.154765
10.144159
10.136725
10.12874
10.12012
10.110763
10.100539
10.089271
10.076701
10.062419
10.04572
10.028527
10.014123
10.002167
9.9924598
9.9849532
9.9796725
9.9767019
9.9759984
9.9770486
9.9811419
9.9885899
9.9920659
10.006806
1262.7249
1657.0814
733.38104
503.23362
324.61086
256.19083
190.03429
156.27453
125.36156
105.28609
88.320887
75.717972
65.348181
57.114178
50.314686
44.732572
40.069192
36.156528
32.841477
30.014815
27.58829
25.492356
23.673188
22.086359
20.694589
19.469927
18.388485
17.430507
16.579806
15.823092
15.148959
14.546371
14.008258
13.52766
13.098567
12.715745
12.374724
12.072482
11.804722
11.568189
11.359861
11.176981
11.017169
10.87767
10.756332
10.651042
10.560526
10.482627
10.416085
10.359402
10.311266
10.270547
10.236276
10.207652
10.184038
10.164956
10.15009
10.139325
10.131786
10.123719
10.115045
10.105671
10.095481
10.084324
10.071989
10.058162
10.042332
10.025871
10.012141
10.000803
9.9916378
9.9845599
9.979588
9.9768446
9.9762483
9.9774542
9.9816329
9.9879931
9.992462
10.005701
1271.5465
1646.9509
721.71408
494.53696
320.76236
252.85568
188.09071
154.22504
123.8096
103.69113
86.943695
74.39494
64.133564
55.979896
49.279572
43.783435
39.20541
35.370078
32.127537
29.366875
27.00133
24.960673
23.192178
21.652217
20.302946
19.117148
18.071264
17.145724
16.324501
15.59466
14.945635
14.365472
13.847743
13.385657
12.973356
12.605678
12.277841
11.987738
11.730843
11.504023
11.304332
11.129004
10.976016
10.842497
10.726427
10.62604
10.539335
10.464588
10.400782
10.346462
10.300346
10.261336
10.228487
10.201011
10.17828
10.159815
10.145275
10.13448
10.126847
10.118708
10.109991
10.10061
10.09046
10.079411
10.067291
10.053858
10.038742
10.023061
10.010042
9.9993561
9.9907716
9.9841642
9.9795395
9.9770225
9.9765174
9.9778894
9.9820726
9.9876095
9.9928235
10.004811
1279.8639
1633.533
709.67685
485.4807
316.34554
249.37054
186.04247
152.02466
122.09995
101.95311
85.385383
72.894724
62.771277
54.72138
48.137215
42.743113
38.263361
34.516653
31.356279
28.669772
26.372514
24.393205
22.680418
21.192118
19.889286
18.745737
17.738368
16.84784
16.05823
15.356756
14.73245
14.176109
13.679967
13.237428
12.842846
12.491347
12.178687
11.901151
11.65545
11.438618
11.247839
11.080125
10.934112
10.806665
10.695791
10.600011
10.517333
10.446284
10.385198
10.333233
10.289137
10.251846
10.220437
10.194134
10.172313
10.154505
10.140352
10.129629
10.121915
10.113719
10.104972
10.095596
10.085497
10.074562
10.062646
10.049561
10.035038
10.02017
10.007886
9.9978734
9.9898926
9.9837896
9.9795483
9.9772608
9.9768391
9.9783519
9.9824555
9.9873761
9.9930979
10.004112
1287.9552
1614.4371
697.34675
476.11484
312.13328
245.76291
183.86242
149.68163
120.22613
99.978898
83.615441
71.219985
61.25812
53.337694
46.888346
41.61345
37.245939
33.599675
30.531766
27.927681
25.7064
23.79464
22.142287
20.706888
19.454109
18.355948
17.389885
16.536891
15.781106
15.110239
14.513598
13.982234
13.508614
13.086354
12.710003
12.374855
12.076815
11.812293
11.57813
11.371558
11.190118
11.031107
10.892133
10.770831
10.665078
10.573873
10.495083
10.427513
10.369604
10.319934
10.277814
10.242216
10.212237
10.18711
10.166212
10.149081
10.135358
10.124786
10.117006
10.108768
10.100007
10.090653
10.08062
10.069807
10.058093
10.045326
10.031308
10.017275
10.005737
9.9964023
9.989032
9.9834544
9.9796253
9.9775788
9.9772449
9.9788513
9.9827885
9.9872523
9.9932235
10.003534
1296.0493
1586.022
684.75265
466.4036
308.09775
242.05642
181.51181
147.1281
118.02395
97.749443
81.621806
69.364456
59.590927
51.828373
45.534804
40.397526
36.157579
32.623978
29.65967
27.146039
25.003177
23.164926
21.578866
20.203232
19.004408
17.95472
17.032516
16.219301
15.499032
14.860124
14.292217
13.786665
13.33621
12.934721
12.57697
12.258452
11.975241
11.723875
11.501279
11.304796
11.132414
10.981404
10.849589
10.734691
10.634784
10.548113
10.473025
10.408748
10.353792
10.306799
10.266559
10.232585
10.203996
10.18003
10.160048
10.143602
10.130332
10.119968
10.11214
10.103876
10.09512
10.085805
10.075855
10.06518
10.053673
10.04121
10.027638
10.014449
10.003657
9.9949917
9.9882217
9.9831721
9.9797701
9.9779822
9.9777547
9.9794042
9.9831007
9.9872331
9.9932855
10.002988
1304.3092
1542.5491
671.82543
456.26806
304.15527
238.27054
178.96077
144.18217
115.48122
95.247953
79.390172
67.320593
57.767119
50.194072
44.080306
39.100286
35.005048
31.596184
28.738685
26.325141
24.271927
22.513825
20.999376
19.687712
18.546355
17.547662
16.671216
15.899696
15.216165
14.610125
14.071611
13.592328
13.165336
12.78479
12.445721
12.143857
11.875475
11.637265
11.426211
11.239504
11.075992
10.932692
10.807792
10.699008
10.604451
10.522478
10.451577
10.390352
10.338144
10.293632
10.255568
10.223099
10.195823
10.172985
10.153897
10.138127
10.12532
10.1152
10.107341
10.099071
10.090337
10.081082
10.071235
10.060715
10.049429
10.037269
10.024112
10.011763
10.001707
9.9936897
9.9874951
9.9829554
9.9799744
9.978459
9.978366
9.9800231
9.9834241
9.9872891
9.9933485
10.002422
1312.6533
1489.8553
658.06906
445.53886
300.15596
234.37669
176.87644
140.84391
112.53912
92.446897
76.903762
65.07892
55.784746
48.437134
42.531452
37.728974
33.784274
30.514951
27.781489
25.477864
23.522036
21.850166
20.412046
19.167706
18.086927
17.141052
16.311113
15.580073
14.933948
14.361221
13.852369
13.399491
12.995999
12.636359
12.315887
12.03057
11.776923
11.551864
11.352618
11.176686
11.021791
10.885702
10.767401
10.664498
10.575055
10.497524
10.43049
10.372675
10.322932
10.280748
10.244673
10.213925
10.187822
10.166064
10.147835
10.132719
10.120372
10.110514
10.102643
10.094385
10.085693
10.076515
10.066791
10.056447
10.0454
10.033553
10.020801
10.009278
9.9999371
9.9925411
9.9868873
9.9828213
9.9802317
9.9789877
9.9790547
9.9807083
9.983797
9.9874108
9.993361
10.001786
1320.7104
1432.2725
645.3869
433.89945
297.00863
231.07005
173.23393
136.98602
109.16117
89.305716
74.146491
62.634063
53.647187
46.565287
40.88276
36.281054
32.513491
29.399165
26.801385
24.616533
22.764806
21.184244
19.826453
18.651077
17.629865
16.738225
15.956204
15.267534
14.658901
14.119365
13.63991
13.213073
12.832649
12.493444
12.191068
11.921777
11.682323
11.469825
11.281684
11.11557
10.969391
10.84114
10.728933
10.631617
10.547016
10.473667
10.410232
10.355498
10.308378
10.268373
10.234136
10.204925
10.180096
10.159356
10.141938
10.127444
10.115539
10.105949
10.098085
10.089856
10.081222
10.07214
10.062555
10.052406
10.04162
10.030107
10.017767
10.007042
9.9983891
9.9915819
9.9864303
9.9827918
9.9805459
9.9795499
9.9797813
9.9814312
9.984243
9.9876228
9.9932771
10.001025
1327.9609
1393.6777
635.38756
431.75257
295.65954
225.60252
168.89105
132.51875
105.3015
85.805943
71.113588
59.994272
51.369716
44.577589
39.158294
34.783944
31.212509
28.266927
25.814677
23.755659
22.013048
20.527073
19.248676
18.144482
17.185456
16.34824
15.613931
14.967157
14.395364
13.888265
13.437397
13.035774
12.677599
12.358026
12.072974
11.818968
11.593003
11.39241
11.214781
11.057873
10.919705
10.798417
10.692841
10.600755
10.520682
10.451244
10.391177
10.339329
10.294674
10.256694
10.224166
10.196387
10.172742
10.152946
10.136281
10.122366
10.110878
10.101549
10.093711
10.085528
10.076969
10.067994
10.058561
10.04862
10.03811
10.026957
10.01506
10.005091
9.9970893
9.990835
9.9861476
9.9828896
9.9809335
9.9801438
9.9805135
9.9821434
9.9846954
9.9878077
9.9931041
10.000099
1333.2781
1378.7168
626.90489
431.7899
292.73205
219.0621
163.69168
127.41892
100.92598
81.948993
67.818777
57.183549
48.955379
42.511014
37.388873
33.265477
29.906194
27.14014
24.840387
22.911558
21.280977
19.888408
18.692313
17.65918
16.761671
15.977849
15.290003
14.683759
14.147399
13.671342
13.247716
12.870036
12.532922
12.231881
11.963129
11.72345
11.51006
11.320533
11.152794
11.00454
10.873786
10.759546
10.659521
10.572249
10.496335
10.430488
10.373519
10.324327
10.281981
10.245849
10.214883
10.188415
10.165859
10.14692
10.13094
10.117555
10.106451
10.097368
10.089574
10.081456
10.072984
10.064127
10.054849
10.045114
10.034878
10.024096
10.012716
10.003449
9.9960507
9.9903081
9.9860472
9.9831296
9.9814203
9.9807964
9.9812587
9.9828277
9.9851432
9.9880325
9.9928317
9.9989967
1334.2195
1400.4188
617.1157
420.36333
286.28057
211.54461
157.46232
121.67097
96.038502
77.7582
64.293446
54.217065
46.460653
40.408935
35.61272
31.758991
28.623531
26.043775
23.899587
22.101023
20.57981
19.283511
18.168247
17.204257
16.366096
15.633389
14.989714
14.421763
13.918702
13.471683
13.073449
12.718023
12.400447
12.11658
11.86292
11.636458
11.434547
11.254842
11.096287
10.956218
10.832794
10.724326
10.629346
10.546424
10.474244
10.411607
10.357434
10.310565
10.270456
10.23597
10.206395
10.181105
10.159547
10.141369
10.125998
10.113083
10.102324
10.093465
10.085736
10.077702
10.069334
10.060606
10.051484
10.041938
10.03193
10.021421
10.010765
10.00213
9.995275
9.9899931
9.9861159
9.9835018
9.9820118
9.9815358
9.982066
9.9835588
9.9856867
9.9884245
9.9927604
9.9981472
1327.534
1376.3667
606.58578
408.04924
277.77562
202.64609
150.13781
115.23669
90.695324
73.309174
60.626344
51.18364
43.954315
38.328853
33.878181
30.305212
27.399042
25.007519
23.018527
21.34839
19.933766
18.726085
17.687646
16.788857
16.006257
15.321088
14.718243
14.18549
13.712882
13.2923
12.917094
12.581793
12.281865
12.01353
11.773595
11.559298
11.368199
11.198199
11.047434
10.914116
10.796515
10.693133
10.602664
10.523612
10.45471
10.394786
10.343234
10.298682
10.260263
10.227196
10.198804
10.174501
10.153908
10.136384
10.121537
10.109028
10.098566
10.089902
10.082262
10.074333
10.066091
10.057512
10.048568
10.03923
10.029468
10.019248
10.009227
10.001142
9.9947584
9.9898761
9.9863297
9.983975
9.9826744
9.9823289
9.982914
9.9843405
9.9863359
9.9889658
9.9929143
9.9976426
1309.64
1318.058
595.77684
392.82361
267.19012
192.47404
141.88804
108.2971
85.08832
68.773545
56.963798
48.202324
41.528876
36.343699
32.243691
28.951258
26.270411
24.061533
22.221491
20.673553
19.359791
18.235868
17.267409
16.427437
15.694557
15.051645
14.484894
13.983108
13.537173
13.139645
12.784422
12.466482
12.181675
11.926548
11.698189
11.494099
11.311909
11.149697
11.005692
10.878144
10.765424
10.666146
10.579673
10.504115
10.438268
10.381041
10.331437
10.288554
10.251583
10.219719
10.192305
10.168986
10.149051
10.132063
10.117645
10.105468
10.095249
10.086747
10.079214
10.07141
10.063313
10.054901
10.04615
10.037036
10.027532
10.017609
10.008116
10.000488
9.9944942
9.9899417
9.9866662
9.9845218
9.9833749
9.9831339
9.9837545
9.9851226
9.9870279
9.9895734
9.9931932
9.9973701
1276.4451
1258.8853
585.11339
374.93772
254.44847
181.07336
132.81876
100.99498
79.365839
64.274494
53.405013
45.352283
39.234898
34.487335
30.7338
27.717618
25.252293
23.215826
21.514694
20.079479
18.857836
17.80973
16.904105
16.116563
15.427715
14.822004
14.286859
13.812059
13.389263
13.011643
12.673587
12.370466
12.09844
11.854298
11.635295
11.4399
11.26533
11.109809
10.971633
10.849137
10.740881
10.645611
10.56208
10.489088
10.425413
10.370005
10.321902
10.280225
10.244505
10.21372
10.187246
10.164532
10.145095
10.128513
10.114416
10.102488
10.092451
10.08407
10.076662
10.068999
10.061062
10.05283
10.044283
10.0354
10.026157
10.01653
10.007444
10.000165
9.99447
9.9901673
9.9870942
9.9851046
9.9840701
9.9839015
9.9845358
9.9858497
9.9876874
9.9901497
9.9934821
9.9972093
1224.5356
1190.3164
574.94074
355.84914
239.93012
169.302
123.92102
94.253114
74.308454
60.438558
50.456149
43.051409
37.415937
33.032089
29.556593
26.755089
24.463653
22.565204
20.974508
19.628374
18.479098
17.490196
16.633352
15.886282
15.231236
14.653936
14.142813
13.688441
13.283111
12.920501
12.595411
12.303553
12.041372
11.805886
11.594546
11.40509
11.23565
11.084517
10.950004
10.83056
10.724889
10.631766
10.549958
10.478851
10.416796
10.362786
10.315897
10.275284
10.240187
10.20992
10.183877
10.161518
10.14237
10.126019
10.112102
10.100306
10.090357
10.082021
10.074754
10.067246
10.05948
10.051438
10.043103
10.034456
10.025479
10.016152
10.007318
10.000256
9.9947438
9.9905915
9.9876354
9.9857298
9.9847512
9.9846093
9.9852255
9.9864793
9.9882631
9.9906625
9.9937793
9.9971896
1162.52
1118.4456
549.30171
329.2889
216.78884
151.44484
111.32607
85.446422
68.094107
55.958991
47.155829
40.572932
35.524467
31.568471
28.410094
25.847028
23.737152
21.978524
20.496641
19.235973
18.154599
17.220205
16.407532
15.696576
15.071299
14.518723
14.028268
13.591266
13.200598
12.850394
12.535811
12.252842
11.998147
11.768908
11.563485
11.379119
11.214065
11.066633
10.935207
10.818424
10.715082
10.623963
10.543883
10.473725
10.412442
10.35906
10.312679
10.272477
10.237712
10.207714
10.181885
10.159698
10.140686
10.12444
10.110602
10.098862
10.08895
10.080633
10.073505
10.066158
10.058562
10.050703
10.042564
10.034129
10.025379
10.016296
10.007595
10.000643
9.9952199
9.9911345
9.9882217
9.9863365
9.9853575
9.9851893
9.9857418
9.986909
9.9886193
9.990907
9.9937578
9.9968742
1119.4463
1153.3726
559.36564
332.8723
217.57549
151.02862
110.52544
84.746225
67.573931
55.60264
46.928522
40.440958
35.460118
31.550565
28.423061
25.879709
23.781701
22.029508
20.550286
19.289901
18.207312
17.270828
16.455592
15.741848
15.113716
14.55832
14.065148
13.625576
13.232509
12.880096
12.563507
12.278744
12.02247
11.791851
11.584409
11.398127
11.231199
11.081892
10.948676
10.830263
10.72542
10.632908
10.55155
10.480232
10.417905
10.363593
10.31639
10.275468
10.240076
10.209534
10.183238
10.160649
10.141292
10.124751
10.110661
10.098703
10.088602
10.080118
10.073045
10.065891
10.0585
10.050854
10.04294
10.034741
10.026242
10.017425
10.008588
10.001521
9.996008
9.9918504
9.9888755
9.9869346
9.9859024
9.9856745
9.9861543
9.9872494
9.9888998
9.9910885
9.9937561
9.9967423
1144.9291
1212.1798
580.57654
347.29106
226.68023
157.19493
114.67744
87.645618
69.663831
57.159162
48.115299
41.362152
36.184781
32.127088
28.886378
26.255681
24.089759
22.284455
20.763555
19.470237
18.361339
17.403598
16.57101
15.842971
15.202961
14.637607
14.136007
13.68922
13.289893
12.931966
12.610442
12.32118
12.060717
11.826169
11.615239
11.425847
11.256026
11.103997
10.968315
10.847687
10.740808
10.646433
10.56338
10.490531
10.42683
10.371293
10.323006
10.28113
10.244903
10.213635
10.18671
10.163581
10.143761
10.126826
10.112402
10.100163
10.089828
10.08115
10.073917
10.066965
10.05978
10.052346
10.044649
10.036674
10.028406
10.019828
10.010923
10.003528
9.9977314
9.9933271
9.9901369
9.9880072
9.9868074
9.9864257
9.9867625
9.9877321
9.9892702
9.9913268
9.993838
9.996733
31328.841
34821.259
19705.73
13478.018
9666.0448
6987.9865
5072.5802
3707.5958
2731.6334
2029.678
1517.1685
1142.3761
862.65837
658.47756
499.74366
382.03603
289.21261
219.66134
168.14616
130.32421
102.24563
81.609449
66.313669
54.981971
46.504171
40.078295
35.168147
31.32946
28.277532
25.791457
23.718782
21.961021
20.448942
19.133822
17.980717
16.964159
16.06503
15.268404
14.562392
13.93769
13.386141
12.900191
12.473496
12.100402
11.775649
11.494368
11.252115
11.044955
10.870739
10.725272
10.603776
10.501703
10.417476
10.35069
10.300587
10.264512
10.239025
10.220286
10.204811
10.190789
10.176053
10.160906
10.142349
10.123376
10.098614
10.077167
10.048206
10.028855
10.004547
9.9921069
9.9696022
9.9664163
9.9454156
9.9540727
9.9344415
9.9573195
9.939233
9.9770009
9.9502971
9.9816771
34289.287
29458.298
22409.839
16810.177
12318.102
8887.6496
6401.5697
4625.2788
3363.5423
2463.6196
1816.2688
1345.6323
1001.3897
747.57054
559.90214
420.83594
317.61352
241.0999
184.39316
142.41332
111.22964
88.197744
71.151648
58.550659
49.162653
42.064641
36.669281
32.475351
29.171353
26.506111
24.296797
22.433014
20.837797
19.456209
18.249083
17.188005
16.25183
15.424112
14.69189
14.045086
13.474849
12.97315
12.533178
12.148951
11.814873
11.52585
11.277158
11.064425
10.885747
10.736882
10.612112
10.507024
10.420374
10.35231
10.301272
10.264635
10.238953
10.220278
10.204988
10.191212
10.176706
10.161825
10.143449
10.124685
10.099948
10.078568
10.049581
10.030369
10.005754
9.9935421
9.9707704
9.9677123
9.9465358
9.9552081
9.9355925
9.9583794
9.9405043
9.9782196
9.9515602
9.9829374
37791.138
20940.256
13297.722
8190.8542
4346.5698
2034.4004
919.46696
450.10609
263.97912
184.06072
145.77
121.47148
105.28248
91.772728
81.304029
73.00438
65.532214
59.511815
53.906772
49.351682
45.030557
41.441292
38.074786
35.229194
32.585958
30.159168
28.061033
26.109985
24.370198
22.795977
21.365113
20.075905
18.91577
17.871344
16.931551
16.086762
15.328477
14.648684
14.040798
13.499495
13.018684
12.592779
12.217254
11.887686
11.599939
11.350026
11.134213
10.948988
10.794223
10.664744
10.554247
10.460316
10.384199
10.325546
10.282302
10.251751
10.230392
10.214466
10.200636
10.187725
10.173467
10.158898
10.140239
10.121753
10.096486
10.075909
10.046622
10.028914
10.003874
9.9932475
9.969764
9.9683753
9.9462285
9.9566104
9.9357574
9.9601816
9.9410362
9.9800964
9.9522656
9.9844176
35022.603
24552.354
13954.992
7313.3787
3158.4908
1180.4724
475.30099
258.36994
188.2275
151.94874
130.78946
112.2749
99.458078
87.163383
77.924557
70.444078
63.352345
57.82882
52.399311
48.154611
43.911907
40.549991
37.197617
34.538469
31.887843
29.590927
27.496784
25.616246
23.910208
22.378002
20.998486
19.756297
18.63778
17.630263
16.723027
15.906874
15.173701
14.515958
13.9275
13.403107
12.936872
12.523662
12.159126
11.8391
11.559554
11.316672
11.106854
10.926713
10.776471
10.650073
10.541449
10.449701
10.376044
10.31949
10.277939
10.248703
10.228302
10.213013
10.1996
10.186955
10.172892
10.158429
10.139877
10.121408
10.096251
10.075664
10.046752
10.029346
10.004277
9.9941305
9.9704171
9.9695368
9.9471709
9.9579278
9.9368498
9.9616351
9.9421939
9.9817629
9.9533926
9.9859396
37108.343
23925.554
13369.986
6800.4204
2843.1681
1028.2213
424.17846
243.00801
182.33028
147.675
127.0706
108.93095
96.555303
84.886411
76.436355
68.475159
62.056461
56.22559
51.313105
46.882781
43.045876
39.558783
36.503967
33.710567
31.213601
28.950325
26.917889
25.092271
23.454785
21.980615
20.653463
19.45745
18.378921
17.406212
16.529315
15.739655
15.029639
14.39221
13.821614
13.312766
12.860022
12.45863
12.104401
11.793296
11.521454
11.285191
11.081029
10.905696
10.759754
10.636041
10.529107
10.43993
10.368651
10.314078
10.274123
10.246103
10.226594
10.211868
10.198841
10.186401
10.17253
10.15811
10.139688
10.121155
10.096167
10.075466
10.046933
10.029508
10.004776
9.9943174
9.9712087
9.9699426
9.9481511
9.9586838
9.9379138
9.9627597
9.9433333
9.9832369
9.954507
9.9874018
37698.244
23434.813
12861.023
6181.5066
2342.8649
787.9183
347.80479
219.88665
174.49573
142.20936
123.59519
105.4593
93.776921
82.275206
74.283294
66.487019
60.355214
54.68162
49.96519
45.680541
41.969501
38.628304
35.659513
32.981975
30.560523
28.373167
26.410676
24.647753
23.063899
21.637819
20.353079
19.194265
18.148648
17.205103
16.354067
15.587363
14.897692
14.278361
13.723832
13.229021
12.788576
12.398031
12.053305
11.750476
11.485803
11.255719
11.056851
10.886028
10.74414
10.622601
10.517729
10.431138
10.362079
10.309342
10.270852
10.243944
10.225236
10.211007
10.198308
10.186036
10.172316
10.157916
10.139595
10.120987
10.096141
10.075319
10.047216
10.029949
10.005281
9.9950581
9.9719937
9.9707996
9.9491541
9.9596345
9.9390184
9.9639488
9.9444894
9.984742
9.9556289
9.9888739
38675.131
23015.567
12310.832
5629.4662
2020.2075
666.15885
314.72037
210.54282
170.09267
139.36175
121.02783
103.25708
91.761857
80.371925
72.627401
64.919423
59.007565
53.457104
48.889989
44.70915
41.109611
37.848495
34.965509
32.354574
29.999353
27.872638
25.965975
24.253781
22.715858
21.33047
20.082025
18.955621
17.938975
17.021309
16.193364
15.447262
14.775944
14.173026
13.63309
13.15108
12.721944
12.341421
12.005503
11.710371
11.452389
11.228087
11.034188
10.867604
10.729455
10.609692
10.507391
10.423269
10.35628
10.305246
10.268106
10.242214
10.224224
10.210429
10.198008
10.185863
10.172262
10.157855
10.139611
10.120909
10.096192
10.075228
10.047539
10.030067
10.005808
9.9953066
9.9727999
9.9714281
9.9501694
9.9604819
9.9401168
9.9650985
9.9456471
9.9862224
9.9567507
9.9903297
39465.656