/*--------------------------------*- C++ -*----------------------------------*\
  =========                 |
  \\      /  F ield         | OpenFOAM: The Open Source CFD Toolbox
   \\    /   O peration     | Website:  https://openfoam.org
    \\  /    A nd           | Version:  6
     \\/     M anipulation  |
\*---------------------------------------------------------------------------*/
FoamFile
{
    version     2.0;
    format      ascii;
    class       volScalarField;
    location    "300";
    object      p;
}
// * * * * * * * * * * * * * * * * * * * * * * * * * * * * * * * * * * * * * //

dimensions      [1 -1 -2 0 0 0 0];

internalField   nonuniform List<scalar> 
16000
(
98733.563
98794.648
98798.921
98858.104
98870.754
98925.044
98947.249
98997.019
99027.506
99074.537
99111.359
99157.468
99198.912
99245.41
99290.241
99337.863
99385.255
99434.285
99483.657
99534.067
99584.952
99636.507
99688.455
99740.783
99793.311
99845.94
99898.514
99950.894
100002.93
100054.45
100105.31
100155.34
100204.38
100252.25
100298.78
100343.83
100387.26
100428.94
100468.74
100506.53
100542.21
100575.68
100606.88
100635.72
100662.16
100686.17
100707.73
100726.84
100743.48
100757.7
100769.51
100778.96
100786.09
100790.97
100793.66
100794.23
100792.74
100789.29
100783.94
100776.78
100767.88
100757.35
100745.2
100731.66
100716.5
100700.37
100682.2
100664.16
100642.35
100624
100596.14
100582.06
100540.09
100544.76
100464.14
100525.45
100345.17
100549.21
100169.66
100598.66
98768.748
98834.214
98838.468
98902.406
98915.339
98974.08
98997.315
99050.999
99083.27
99133.751
99172.911
99222.174
99266.276
99315.763
99363.387
99413.894
99464.079
99515.885
99567.956
99620.985
99674.39
99728.341
99782.548
99836.971
99891.414
99945.755
99999.819
100053.45
100106.47
100158.71
100209.99
100260.14
100308.98
100356.35
100402.09
100446.02
100488.01
100527.93
100565.68
100601.15
100634.25
100664.91
100693.09
100718.74
100741.85
100762.41
100780.43
100795.94
100808.98
100819.58
100827.83
100833.76
100837.47
100839.03
100838.52
100836.02
100831.62
100825.41
100817.46
100807.87
100796.72
100784.09
100770.03
100754.66
100737.96
100720.16
100700.94
100681.11
100659.17
100638.08
100612.19
100592.35
100557.43
100548.41
100486.54
100519.67
100375.57
100534.07
100197.47
100588.69
98824.571
98895.389
98899.641
98968.739
98982.385
99045.652
99070.471
99128.044
99162.608
99216.526
99258.422
99310.866
99357.907
99410.436
99461.031
99514.47
99567.542
99622.135
99676.917
99732.524
99788.379
99844.611
99900.919
99957.234
100013.34
100069.09
100124.29
100178.76
100232.31
100284.75
100335.89
100385.55
100433.54
100479.71
100523.88
100565.91
100605.67
100643.03
100677.89
100710.2
100739.88
100766.9
100791.24
100812.89
100831.87
100848.21
100861.96
100873.18
100881.93
100888.29
100892.36
100894.22
100893.97
100891.71
100887.54
100881.54
100873.83
100864.5
100853.62
100841.29
100827.59
100812.6
100796.38
100779
100760.5
100740.98
100720.35
100698.92
100676.13
100653.15
100627.58
100604.34
100572.97
100555.48
100505.13
100518.7
100400.62
100523.26
100223.32
100581.05
98903.245
98979.853
98984.079
99058.876
99073.299
99141.557
99168.141
99229.976
99267.106
99324.771
99369.709
99425.61
99475.884
99531.703
99585.52
99642.099
99698.247
99755.776
99813.381
99871.629
99929.95
99988.423
100046.74
100104.78
100162.32
100219.19
100275.16
100330.04
100383.61
100435.67
100486.03
100534.49
100580.87
100625.01
100666.75
100705.96
100742.52
100776.35
100807.36
100835.5
100860.77
100883.15
100902.67
100919.36
100933.28
100944.5
100953.11
100959.2
100962.87
100964.25
100963.44
100960.56
100955.74
100949.08
100940.71
100930.74
100919.26
100906.39
100892.21
100876.8
100860.25
100842.63
100824
100804.42
100783.93
100762.58
100740.36
100717.39
100693.45
100668.99
100643.01
100617.6
100587.81
100565.02
100521.98
100521.14
100423.48
100517.91
100248.51
100582.46
99003.995
99087.124
99091.399
99172.576
99188.017
99261.78
99290.514
99356.996
99397.14
99458.871
99507.281
99566.928
99620.795
99680.159
99737.473
99797.387
99856.788
99917.363
99977.855
100038.74
100099.47
100160.05
100220.17
100279.66
100338.29
100395.83
100452.06
100506.75
100559.68
100610.63
100659.39
100705.78
100749.62
100790.76
100829.05
100864.39
100896.69
100925.9
100951.98
100974.92
100994.72
101011.46
101025.18
101035.97
101043.94
101049.2
101051.87
101052.09
101050
101045.74
101039.47
101031.31
101021.42
101009.93
100996.95
100982.63
100967.05
100950.34
100932.58
100913.86
100894.24
100873.8
100852.59
100830.67
100808.05
100784.78
100760.86
100736.32
100711.09
100685.3
100658.55
100631.62
100602.35
100576.12
100537.94
100526.55
100444.64
100515.97
100272.66
100587.09
99127.531
99217.986
99222.491
99310.893
99327.697
99407.609
99438.989
99510.589
99554.291
99620.477
99672.852
99736.587
99794.451
99857.648
99918.752
99982.211
100045.03
100108.75
100172.16
100235.65
100298.66
100361.14
100422.76
100483.33
100542.55
100600.21
100656.04
100709.79
100761.23
100810.15
100856.34
100899.61
100939.8
100976.78
101010.45
101040.73
101067.57
101090.96
101110.92
101127.49
101140.72
101150.73
101157.64
101161.57
101162.68
101161.13
101157.08
101150.71
101142.2
101131.72
101119.44
101105.52
101090.12
101073.39
101055.47
101036.48
101016.54
100995.74
100974.19
100951.96
100929.11
100905.72
100881.81
100857.44
100832.62
100807.37
100781.69
100755.58
100729
100701.96
100674.31
100646.23
100616.92
100588.44
100553.48
100534.27
100465.25
100516.72
100297.15
100595.06
99275.927
99375.063
99379.942
99476.373
99494.785
99581.386
99615.867
99692.958
99740.725
99811.678
99868.475
99936.584
99998.798
100066.06
100131.19
100198.34
100264.67
100331.54
100397.8
100463.73
100528.76
100592.79
100655.46
100716.52
100775.68
100832.66
100887.2
100939.04
100987.94
101033.68
101076.07
101114.95
101150.19
101181.69
101209.38
101233.25
101253.29
101269.56
101282.14
101291.11
101296.64
101298.84
101297.92
101294.05
101287.44
101278.3
101266.83
101253.24
101237.75
101220.54
101201.82
101181.76
101160.53
101138.29
101115.17
101091.31
101066.82
101041.8
101016.33
100990.49
100964.33
100937.9
100911.24
100884.38
100857.32
100830.07
100802.62
100774.95
100747.03
100718.82
100690.22
100661.22
100631.59
100601.68
100568.84
100543.83
100485.74
100519.74
100322.13
100605.42
99451.412
99560.411
99565.419
99670.728
99691.008
99784.821
99822.924
99905.885
99958.291
100034.35
100096.07
100168.87
100235.8
100307.38
100376.74
100447.68
100517.57
100587.52
100656.46
100724.53
100791.17
100856.22
100919.26
100980.04
101038.21
101093.5
101145.61
101194.29
101239.3
101280.46
101317.59
101350.57
101379.31
101403.78
101423.97
101439.93
101451.72
101459.48
101463.34
101463.49
101460.13
101453.46
101443.74
101431.19
101416.08
101398.65
101379.16
101357.83
101334.9
101310.59
101285.11
101258.64
101231.36
101203.43
101174.98
101146.14
101117.02
101087.71
101058.28
101028.8
100999.31
100969.85
100940.44
100911.1
100881.83
100852.61
100823.42
100794.24
100765.02
100735.7
100706.2
100676.47
100646.41
100615.67
100584.19
100555.02
100506.27
100524.92
100348.28
100618.47
99653.431
99773.695
99779.024
99894.371
99917.104
100018.9
100061.42
100150.82
100208.63
100290.28
100357.54
100435.42
100507.49
100583.64
100657.42
100732.23
100805.61
100878.45
100949.72
101019.45
101087.08
101152.34
101214.83
101274.23
101330.19
101382.41
101430.61
101474.55
101514.03
101548.88
101578.99
101604.3
101624.79
101640.49
101651.5
101657.92
101659.93
101657.73
101651.55
101641.64
101628.26
101611.74
101592.33
101570.35
101546.07
101519.8
101491.81
101462.35
101431.68
101400.03
101367.6
101334.59
101301.18
101267.5
101233.7
101199.89
101166.16
101132.59
101099.26
101066.19
101033.44
101001.02
100968.93
100937.19
100905.77
100874.65
100843.81
100813.2
100782.76
100752.44
100722.13
100691.79
100661.31
100630.21
100599.54
100567.64
100526.84
100531.81
100376.06
100632.91
99883.604
100016.87
100022.77
100149.46
100175.34
100285.95
100333.8
100430.22
100494.29
100582.02
100655.45
100738.81
100816.38
100897.3
100975.6
101054.19
101130.83
101206.15
101279.18
101349.8
101417.45
101481.79
101542.4
101598.94
101651.05
101698.44
101740.86
101778.1
101810.02
101836.51
101857.56
101873.17
101883.43
101888.48
101888.49
101883.69
101874.35
101860.76
101843.24
101822.12
101797.75
101770.49
101740.67
101708.63
101674.7
101639.19
101602.4
101564.6
101526.05
101486.97
101447.57
101408.04
101368.54
101329.2
101290.14
101251.47
101213.26
101175.58
101138.47
101101.96
101066.08
101030.83
100996.2
100962.18
100928.75
100895.86
100863.48
100831.56
100800.03
100768.82
100737.83
100707.03
100676.21
100645.11
100614.87
100581.53
100547.36
100540.3
100405.8
100647.95
100144.14
100292.37
100299.02
100438.44
100468.27
100588.55
100642.78
100746.87
100818.12
100912.48
100992.7
101081.91
101165.28
101251.07
101333.8
101415.88
101495.27
101572.35
101646.17
101716.51
101782.77
101844.59
101901.51
101953.2
101999.33
102039.64
102073.94
102102.09
102124.05
102139.81
102149.45
102153.12
102151.02
102143.4
102130.57
102112.87
102090.66
102064.35
102034.34
102001.03
101964.84
101926.19
101885.42
101842.93
101799.06
101754.14
101708.46
101662.3
101615.91
101569.5
101523.27
101477.39
101431.99
101387.2
101343.11
101299.81
101257.35
101215.78
101175.12
101135.39
101096.59
101058.71
101021.73
100985.62
100950.34
100915.86
100882.11
100849.03
100816.56
100784.61
100753.1
100721.97
100690.97
100660.14
100630.11
100596.45
100567.61
100550.26
100436.8
100662.78
100436.31
100602.06
100609.96
100763.81
100798.75
100929.73
100991.64
101104.14
101183.59
101285.14
101372.77
101468.11
101557.41
101647.92
101734.7
101819.64
101900.85
101978.49
102051.62
102119.92
102182.79
102239.84
102290.64
102334.89
102372.31
102402.74
102426.08
102442.33
102451.54
102453.89
102449.58
102438.92
102422.26
102399.98
102372.53
102340.36
102303.95
102263.79
102220.36
102174.13
102125.57
102075.11
102023.15
101970.08
101916.24
101861.97
101807.54
101753.23
101699.24
101645.79
101593.03
101541.12
101490.16
101440.26
101391.48
101343.88
101297.49
101252.34
101208.43
101165.77
101124.33
101084.08
101045
101007.03
100970.14
100934.26
100899.33
100865.29
100832.06
100799.54
100767.69
100736.39
100705.4
100675.03
100645.13
100612.08
100587.32
100561.49
100467.86
100676.47
100763.86
100949.93
100959.63
101129.67
101171.04
101313.73
101384.71
101506.34
101594.98
101704.2
101799.63
101901.17
101996.2
102090.92
102180.89
102267.49
102348.98
102425.28
102495.51
102559.26
102615.96
102665.24
102706.74
102740.23
102765.59
102782.76
102791.83
102792.95
102786.37
102772.44
102751.55
102724.18
102690.83
102652.06
102608.42
102560.48
102508.83
102454.02
102396.58
102337.04
102275.89
102213.56
102150.47
102086.98
102023.44
101960.14
101897.34
101835.28
101774.15
101714.11
101655.3
101597.83
101541.78
101487.22
101434.18
101382.71
101332.81
101284.47
101237.69
101192.44
101148.69
101106.39
101065.49
101025.95
100987.69
100950.66
100914.79
100880
100846.21
100813.34
100781.32
100750.03
100719.28
100689.49
100659.78
100628.09
100606.28
100573.8
100498.37
100689.57
101130.25
101339.91
101352.13
101540.32
101589.76
101745.2
101826.83
101958.28
102057.02
102174.22
102277.59
102385.02
102485.08
102582.9
102674.48
102760.75
102840.09
102912.25
102976.39
103032.1
103078.89
103116.47
103144.65
103163.35
103172.64
103172.68
103163.78
103146.31
103120.76
103087.69
103047.7
103001.43
102949.58
102892.81
102831.8
102767.23
102699.72
102629.89
102558.31
102485.49
102411.92
102338.04
102264.22
102190.81
102118.1
102046.36
101975.8
101906.63
101838.98
101772.98
101708.72
101646.29
101585.72
101527.06
101470.31
101415.47
101362.53
101311.46
101262.23
101214.8
101169.11
101125.11
101082.73
101041.91
101002.59
100964.68
100928.11
100892.81
100858.69
100825.68
100793.7
100762.6
100732.32
100703.22
100673.88
100644.11
100624.27
100586.96
100528
100701.81
101539.59
101776.84
101792.68
102001.14
102060.71
102229.91
102323.87
102465.72
102575.17
102700.37
102811.28
102923.61
103027.19
103126.03
103216.6
103299.38
103372.92
103436.87
103490.52
103533.52
103565.58
103586.58
103596.58
103595.77
103584.49
103563.19
103532.46
103492.96
103445.41
103390.62
103329.38
103262.51
103190.83
103115.12
103036.15
102954.63
102871.23
102786.55
102701.17
102615.56
102530.2
102445.47
102361.67
102279.13
102198.07
102118.71
102041.22
101965.74
101892.35
101821.16
101752.2
101685.5
101621.09
101558.96
101499.09
101441.45
101386
101332.7
101281.49
101232.31
101185.09
101139.76
101096.26
101054.5
101014.41
100975.91
100938.93
100903.37
100869.16
100836.22
100804.48
100773.78
100744.19
100715.86
100687.15
100659.7
100640.99
100600.74
100556.87
100712.61
101997.17
102266.65
102287.63
102518.52
102590.64
102774.46
102882.55
103035.3
103155.51
103287.93
103405.06
103520.2
103624.49
103720.87
103806.28
103880.87
103943.41
103993.59
104030.91
104055.27
104066.65
104065.3
104051.61
104026.14
103989.59
103942.76
103886.57
103821.96
103749.92
103671.44
103587.5
103499.05
103406.98
103312.15
103215.33
103117.24
103018.52
102919.76
102821.45
102724.02
102627.89
102533.37
102440.68
102350.07
102261.72
102175.77
102092.33
102011.49
101933.29
101857.76
101784.91
101714.73
101647.2
101582.28
101519.93
101460.09
101402.69
101347.68
101294.98
101244.51
101196.18
101149.93
101105.67
101063.32
101022.78
100983.99
100946.86
100911.31
100877.25
100844.62
100813.32
100783.24
100754.51
100727.03
100699.29
100674.31
100655.99
100614.8
100584.95
100721.32
102509.58
102816.48
102844.42
103099.64
103187.23
103386.42
103509.98
103673.75
103803.95
103941.44
104061.95
104176.2
104276.55
104365.09
104439.21
104498.95
104543.43
104572.56
104586.27
104584.85
104568.75
104538.7
104495.55
104440.31
104374.11
104298.11
104213.54
104121.61
104023.5
103920.36
103813.27
103703.22
103591.14
103477.85
103364.1
103250.54
103137.75
103026.22
102916.35
102808.5
102703.01
102600.07
102499.8
102402.4
102307.98
102216.61
102128.34
102043.19
101961.15
101882.22
101806.35
101733.49
101663.6
101596.61
101532.43
101471
101412.23
101356.04
101302.34
101251.03
101202.04
101155.26
101110.61
101068
101027.34
100988.56
100951.56
100916.27
100882.6
100850.5
100819.85
100790.59
100762.89
100736.34
100709.9
100687.39
100668.96
100628.53
100611.38
100727.84
103084.25
103435.37
103473.93
103755.47
103862.19
104077.54
104215.27
104386.12
104524.66
104663.74
104782.71
104890.04
104979.27
105051.97
105106.15
105142.06
105159.39
105158.56
105140.14
105105.02
105054.31
104989.3
104911.38
104822.04
104722.8
104615.16
104500.57
104380.42
104256.01
104128.51
103999.02
103868.48
103737.76
103607.6
103478.62
103351.37
103226.31
103103.82
102984.17
102867.64
102754.45
102644.65
102538.31
102435.55
102336.4
102240.87
102148.93
102060.56
101975.71
101894.31
101816.3
101741.59
101670.09
101601.72
101536.38
101473.96
101414.38
101357.53
101303.31
101251.62
101202.36
101155.44
101110.76
101068.24
101027.77
100989.28
100952.68
100917.89
100884.85
100853.48
100823.68
100795.43
100768.88
100743.39
100718.56
100698.42
100679.64
100641.41
100635.07
100731.87
103735.45
104138.42
104193.92
104501.67
104626.64
104851.97
105005.33
105181.89
105322.29
105455.98
105564.57
105655.06
105722.33
105767.84
105790.57
105791.35
105770.75
105730.02
105670.55
105594.03
105502.25
105397.13
105280.56
105154.44
105020.55
104880.59
104736.12
104588.55
104439.14
104289.01
104139.13
103990.32
103843.28
103698.6
103556.76
103418.14
103283.07
103151.77
103024.4
102901.12
102782.05
102667.09
102556.27
102449.63
102347.11
102248.67
102154.24
102063.74
101977.07
101894.13
101814.83
101739.05
101666.67
101597.6
101531.71
101468.89
101409.02
101352.01
101297.73
101246.08
101196.96
101150.26
101105.89
101063.76
101023.77
100985.84
100949.89
100915.84
100883.64
100853.19
100824.41
100797.34
100772.03
100747.73
100724.74
100706.72
100687.53
100652.79
100654.85
100732.93
104488.29
104942.51
105013.28
105340.11
105487.51
105729.05
105888.35
106062.2
106194.26
106310.16
106394.9
106454.22
106484.9
106488.84
106466.41
106419.46
106349.75
106259.55
106151.21
106027.21
105890
105741.94
105585.3
105422.14
105254.35
105083.61
104911.4
104738.99
104567.47
104397.76
104230.6
104066.62
103906.32
103750.08
103598.19
103450.87
103308.3
103170.52
103037.59
102909.6
102786.5
102668.09
102554.36
102445.26
102340.71
102240.58
102144.78
102053.17
101965.62
101882.02
101802.23
101726.11
101653.54
101584.39
101518.52
101455.83
101396.17
101339.45
101285.53
101234.31
101185.69
101139.55
101095.8
101054.34
101015.09
100977.97
100942.89
100909.78
100878.59
100849.23
100821.63
100795.87
100771.86
100748.89
100727.87
100711.69
100692.53
100661.56
100670.08
100731.09
105337.29
105842.07
105933.72
106291.65
106463.64
106707.24
106862.77
107017.53
107124.98
107205.05
107247.36
107257.14
107233.64
107179.92
107098.16
106991.56
106863.21
106716.42
106554.37
106380.12
106196.48
106006.03
105811.04
105613.52
105415.17
105217.44
105021.53
104828.44
104638.95
104453.7
104273.18
104097.75
103927.67
103763.11
103604.19
103450.97
103303.44
103161.53
103025.2
102894.48
102769.13
102648.86
102533.7
102423.5
102318.14
102217.46
102121.31
102029.54
101941.98
101858.5
101778.94
101703.15
101630.99
101562.33
101497.01
101434.92
101375.92
101319.88
101266.71
101216.26
101168.45
101123.17
101080.31
101039.78
101001.5
100965.39
100931.38
100899.38
100869.35
100841.21
100814.91
100790.55
100767.9
100746.39
100727.42
100712.83
100693.9
100666.52
100680.61
100726.59
106318.97
106882.8
107006.33
107374.78
107549.21
107772.1
107908.57
108022.8
108082.26
108102.91
108079.74
108019.01
107922.97
107796.5
107643.68
107469.09
107276.9
107071.09
106855.25
106632.56
106405.78
106177.27
105948.98
105722.54
105499.24
105280.12
105065.98
104857.43
104654.92
104458.75
104269.12
104086.16
103909.89
103740.3
103577.33
103420.9
103270.85
103127.01
102989.32
102857.68
102731.64
102611
102495.74
102385.67
102280.61
102180.38
102084.79
101993.69
101906.88
101824.21
101745.52
101670.65
101599.44
101531.75
101467.43
101406.35
101348.38
101293.4
101241.29
101191.92
101145.2
101101.02
101059.28
101019.89
100982.78
100947.86
100915.05
100884.31
100855.56
100828.73
100803.83
100780.89
100759.61
100739.68
100722.66
100709.24
100690.97
100668.36
100684.98
100717.91
107466.39
108079.47
108228.86
108580.54
108740.15
108913.93
108994.77
109035.09
109013.71
108946.12
108832.72
108681.83
108498.64
108289.7
108060.55
107816.46
107561.99
107301.11
107037.12
106772.78
106510.29
106251.42
105997.5
105749.59
105508.44
105274.57
105048.35
104829.99
104619.58
104417.14
104222.62
104035.91
103856.85
103685.26
103520.98
103363.78
103213.38
103069.59
102932.34
102801.3
102675.97
102556.27
102442.08
102333.17
102229.36
102130.43
102036.2
101946.47
101861.06
101779.81
101702.52
101629.06
101559.25
101492.95
101430.02
101370.31
101313.7
101260.07
101209.29
101161.25
101115.85
101072.98
101032.55
100994.48
100958.69
100925.09
100893.62
100864.22
100836.84
100811.4
100787.93
100766.43
100746.55
100728.27
100713.05
100700.56
100683.6
100665.84
100682.08
100704.16
108814.9
109428.97
109570.03
109868.45
109970.46
110053.12
110036.56
109965.96
109832.14
109651.93
109431.01
109179.6
108904.95
108614.31
108313.47
108007.39
107700.02
107394.5
107093.24
106798.08
106510.34
106230.97
105960.59
105699.61
105448.21
105206.46
104974.3
104751.61
104538.19
104333.83
104138.27
103951.22
103772.4
103601.53
103438.33
103282.47
103133.62
102991.63
102856.34
102727.19
102603.79
102486.12
102373.98
102267.14
102165.39
102068.5
101976.29
101888.55
101805.1
101725.75
101650.35
101578.72
101510.7
101446.15
101384.93
101326.89
101271.92
101219.89
101170.67
101124.17
101080.28
101038.9
100999.94
100963.32
100928.96
100896.79
100866.74
100838.76
100812.78
100788.77
100766.74
100746.63
100728.16
100711.51
100697.86
100686.17
100670.92
100657.65
100672.11
100685.08
110285.56
110872.82
110969.79
111155.86
111145.89
111084.39
110925.56
110710.22
110441.18
110136.42
109805.05
109457.48
109100.96
108741.69
108384.22
108032.02
107687.56
107352.61
107028.31
106715.38
106414.2
106124.91
105847.48
105581.72
105327.39
105084.17
104851.71
104629.62
104417.53
104215.03
104021.75
103837.28
103661.28
103493.39
103333.25
103180.48
103034.78
102896.04
102763.87
102637.64
102517.17
102402.44
102293.16
102189.11
102090.06
101995.81
101906.15
101820.88
101739.82
101662.79
101589.63
101520.16
101454.24
101391.72
101332.46
101276.33
101223.2
101172.96
101125.49
101080.69
101038.45
100998.68
100961.29
100926.21
100893.36
100862.67
100834.08
100807.54
100782.99
100760.39
100739.77
100721.01
100703.91
100688.79
100676.46
100665.51
100652.2
100642.66
100654.38
100660.41
111859.36
112337.46
112327.68
112310.28
112120.85
111865.9
111535.15
111163.67
110761.69
110344.95
109922.11
109500.92
109086.29
108681.88
108289.93
107911.91
107548.56
107200.21
106866.87
106548.3
106244.14
105953.93
105677.13
105413.2
105161.58
104921.73
104693.11
104475.19
104267.48
104069.49
103880.77
103700.87
103529.42
103366.02
103210.25
103061.72
102920.27
102785.68
102657.32
102534.74
102417.94
102306.72
102200.83
102100.06
102004.17
101912.95
101826.21
101743.75
101665.4
101590.97
101520.31
101453.26
101389.66
101329.38
101272.29
101218.24
101167.13
101118.83
101073.24
101030.26
100989.78
100951.73
100916.01
100882.54
100851.26
100822.1
100795.01
100769.92
100746.79
100725.59
100706.32
100688.86
100673.1
100659.38
100648.16
100637.98
100626.63
100620
100628.7
100629.89
113466.24
113536.7
113327
113027.35
112621.98
112169.7
111683.69
111186.97
110689.56
110200.85
109725.68
109267.49
108827.9
108407.71
108007
107625.46
107262.51
106917.44
106589.45
106277.67
105981.25
105699.37
105431.25
105176.16
104933.39
104702.31
104482.29
104272.77
104073.2
103883.09
103701.97
103529.39
103364.96
103208.26
103058.86
102916.49
102781.02
102652
102528.77
102411.18
102299.22
102192.6
102091.11
101994.53
101902.64
101815.24
101732.14
101653.16
101578.13
101506.88
101439.26
101375.11
101314.3
101256.68
101202.14
101150.54
101101.78
101055.73
101012.31
100971.4
100932.92
100896.78
100862.91
100831.21
100801.64
100774.12
100748.6
100725.02
100703.34
100683.55
100665.6
100649.4
100634.89
100622.41
100612.09
100602.64
100593.04
100588.6
100595.08
100592.19
114296.94
114009.57
113572.29
113054.91
112497.88
111931.96
111371.34
110826.86
110303.01
109802.57
109326.17
108873.73
108444.49
108037.46
107651.49
107285.42
106938.05
106608.26
106295.03
105997.45
105714.59
105445.61
105189.7
104946.14
104714.25
104493.39
104282.98
104082.47
103891.37
103709.19
103535.5
103369.89
103211.98
103061.35
102917.67
102780.81
102650.53
102526.16
102407.35
102294.13
102186.27
102083.57
101985.8
101892.74
101804.21
101720.02
101639.97
101563.9
101491.66
101423.07
101357.99
101296.28
101237.8
101182.42
101130.03
101080.49
101033.7
100989.56
100947.96
100908.82
100872.03
100837.51
100805.2
100775
100746.87
100720.73
100696.53
100674.22
100653.75
100635.1
100618.23
100603.05
100589.58
100577.99
100568.28
100559.63
100551.78
100547.84
100550.18
100547.76
113428.5
113123.27
112666.32
112145.07
111603.67
111065.43
110540.79
110036.14
109553.45
109093.69
108656.5
108241.25
107846.94
107472.55
107116.97
106779.16
106458.08
106152.77
105862.25
105585.74
105322.5
105071.83
104833.07
104605.6
104388.83
104182.21
103985.24
103797.44
103618.35
103447.57
103284.71
103129.42
102981.34
102840.1
102705.48
102577.28
102455.04
102338.26
102226.82
102120.64
102019.51
101923.21
101831.53
101744.3
101661.33
101582.44
101507.46
101436.25
101368.64
101304.49
101243.67
101186.03
101131.45
101079.81
101030.99
100984.88
100941.37
100900.37
100861.78
100825.5
100791.46
100759.57
100729.75
100701.93
100676.05
100652.05
100629.87
100609.47
100590.79
100573.8
100558.47
100544.74
100532.62
100522.17
100513.34
100505.79
100499.55
100495.87
100495.42
100494.14
109667.27
110293.42
110302.66
110193.74
109940.57
109635.42
109292.3
108936.12
108575
108217.07
107865.9
107524.29
107193.58
106874.62
106567.72
106272.96
105990.21
105719.23
105459.71
105211.21
104973.32
104745.62
104527.71
104319.19
104119.67
103928.79
103746.19
103571.55
103404.52
103244.82
103092.16
102946.26
102806.8
102673.53
102546.34
102424.96
102308.83
102197.77
102091.78
101990.65
101894.22
101802.29
101714.71
101631.3
101551.91
101476.38
101404.56
101336.32
101271.51
101210
101151.67
101096.4
101044.05
100994.53
100947.73
100903.53
100861.83
100822.55
100785.6
100750.88
100718.31
100687.81
100659.3
100632.73
100608.02
100585.11
100563.94
100544.47
100526.65
100510.43
100495.78
100482.66
100471.06
100460.97
100452.35
100445.13
100439.35
100435.22
100432.84
100431.78
110824.21
110874.87
110755.03
110494.38
110108.96
109652.98
109154.63
108635.67
108106.96
107575.7
107056.34
106546.07
106057.72
105586.1
105135.36
104717.66
104327.83
103980.75
103667.63
103389.05
103141.19
102922.34
102728.57
102558.07
102406.9
102271.85
102149.09
102037.56
101937.26
101850.67
101772.88
101701
101634.22
101571.55
101512.33
101456.06
101402.42
101351.19
101302.21
101255.28
101210.36
101167.36
101126.2
101086.98
101049.6
101013.99
100980.11
100947.89
100917.26
100888.16
100860.52
100834.28
100809.31
100785.62
100762.98
100741.53
100720.77
100701.27
100681.84
100664.08
100645.21
100629.24
100609.77
100596.17
100574.22
100564.62
100537.08
100534.65
100495.22
100507.33
100446.71
100484.8
100387.51
100470.12
100313.06
100468.35
100218.25
100483.72
100098.76
100524.83
96789.266
96990.938
97409.32
97866.771
98351.584
98865.077
99300.536
99674.501
100025.68
100340.49
100611.75
100848.7
101052.37
101225.93
101373.29
101494.58
101593.9
101672.21
101732.45
101775.12
101803.62
101817.85
101821.67
101813.59
101795.63
101771.13
101740.12
101705.23
101667.1
101626.96
101584.77
101540.91
101495.47
101449.48
101403.61
101358.28
101313.85
101270.55
101228.61
101188.14
101149.09
101111.54
101075.48
101040.92
101007.85
100976.24
100946.06
100917.28
100889.83
100863.69
100838.77
100815.06
100792.42
100770.88
100750.21
100730.58
100711.48
100693.47
100675.45
100658.88
100641.23
100626.13
100607.8
100594.68
100573.89
100564.24
100538.17
100535.01
100497.99
100508.02
100450.81
100485.71
100392.51
100471.52
100318.12
100470.68
100221.76
100488.86
100099.14
100532.59
104216.63
104252.33
104250.09
104216.97
104152.71
104065.92
103962.16
103845.89
103720.88
103591.77
103459.51
103327.26
103194.8
103064.59
102935.74
102813.53
102693.24
102581.96
102473.61
102375.83
102276.64
102189.57
102099.35
102022.06
101948.55
101881.68
101823.78
101766.28
101711.6
101648.23
101588.76
101532.74
101479.32
101428.49
101379.97
101333.56
101289.08
101246.4
101205.37
101165.99
101128.26
101092.1
101057.52
101024.38
100992.7
100962.43
100933.53
100905.98
100879.72
100854.73
100830.93
100808.29
100786.68
100766.13
100746.38
100727.64
100709.35
100692.13
100674.79
100658.9
100641.8
100627.24
100609.34
100596.61
100576.17
100566.71
100540.55
100537.8
100501.08
100510.69
100454.37
100487.71
100396.53
100472.95
100322.46
100471.77
100225.92
100490.34
100102.16
100535.56
101562.2
101564.36
101571.96
101587.17
101606.75
101627.6
101649.91
101673.91
101697.34
101721.02
101742.93
101764.2
101782.37
101798.04
101809.5
101818.03
101822.1
101822.18
101816.91
101807.32
101793.48
101776.02
101755.22
101729.56
101699.26
101664.45
101627.5
101588.34
101548.81
101509.31
101469.15
101429
101388.95
101349.16
101309.83
101271.12
101233.17
101196.13
101160.05
101125.08
101091.25
101058.62
101027.2
100997.02
100968.05
100940.3
100913.77
100888.42
100864.22
100841.16
100819.14
100798.17
100778.11
100759.01
100740.59
100723.09
100705.93
100689.75
100673.34
100658.32
100641.94
100628.11
100610.72
100598.6
100578.45
100569.55
100543.59
100541.23
100504.41
100514.54
100457.66
100491.87
100399.7
100477.24
100325.32
100476.03
100228.46
100494.38
100104
100539.38
101973.93
101981.94
101983.02
101981.21
101977.07
101970.75
101962.8
101954.92
101945.36
101935.25
101922.75
101910.48
101895.87
101881.3
101864.47
101844.98
101824.86
101800.91
101777.21
101748.91
101721.7
101689.51
101658.97
101623.98
101590.37
101555.24
101519.86
101484.25
101448.79
101413.19
101377.7
101342.44
101307.5
101272.98
101238.96
101205.5
101172.68
101140.57
101109.19
101078.65
101048.97
101020.22
100992.42
100965.6
100939.78
100914.96
100891.15
100868.34
100846.51
100825.64
100805.67
100786.6
100768.3
100750.83
100733.92
100717.79
100701.89
100686.86
100671.49
100657.39
100641.84
100628.72
100611.97
100600.37
100580.7
100572.13
100546.48
100544.32
100507.65
100517.91
100461.28
100495.33
100403.38
100480.4
100329.01
100479.06
100231.64
100497.52
100106.25
100542.51
101423.09
101428.61
101433.92
101441.66
101448.66
101455.86
101460.87
101467.58
101471.07
101476.89
101478.97
101481.46
101481.03
101480.69
101477.65
101474.13
101468.39
101462.24
101454.03
101445.19
101434.33
101422.95
101409.37
101394.85
101378.32
101360.45
101340.99
101320.25
101298.3
101275.4
101251.62
101227.14
101202.09
101176.65
101150.94
101125.11
101099.3
101073.64
101048.22
101023.19
100998.6
100974.56
100951.13
100928.37
100906.32
100885.01
100864.46
100844.68
100825.66
100807.4
100789.85
100773.02
100756.78
100741.19
100726.02
100711.47
100697.02
100683.28
100669.08
100656.01
100641.4
100629.06
100613.03
100601.99
100582.86
100574.65
100549.52
100547.4
100511.07
100521.31
100464.82
100498.83
100406.93
100483.87
100332.32
100482.41
100234.63
100500.72
100108.38
100545.51
101226.88
101234.1
101239.68
101245.82
101252.41
101258.69
101263.53
101268.99
101271.43
101275.96
101276.69
101280.5
101280.24
101282.42
101281.65
101281.08
101277.93
101275.08
101270.28
101265.07
101258.33
101250.73
101241.84
101231.91
101220.8
101208.69
101195.49
101181.34
101166.27
101150.36
101133.65
101116.25
101098.23
101079.71
101060.76
101041.49
101022
101002.4
100982.74
100963.2
100943.82
100924.7
100905.91
100887.5
100869.53
100852.04
100835.06
100818.61
100802.68
100787.29
100772.4
100758.02
100744.05
100730.53
100717.26
100704.44
100691.56
100679.22
100666.3
100654.32
100640.73
100629.21
100613.98
100603.49
100584.98
100577.07
100552.38
100550.4
100514.38
100524.58
100468.51
100502.15
100410.69
100487.11
100335.97
100485.47
100237.76
100503.72
100110.56
100548.31
100950.44
100957.72
100963.69
100970.66
100977.97