/*--------------------------------*- C++ -*----------------------------------*\
  =========                 |
  \\      /  F ield         | OpenFOAM: The Open Source CFD Toolbox
   \\    /   O peration     | Website:  https://openfoam.org
    \\  /    A nd           | Version:  6
     \\/     M anipulation  |
\*---------------------------------------------------------------------------*/
FoamFile
{
    version     2.0;
    format      ascii;
    class       surfaceScalarField;
    location    "300";
    object      phi;
}
// * * * * * * * * * * * * * * * * * * * * * * * * * * * * * * * * * * * * * //

dimensions      [1 0 -1 0 0 0 0];

internalField   nonuniform List<scalar> 
31760
(
-0.0005892531
-0.039087324
0.03967657
-0.0013118727
-0.043566849
0.044289461
-0.0020531672
-0.044614319
0.045355608
-0.002849379
-0.047269732
0.048065936
-0.003664496
-0.049104157
0.04991927
-0.0045355734
-0.051620557
0.052491628
-0.0054350041
-0.053863821
0.054763249
-0.0063875488
-0.056467119
0.057419658
-0.0073771751
-0.059018267
0.060007891
-0.0084194692
-0.061800791
0.062843079
-0.0095066491
-0.064634428
0.065721607
-0.010648309
-0.067647861
0.068789516
-0.011841041
-0.070766547
0.071959278
-0.013091211
-0.074049271
0.075299437
-0.014398479
-0.07746856
0.078775828
-0.015767307
-0.081053044
0.082421868
-0.01719876
-0.084796613
0.086228066
-0.018696232
-0.088714904
0.090212373
-0.020261664
-0.092811353
0.094376785
-0.021898179
-0.097096936
0.098733447
-0.023608003
-0.10157913
0.10328895
-0.025394261
-0.10626805
0.1080543
-0.027258937
-0.11117326
0.11303793
-0.029204963
-0.11630531
0.11825133
-0.031234689
-0.12167491
0.12370463
-0.03335023
-0.12729423
0.12940977
-0.035553953
-0.13317482
0.13537855
-0.037848203
-0.13933009
0.14162433
-0.040234643
-0.14577352
0.14815996
-0.042714722
-0.15251979
0.15499987
-0.04529022
-0.15958384
0.16215933
-0.047962032
-0.16698229
0.1696541
-0.050730868
-0.17473159
0.17750043
-0.053596673
-0.18285029
0.1857161
-0.056559512
-0.19135699
0.19431983
-0.059619265
-0.20027189
0.20333165
-0.062775576
-0.20961577
0.21277208
-0.066026263
-0.21941219
0.22266287
-0.069369435
-0.22968428
0.23302745
-0.072802105
-0.24045687
0.24388953
-0.076320993
-0.25175613
0.25527502
-0.079921489
-0.26360981
0.26721031
-0.083598733
-0.27604651
0.27972375
-0.087346257
-0.28909751
0.29284503
-0.091157226
-0.30279415
0.30660512
-0.095023591
-0.31717074
0.32103711
-0.09893557
-0.33226242
0.33617439
-0.10288276
-0.34810669
0.35205387
-0.10685308
-0.36474242
0.36871274
-0.1108323
-0.38221119
0.3861904
-0.11480524
-0.40055559
0.40452853
-0.11875393
-0.41982122
0.42376991
-0.12265854
-0.44005557
0.44396017
-0.12649627
-0.46130866
0.4651464
-0.13024228
-0.4836325
0.4873785
-0.13386783
-0.50708244
0.51070799
-0.13734114
-0.53171631
0.53518962
-0.14062575
-0.55759499
0.56087961
-0.14368154
-0.58478097
0.58783677
-0.14646287
-0.61334098
0.61612231
-0.14891855
-0.64334504
0.64580072
-0.15099116
-0.67486486
0.67693748
-0.15261746
-0.70797822
0.70960451
-0.15372369
-0.74276307
0.74386929
-0.15423321
-0.77930596
0.77981547
-0.15404872
-0.81768924
0.81750475
-0.15308197
-0.85801177
0.85704502
-0.15119429
-0.9003375
0.89844982
-0.14830933
-0.94480506
0.9419201
-0.14420111
-0.99140967
0.98730145
-0.13886366
-1.040433
1.0350956
-0.1318794
-1.0916372
1.0846529
-0.12347779
-1.1457872
1.1373856
-0.11275589
-1.2017516
1.1910297
-0.1005435
-1.2618861
1.2496737
-0.085004782
-1.3220354
1.3064967
-0.068056861
-1.3895659
1.3726179
-0.046646862
-1.4523499
1.4309399
-0.023467066
-1.5287747
1.505595
-1.5949764
1.5665263
-0.00056800771
-0.038519321
-0.0012457015
-0.042889161
-0.0019453218
-0.043914703
-0.0026959315
-0.046519128
-0.0034692498
-0.048330842
-0.004291512
-0.050798301
-0.0051440216
-0.053011314
-0.006045552
-0.055565594
-0.0069848279
-0.058078993
-0.007973917
-0.060811707
-0.0090073298
-0.063601017
-0.010093088
-0.066562108
-0.01122906
-0.069630577
-0.01242114
-0.072857196
-0.013668771
-0.07622093
-0.014976614
-0.079745205
-0.016345741
-0.083427487
-0.017779762
-0.087280887
-0.019280593
-0.091310522
-0.020851263
-0.09552627
-0.022494114
-0.099936276
-0.024211797
-0.10455037
-0.026007256
-0.1093778
-0.027882657
-0.11442991
-0.029840345
-0.11971722
-0.031883017
-0.12525156
-0.034012761
-0.13104508
-0.036231694
-0.13711116
-0.038541315
-0.1434639
-0.040943697
-0.15011741
-0.043440037
-0.15708749
-0.046031432
-0.1643909
-0.048718608
-0.17204442
-0.051501651
-0.18006725
-0.054380596
-0.18847805
-0.057354604
-0.19729789
-0.060422418
-0.20654796
-0.063583638
-0.21625097
-0.066835954
-0.22643197
-0.070176359
-0.23711646
-0.073601648
-0.24833085
-0.077107698
-0.26010376
-0.080689387
-0.27246482
-0.084341224
-0.28544567
-0.08805647
-0.2990789
-0.091827682
-0.31339953
-0.095645881
-0.32844422
-0.099501303
-0.34425127
-0.1033825
-0.36086123
-0.10727708
-0.3783166
-0.11117039
-0.39666228
-0.11504645
-0.41594515
-0.11888706
-0.43621496
-0.12267161
-0.45752411
-0.126377
-0.47992711
-0.12997732
-0.50348212
-0.13344327
-0.52825035
-0.1367427
-0.55429557
-0.1398381
-0.58168557
-0.14268808
-0.610491
-0.14524698
-0.64078615
-0.14746183
-0.67265001
-0.1492754
-0.70616465
-0.15062109
-0.74141738
-0.15142691
-0.77850013
-0.15161041
-0.81750575
-0.15108167
-0.8585405
-0.14973033
-0.90168884
-0.14745981
-0.94707558
-0.14410475
-0.99476473
-0.13959521
-1.0449425
-0.13365401
-1.0975784
-0.12632379
-1.1531174
-0.11704554
-1.2110298
-0.1062053
-1.2727264
-0.092589498
-1.3356512
-0.077395128
-1.4047602
-0.058391259
-1.4713538
-0.037659117
-1.5495069
-1.6203465
-0.00053306131
-0.037986264
-0.0011832145
-0.042239013
-0.0018408339
-0.043257087
-0.0025536979
-0.045806269
-0.0032836021
-0.047600941
-0.0040655411
-0.050016367
-0.004873929
-0.052202929
-0.005732568
-0.05470696
-0.0066263972
-0.057185165
-0.0075706235
-0.059867486
-0.0085573659
-0.062614276
-0.0095960754
-0.065523403
-0.010684162
-0.068542491
-0.011827277
-0.071714085
-0.013025986
-0.075022221
-0.014283778
-0.078487417
-0.015602787
-0.082108478
-0.016985613
-0.085898064
-0.018435199
-0.089860936
-0.019953931
-0.094007541
-0.021544639
-0.098345568
-0.023210179
-0.10288483
-0.024952341
-0.10763564
-0.026774569
-0.11260768
-0.028679069
-0.11781272
-0.030668017
-0.12326262
-0.032743606
-0.12896949
-0.034907796
-0.13494697
-0.037162677
-0.14120902
-0.03950972
-0.14777037
-0.04194984
-0.15464737
-0.044484663
-0.16185608
-0.047114191
-0.16941489
-0.049839327
-0.17734212
-0.052659561
-0.18565781
-0.055574354
-0.1943831
-0.058582205
-0.20354011
-0.061681451
-0.21315173
-0.064870856
-0.22324256
-0.068148213
-0.23383911
-0.071509358
-0.2449697
-0.074950961
-0.25666216
-0.078468389
-0.26894739
-0.082056449
-0.28185761
-0.085708841
-0.29542651
-0.089418471
-0.30968991
-0.093177577
-0.32468511
-0.096977065
-0.34045178
-0.10080692
-0.35703138
-0.10465549
-0.37446803
-0.10850988
-0.39280789
-0.1123556
-0.41209944
-0.11617604
-0.43239452
-0.11995301
-0.45374714
-0.12366585
-0.47621428
-0.12729103
-0.49985694
-0.13080254
-0.52473884
-0.13417094
-0.55092717
-0.13736309
-0.57849342
-0.14034194
-0.60751216
-0.14306546
-0.63806262
-0.14548728
-0.67022818
-0.14755455
-0.70409738
-0.14920891
-0.73976303
-0.15038443
-0.77732461
-0.15100501
-0.81688516
-0.15099435
-0.85855116
-0.15025092
-0.90243228
-0.14867902
-0.94864748
-0.14614977
-0.99729398
-0.14256627
-1.048526
-0.13772849
-1.1024162
-0.1315928
-1.1592531
-0.1237806
-1.218842
-0.11446006
-1.2820469
-0.10278762
-1.3473237
-0.08951498
-1.4180329
-0.072975363
-1.4878934
-0.054628599
-1.5678536
-1.6425627
-0.00050104964
-0.037485219
-0.0011294027
-0.041610666
-0.0017514872
-0.042635007
-0.0024321755
-0.045125586
-0.0031258488
-0.046907271
-0.0038734088
-0.049268813
-0.004644983
-0.051431357
-0.0054674168
-0.053884532
-0.0063237822
-0.056328802
-0.0072305211
-0.058960752
-0.0081793451
-0.061665454
-0.0091798745
-0.064522878
-0.010229404
-0.067492962
-0.011334134
-0.07060936
-0.012493962
-0.073862394
-0.013713247
-0.077268135
-0.014993468
-0.080828256
-0.016338174
-0.084553362
-0.017749539
-0.088449571
-0.019230764
-0.092526319
-0.020784176
-0.096792157
-0.022412425
-0.10125659
-0.024118554
-0.10592951
-0.025904938
-0.1108213
-0.027773809
-0.11594385
-0.029727841
-0.12130859
-0.03176884
-0.12692849
-0.033899143
-0.13281667
-0.036120246
-0.13898792
-0.038433804
-0.14545682
-0.040840908
-0.15224027
-0.043342435
-0.15935455
-0.045939242
-0.16681808
-0.048631085
-0.17465028
-0.051417833
-0.18287107
-0.054299221
-0.19150171
-0.057274059
-0.20056527
-0.060340216
-0.21008557
-0.063495715
-0.22008706
-0.066738875
-0.23059595
-0.070066761
-0.24164182
-0.073475505
-0.25325342
-0.076960984
-0.26546191
-0.080518478
-0.27830012
-0.084142435
-0.29180256
-0.087826643
-0.3060057
-0.091564078
-0.32094768
-0.095346774
-0.33666908
-0.099165689
-0.35321246
-0.10301066
-0.37062306
-0.10687067
-0.38894789
-0.11073223
-0.40823788
-0.1145815
-0.42854525
-0.1184022
-0.44992644
-0.12217556
-0.47244092
-0.1258815
-0.496151
-0.12949717
-0.52112317
-0.13299594
-0.5474284
-0.13634887
-0.57514048
-0.13952314
-0.6043379
-0.14248162
-0.63510413
-0.14518276
-0.66752704
-0.14758017
-0.70169997
-0.14962115
-0.73772205
-0.15124753
-0.77569823
-0.15239349
-0.8157392
-0.1529849
-0.85795976
-0.15293684
-0.90248033
-0.15216121
-0.94942311
-0.15054702
-0.99890817
-0.147991
-1.0510821
-0.14434471
-1.1060625
-0.13952248
-1.1640754
-0.13325424
-1.2251103
-0.12558613
-1.289715
-0.11591091
-1.3569989
-0.10470281
-1.429241
-0.09068911
-1.5019071
-0.07498634
-1.5835564
-1.6616167
-0.0004722271
-0.037012997
-0.001084565
-0.040998334
-0.0016760163
-0.042043559
-0.0023301584
-0.04447145
-0.0029934078
-0.046244025
-0.0037130178
-0.048549208
-0.0044546968
-0.05068968
-0.0052484237
-0.05309081
-0.0060754787
-0.055501749
-0.0069530725
-0.058083162
-0.007873122
-0.060745405
-0.0088454091
-0.063550595
-0.0098672371
-0.066471134
-0.010944454
-0.069532146
-0.01207766
-0.072729187
-0.013271186
-0.076074612
-0.014526662
-0.079572779
-0.015847648
-0.083232379
-0.017236389
-0.087060829
-0.018695837
-0.091066874
-0.020229073
-0.095258921
-0.021838632
-0.099647032
-0.023527329
-0.10424081
-0.025297287
-0.10905135
-0.027151616
-0.11408952
-0.029092186
-0.11936802
-0.031121364
-0.12489931
-0.033240694
-0.13069734
-0.035452342
-0.13677627
-0.037757027
-0.14315213
-0.040156488
-0.14984081
-0.042651156
-0.15685989
-0.045241585
-0.16422765
-0.04792792
-0.17196395
-0.050709929
-0.18008906
-0.053586595
-0.18862505
-0.056557293
-0.19759457
-0.059620742
-0.20702212
-0.062774181
-0.21693363
-0.066015302
-0.22735483
-0.069342623
-0.23831449
-0.072752334
-0.24984371
-0.076240833
-0.26197342
-0.079804185
-0.27473677
-0.083437386
-0.28816936
-0.087135356
-0.30230773
-0.090891754
-0.31719128
-0.094699798
-0.33286104
-0.09855199
-0.34936027
-0.10243978
-0.36673527
-0.10635303
-0.38503464
-0.11028142
-0.40430948
-0.11421224
-0.42461443
-0.11813168
-0.446007
-0.12202437
-0.46854823
-0.12587234
-0.49230303
-0.12965559
-0.51733992
-0.13335195
-0.54373204
-0.13693601
-0.57155642
-0.14037921
-0.6008947
-0.14364906
-0.63183428
-0.14670965
-0.66446645
-0.1495201
-0.69888952
-0.15203467
-0.73520748
-0.15420209
-0.77353082
-0.15596431
-0.81397698
-0.15725617
-0.8566679
-0.15800498
-0.90173152
-0.15812975
-0.94929834
-0.15753199
-0.99950594
-0.15612209
-1.052492
-0.15377323
-1.1084113
-0.15039217
-1.1674564
-0.1457737
-1.2297287
-0.13989472
-1.295594
-0.13231517
-1.3645784
-0.12332732
-1.4382288
-0.11193183
-1.5133026
-0.098984778
-1.5965034
-1.6774242
-0.00044803486
-0.036564966
-0.0010474482
-0.040398926
-0.0016145107
-0.0414765
-0.0022487336
-0.043837232
-0.0028889476
-0.045603813
-0.0035881741
-0.047849986
-0.0043083934
-0.049969463
-0.0050820707
-0.052317137
-0.0058892598
-0.054694561
-0.0067481755
-0.057224251
-0.007650135
-0.059843446
-0.0086053818
-0.062595351
-0.0096116444
-0.065464872
-0.010674746
-0.068469048
-0.011795503
-0.07160843
-0.012977746
-0.074892372
-0.014224109
-0.078326416
-0.015537498
-0.081918994
-0.016920973
-0.085677354
-0.018377532
-0.089610319
-0.019909566
-0.093726887
-0.021520579
-0.098036022
-0.023212584
-0.1025488
-0.024988746
-0.10727519
-0.026851138
-0.11222713
-0.028802037
-0.11741713
-0.03084367
-0.12285768
-0.032977663
-0.12856335
-0.035205585
-0.13454835
-0.037528733
-0.14082899
-0.03994816
-0.14742138
-0.042464153
-0.1543439
-0.045077406
-0.1616144
-0.047787745
-0.16925361
-0.050594859
-0.17728194
-0.053498127
-0.18572178
-0.056496574
-0.19459613
-0.059588862
-0.20392984
-0.062773306
-0.21374918
-0.066047377
-0.22408076
-0.06940912
-0.23495275
-0.072856092
-0.24639674
-0.076385463
-0.25844405
-0.079993376
-0.27112886
-0.083676222
-0.28448651
-0.087429603
-0.29855435
-0.091248733
-0.31337215
-0.095128306
-0.32898147
-0.099061598
-0.34542698
-0.10304206
-0.36275481
-0.10706193
-0.38101477
-0.11111209
-0.40025933
-0.11518268
-0.42054383
-0.11926216
-0.44192753
-0.12333754
-0.46447285
-0.12739443
-0.48824614
-0.13141624
-0.5133181
-0.13538392
-0.53976436
-0.13927652
-0.56766382
-0.14306926
-0.59710197
-0.14673568
-0.62816786
-0.15024418
-0.66095795
-0.15356045
-0.69557324
-0.15664519
-0.73212274
-0.15945426
-0.77072175
-0.16193779
-0.81149345
-0.16404073
-0.85456497
-0.16569908
-0.90007316
-0.16683834
-0.94815908
-0.16738263
-0.99896165
-0.16724066
-1.0526339
-0.16631563
-1.1093364
-0.16450916
-1.1692629
-0.16167012
-1.2325678
-0.15773926
-1.2995248
-0.15237924
-1.3699384
-0.14577529
-1.4448327
-0.13712961
-1.5219483
-0.12712564
-1.6065074
-1.689883
-0.00043005411
-0.036134916
-0.0010098482
-0.039819136
-0.001560129
-0.040926222
-0.0021825811
-0.043214784
-0.0028084638
-0.044977933
-0.0034963222
-0.047162132
-0.0042049938
-0.049260793
-0.004968705
-0.05155343
-0.005767281
-0.053895986
-0.0066188865
-0.056372649
-0.0075155707
-0.058946762
-0.0084671261
-0.061643799
-0.009471722
-0.064460276
-0.010535097
-0.067405676
-0.011658986
-0.070484541
-0.012846935
-0.073704425
-0.014101506
-0.077071845
-0.015426468
-0.080594035
-0.016824101
-0.08427972
-0.01829803
-0.088136393
-0.019850972
-0.092173945
-0.021485621
-0.096401376
-0.023205186
-0.10082924
-0.025011664
-0.10546871
-0.026907481
-0.11033131
-0.028895192
-0.11542942
-0.030976395
-0.12077648
-0.033152915
-0.12638683
-0.035425818
-0.13227544
-0.037796364
-0.13845844
-0.040265413
-0.14495233
-0.042833486
-0.15177583
-0.045500536
-0.15894735
-0.048266804
-0.16648734
-0.051131606
-0.17441714
-0.054094482
-0.18275891
-0.057154591
-0.19153602
-0.060310345
-0.20077409
-0.063561106
-0.21049842
-0.066904584
-0.22073728
-0.070338615
-0.23151872
-0.073862135
-0.24287322
-0.077472368
-0.25483381
-0.081167179
-0.26743405
-0.084943677
-0.28071001
-0.088798589
-0.29469944
-0.092728325
-0.30944242
-0.096728905
-0.32498089
-0.10079622
-0.34135966
-0.10492476
-0.35862627
-0.10910887
-0.37683066
-0.11334168
-0.39602651
-0.11761582
-0.41626969
-0.12192253
-0.43762083
-0.12625161
-0.46014376
-0.13059184
-0.48390592
-0.13492971
-0.50898023
-0.13925067
-0.5354434
-0.14353712
-0.56337738
-0.14777012
-0.59286896
-0.15192671
-0.62401128
-0.15598203
-0.65690262
-0.15990699
-0.69164829
-0.16366941
-0.72836032
-0.16723266
-0.76715849
-0.17055554
-0.80817058
-0.17358918
-0.85153132
-0.17628038
-0.89738197
-0.17857071
-0.94586875
-0.18039015
-0.99714221
-0.18166341
-1.0513607
-0.1823058
-1.108694
-0.18223283
-1.1693358
-0.18132175
-1.2334789
-0.17950331
-1.3013433
-0.17651977
-1.372922
-0.17248034
-1.4488722
-0.16674341
-1.5276852
-0.1598597
-1.6133911
-1.6988534
-0.00041958083
-0.035715338
-0.00098495736
-0.039253764
-0.0015261535
-0.040385028
-0.0021449675
-0.042595974
-0.0027656239
-0.044357278
-0.003451281
-0.046476479
-0.0041587295
-0.048553346
-0.0049233165
-0.050788846
-0.0057249594
-0.053094344
-0.006581617
-0.055515994
-0.0074863741
-0.058042006
-0.0084482615
-0.060681914
-0.0094668138
-0.063441724
-0.010547387
-0.066325105
-0.011691635
-0.069340293
-0.012903872
-0.07249219
-0.014186731
-0.075788987
-0.015543528
-0.07923724
-0.016977731
-0.082845518
-0.01849201
-0.086622116
-0.020089779
-0.090576177
-0.021773623
-0.094717534
-0.023546236
-0.099056628
-0.025410362
-0.10360459
-0.027368049
-0.10837363
-0.029421132
-0.11337634
-0.03157151
-0.1186261
-0.033820492
-0.12413785
-0.036169485
-0.12992645
-0.038619161
-0.13600877
-0.041170132
-0.14240136
-0.043822686
-0.14912327
-0.046577004
-0.15619303
-0.049432642
-0.16363171
-0.052389614
-0.17146017
-0.055447371
-0.17970115
-0.058604602
-0.18837879
-0.061861207
-0.19751748
-0.06521582
-0.20714381
-0.068667648
-0.21728546
-0.072214701
-0.22797167
-0.07585643
-0.23923149
-0.07959168
-0.25109856
-0.08341889
-0.26360684
-0.087336395
-0.27679251
-0.091342301
-0.29069353
-0.095435107
-0.30534961
-0.09961229
-0.3208037
-0.10387084
-0.33710112
-0.10820811
-0.354289
-0.11262026
-0.37241851
-0.11710311
-0.39154366
-0.12165162
-0.41172119
-0.12625968
-0.43301276
-0.13092084
-0.45548261
-0.13562615
-0.47920061
-0.14036683
-0.50423955
-0.14513149
-0.53067874
-0.14990757
-0.55860129
-0.15467983
-0.5880967
-0.15943172
-0.61925939
-0.16414309
-0.65219125
-0.16879163
-0.68699975
-0.1733516
-0.72380034
-0.17779374
-0.76271636
-0.1820851
-0.80387921
-0.18618713
-0.8474293
-0.19005747
-0.89351163
-0.19364419
-0.94228203
-0.19689324
-0.99389316
-0.1997391
-1.0485148
-0.20211242
-1.1063206
-0.20394449
-1.1675038
-0.20513933
-1.232284
-0.20562229
-1.3008603
-0.20520033
-1.3733439
-0.20392812
-1.4501444
-0.20128513
-1.5303282
-0.19773231
-1.6169439
-1.7041588
-0.00041453538
-0.035300806
-0.00098131778
-0.038686985
-0.001520714
-0.039845634
-0.0021436425
-0.041973049
-0.0027681393
-0.043732783
-0.0034611045
-0.045783516
-0.0041783042
-0.047836148
-0.0049550585
-0.050012094
-0.005772714
-0.052276689
-0.0066481603
-0.05464055
-0.0075759543
-0.057114212
-0.0085645657
-0.059693306
-0.0096142807
-0.062392009
-0.010730222
-0.065209166
-0.011914821
-0.068155694
-0.013172279
-0.071234735
-0.014505463
-0.074455803
-0.01591806
-0.077824646
-0.017413047
-0.08135053
-0.0189939
-0.085041265
-0.020663497
-0.088906581
-0.022424631
-0.092956402
-0.024279718
-0.097201542
-0.026231046
-0.10165326
-0.028281025
-0.10632365
-0.030431104
-0.11122626
-0.032682685
-0.11637452
-0.035037127
-0.12178341
-0.037495168
-0.12746841
-0.040057728
-0.13344621
-0.042724621
-0.13973447
-0.045496534
-0.14635136
-0.048372969
-0.1533166
-0.05135413
-0.16065055
-0.054439723
-0.16837458
-0.057628908
-0.17651197
-0.060922038
-0.18508566
-0.064318253
-0.19412127
-0.06781715
-0.20364491
-0.07141857
-0.21368404
-0.075122538
-0.2242677
-0.078927844
-0.23542619
-0.082834901
-0.24719151
-0.086843709
-0.25959803
-0.090954384
-0.27268183
-0.09516635
-0.28648157
-0.099479431
-0.30103653
-0.10389315
-0.31638999
-0.10840705
-0.33258722
-0.11302001
-0.34967603
-0.11773094
-0.36770758
-0.1225382
-0.3867364
-0.1274393
-0.40682009
-0.13243155
-0.42802052
-0.13751082
-0.45040334
-0.14267312
-0.47403831
-0.14791216
-0.49900052
-0.15322144
-0.52536946
-0.15859245
-0.55323028
-0.16401536
-0.58267379
-0.16947817
-0.61379659
-0.17496735
-0.64670206
-0.18046687
-0.68150023
-0.18595763
-0.71830958
-0.19141856
-0.75725542
-0.1968245
-0.79847327
-0.20214786
-0.84210594
-0.20735261
-0.88830688
-0.21240391
-0.93723073
-0.21725302
-0.98904404
-0.22185151
-1.0439163
-0.22614589
-1.1020262
-0.23007462
-1.163575
-0.23357118
-1.2287874
-0.23656845
-1.2978631
-0.23891813
-1.3709943
-0.24063893
-1.4484236
-0.24131253
-1.5296546
-0.24131965
-1.6169367
-1.7055726
-0.00041611413
-0.034884693
-0.00099392602
-0.038109175
-0.0015407757
-0.039298786
-0.0021777186
-0.041336109
-0.0028172768
-0.043093226
-0.0035291204
-0.045071675
-0.0042691437
-0.047096126
-0.0050719031
-0.049209337
-0.0059206522
-0.051427941
-0.0068311083
-0.053730096
-0.007799392
-0.056145929
-0.008833333
-0.058659366
-0.0099342766
-0.061291066
-0.01110707
-0.064036374
-0.012354961
-0.066907804
-0.013681582
-0.069908117
-0.015090642
-0.073046744
-0.016585513
-0.076329777
-0.018169734
-0.079766309
-0.019846188
-0.083364813
-0.021617611
-0.087135158
-0.02348692
-0.091087095
-0.02545641
-0.095232053
-0.027528203
-0.099581473
-0.029703617
-0.10414823
-0.031984503
-0.10894538
-0.034371946
-0.11398708
-0.036866704
-0.11928866
-0.039469
-0.12486611
-0.042179621
-0.13073559
-0.044998579
-0.13691551
-0.047925897
-0.14342405
-0.050961414
-0.15028108
-0.054105429
-0.15750653
-0.057357342
-0.16512267
-0.060717768
-0.17315154
-0.06418638
-0.18161705
-0.067763482
-0.19054417
-0.071450025
-0.19995837
-0.075246152
-0.20988791
-0.0791526
-0.22036126
-0.083170421
-0.23140836
-0.087300997
-0.24306093
-0.091545831
-0.2553532
-0.09590606
-0.26832161
-0.10038388
-0.28200374
-0.10498037
-0.29644005
-0.10969765
-0.31167271
-0.11453703
-0.32774784
-0.11950001
-0.34471306
-0.12458808
-0.36261951
-0.12980203
-0.38152245
-0.13514279
-0.40147932
-0.14061024
-0.42255307
-0.14620468
-0.4448089
-0.15192466
-0.46831833
-0.15776863
-0.49315654
-0.16373415
-0.51940394
-0.16981745
-0.54714698
-0.17601361
-0.57647763
-0.1823169
-0.60749329
-0.18871924
-0.64029972
-0.19521085
-0.67500862
-0.20178084
-0.71173958
-0.20841516
-0.7506211
-0.21509793
-0.7917905
-0.22180887
-0.835395
-0.22852809
-0.88158766
-0.23522457
-0.93053425
-0.24186892
-0.98239969
-0.2484228
-1.0373625
-0.25484435
-1.0956047
-0.26108883
-1.1573306
-0.26711258
-1.2227637
-0.27285467
-1.292121
-0.27821899
-1.3656299
-0.28318724
-1.4434553
-0.28743367
-1.5254081
-0.29125466
-1.6131157
-1.7028157
-0.00042583471
-0.034458861
-0.0010247023
-0.037510311
-0.0015899856
-0.038733505
-0.0022521178
-0.04067398
-0.0029195185
-0.042425827
-0.0036634741
-0.044327722
-0.0044412197
-0.046318381
-0.0052857676
-0.048364792
-0.0061829629
-0.050530746
-0.0071469481
-0.052766114
-0.00817587
-0.055117008
-0.009276675
-0.057558564
-0.010451857
-0.060115884
-0.011706149
-0.062782084
-0.013042961
-0.065570993
-0.014466427
-0.068484653
-0.015980247
-0.071532924
-0.017587712
-0.074722314
-0.019292133
-0.078061889
-0.021096431
-0.081560517
-0.023003547
-0.085228042
-0.025015428
-0.089075216
-0.027134242
-0.093113239
-0.029361413
-0.097354303
-0.031698584
-0.10181106
-0.034146621
-0.10649734
-0.036706024
-0.11142768
-0.039377269
-0.11661741
-0.042160866
-0.12208252
-0.045056428
-0.12784003
-0.048064549
-0.13390739
-0.051184727
-0.14030387
-0.054417576
-0.14704823
-0.057762901
-0.15416121
-0.061221424
-0.16166414
-0.064793333
-0.16957964
-0.068479991
-0.17793039
-0.072282313
-0.18674185
-0.076201784
-0.1960389
-0.080240345
-0.20584935
-0.084400364
-0.21620124
-0.08868344
-0.22712529
-0.093093549
-0.23865082
-0.097633027
-0.25081372
-0.10230582
-0.26364881
-0.10711511
-0.27719446
-0.11206514
-0.29149002
-0.11715933
-0.30657852
-0.122402
-0.32250517
-0.12779726
-0.33931779
-0.13334907
-0.35706771
-0.13906131
-0.3758102
-0.14493787
-0.39560277
-0.15098252
-0.41650842
-0.15719814
-0.43859327
-0.16358804
-0.46192843
-0.17015493
-0.48658966
-0.17690021
-0.51265866
-0.18382575
-0.54022144
-0.19093203
-0.56937134
-0.19821808
-0.60020725
-0.20568312
-0.63283468
-0.21332437
-0.66736737
-0.22113758
-0.70392638
-0.22911722
-0.74264146
-0.23725639
-0.78365133
-0.24554626
-0.82710513
-0.25397363
-0.87316029
-0.26252414
-0.92198374
-0.27117483
-0.97374899
-0.27990446
-1.0286328
-0.2886858
-1.0868233
-0.297491
-1.1485254
-0.30629164
-1.2139631
-0.3150444
-1.2833682
-0.32368594
-1.3569884
-0.33218656
-1.4349547
-0.34029838
-1.5172963
-0.34823908
-1.605175
-1.6955671
-0.00044284766
-0.034016015
-0.0010730313
-0.036880129
-0.0016679518
-0.038138585
-0.0023674373
-0.039974495
-0.0030768496
-0.041716415
-0.0038677778
-0.043536796
-0.004700194
-0.045485965
-0.0056046072
-0.04746038
-0.006570177
-0.049565177
-0.0076091898
-0.051727102
-0.0087218687
-0.054004329
-0.009914519
-0.056365915
-0.011190536
-0.058839867
-0.01255452
-0.061418102
-0.014010472
-0.06411504
-0.015562179
-0.066932948
-0.017213454
-0.06988165
-0.018967468
-0.072968301
-0.020827278
-0.076202079
-0.022795543
-0.079592254
-0.024874472
-0.083149113
-0.027065911
-0.086883779
-0.029371521
-0.090807629
-0.031792158
-0.094933667
-0.034328539
-0.099274682
-0.036981132
-0.10384475
-0.039750205
-0.1086586
-0.042635761
-0.11373186
-0.045637897
-0.11908038
-0.048756583
-0.12472135
-0.051991568
-0.13067241
-0.055343444
-0.13695199
-0.058812558
-0.14357912
-0.06239942
-0.15057435
-0.066105405
-0.15795816
-0.069931974
-0.16575307
-0.073881038
-0.17398133
-0.077955147
-0.18266774
-0.082156673
-0.19183737
-0.086489488
-0.20151653
-0.090957105
-0.21173362
-0.095564068
-0.22251833
-0.10031433
-0.23390057
-0.10521378
-0.24591426
-0.11026758
-0.25859502
-0.11548161
-0.27198042
-0.12086198
-0.28610966
-0.12641495
-0.30102554
-0.13214733
-0.31677279
-0.13806589
-0.33339924
-0.14417735
-0.35095625
-0.15048923
-0.36949831
-0.15700833
-0.38908368
-0.16374201
-0.40977474
-0.17069741
-0.43163787
-0.17788156
-0.45474428
-0.18530139
-0.47916983
-0.19296392
-0.50499613
-0.20087505
-0.53231032
-0.20904155
-0.56120484
-0.21746891
-0.59177989
-0.22616211
-0.62414148
-0.23512587
-0.65840361
-0.24436395
-0.6946883
-0.25387939
-0.73312602
-0.26367382
-0.7738569
-0.27374845
-0.8170305
-0.2841027
-0.86280604
-0.29473207
-0.91135436
-0.30563015
-0.96285092
-0.31678578
-1.0174772
-0.32818785
-1.0754213
-0.33982139
-1.1368918
-0.3516749
-1.2021095
-0.36372927
-1.2713138
-0.37595196
-1.3447657
-0.38830288
-1.4226037
-0.40060376
-1.5049954
-0.41301017
-1.5927686
-1.6834585
-0.00046951632
-0.033546499
-0.0011434865
-0.03620616
-0.0017820698
-0.037500002
-0.0025333886
-0.039223178
-0.003301685
-0.04094812
-0.0041573488
-0.042681133
-0.0050643014
-0.044579013
-0.006050012
-0.046474671
-0.0071072831
-0.048507906
-0.0082466076
-0.050587779
-0.009470229
-0.052780708
-0.01078369
-0.055052455
-0.012191428
-0.05743213
-0.013697678
-0.059911854
-0.015306716
-0.062506002
-0.017022239
-0.065217427
-0.018847481
-0.068056408
-0.020785836
-0.071029948
-0.022839622
-0.074148293
-0.025010968
-0.07742091
-0.027301259
-0.080858823
-0.029711787
-0.084473252
-0.032243299
-0.088276118
-0.03489621
-0.092280757
-0.037670502
-0.09650039
-0.040566131
-0.10094912
-0.0435828
-0.10564193
-0.046720523
-0.11059414
-0.049978757
-0.11582215
-0.053357788
-0.12134232
-0.056858171
-0.12717203
-0.060480314
-0.13332985
-0.064225366
-0.13983407
-0.068094934
-0.14670478
-0.072091287
-0.15396181
-0.0762174
-0.16162696
-0.08047596
-0.16972277
-0.084871517
-0.17827218
-0.089408336
-0.18730056
-0.094091391
-0.19683348
-0.098926628
-0.20689839
-0.10392002
-0.21752493
-0.10907834
-0.22874225
-0.1144091
-0.2405835
-0.11991989
-0.25308423
-0.12561915
-0.26628116
-0.13151518
-0.28021363
-0.13761713
-0.2949236
-0.14393459
-0.31045532
-0.15047698
-0.32685685
-0.15725463
-0.3441786
-0.16427781
-0.36247513
-0.17155723
-0.38180426
-0.17910384
-0.40222814
-0.18692898
-0.42381273
-0.1950441
-0.44662917
-0.20346068
-0.47075325
-0.21219064
-0.49626616
-0.22124597
-0.52325499
-0.23063852
-0.55181228
-0.24038073
-0.58203768
-0.25048441
-0.61403781
-0.26096174
-0.64792628
-0.27182433
-0.68382571
-0.28308425
-0.7218661
-0.29475288
-0.76218827
-0.30684176
-0.80494161
-0.31936093
-0.85028688
-0.33231877
-0.89839652
-0.3457264
-0.94944328
-0.35958292
-1.0036207
-0.37388802
-1.0611162
-0.38864755
-1.1221323
-0.40386884
-1.1868883
-0.41954819
-1.2556345
-0.43568386
-1.32863
-0.45223977
-1.4060478
-0.46909948
-1.4881357
-0.48637399
-1.5754941
-1.6661027
-0.00050669047
-0.033039809
-0.0012382022
-0.035474649
-0.0019359997
-0.036802206
-0.0027555568
-0.038403622
-0.003601911
-0.040101766
-0.0045426663
-0.041740379
-0.0055472125
-0.043574467
-0.0066392338
-0.045382651
-0.0078154566
-0.047331684
-0.0090845531
-0.049318684
-0.010450615
-0.051414646
-0.011918579
-0.053584493
-0.013493485
-0.055857224
-0.015179264
-0.058226076
-0.016980126
-0.06070514
-0.018899238
-0.063298317
-0.02093973
-0.066015917
-0.023103614
-0.068866065
-0.025392753
-0.071859153
-0.027808413
-0.075005251
-0.030351184
-0.078316053
-0.033021518
-0.081802919
-0.035818875
-0.085478761
-0.038743242
-0.089356391
-0.041793815
-0.093449817
-0.044970213
-0.097772727
-0.048271642
-0.1023405
-0.051697975
-0.10716781
-0.055249524
-0.1122706
-0.058926507
-0.11766534
-0.062729909
-0.12336863
-0.066661252
-0.12939851
-0.07072293
-0.13577239
-0.074917955
-0.14250976
-0.079249619
-0.14963014
-0.08372216
-0.15715442
-0.088341233
-0.16510369
-0.093111941
-0.17350147
-0.098041255
-0.18237124
-0.10313604
-0.1917387
-0.10840412
-0.20163031
-0.11385397
-0.21207509
-0.1194948
-0.22310142
-0.12533599
-0.23474231
-0.13138788
-0.24703234
-0.13766114
-0.26000791
-0.1441671
-0.27370767
-0.15091787
-0.28817282
-0.15792536
-0.30344784
-0.16520291
-0.31957931
-0.17276343
-0.33661809
-0.18062126
-0.35461729
-0.18879084
-0.37363468
-0.19728697
-0.393732
-0.20612505
-0.41497465
-0.21532139
-0.43743282
-0.22489255
-0.46118209
-0.23485567
-0.48630305
-0.24522862
-0.51288203
-0.25602938
-0.54101153
-0.26727714
-0.57078991
-0.27899103
-0.60232392
-0.29119106
-0.63572625
-0.30389769
-0.67111908
-0.3171315
-0.7086323
-0.33091477
-0.74840499
-0.34526897
-0.79058741
-0.3602166
-0.83533925
-0.37578115
-0.88283197
-0.39198162
-0.93324281
-0.40883671
-0.98676559
-0.42636596
-1.0435869
-0.44458301
-1.1039152
-0.46351071
-1.1679606
-0.48317116
-1.235974
-0.50358815
-1.308213
-0.52474278
-1.3848932
-0.54656704
-1.4663114
-0.56915203
-1.5529091
-1.6430547
-0.00055538201
-0.032484428
-0.0013596016
-0.034670431
-0.0021346946
-0.036027114
-0.0030413714
-0.037496946
-0.0039883225
-0.039154816
-0.0050384234
-0.040690279
-0.0061676636
-0.042445228
-0.0073957531
-0.044154562
-0.0087231151
-0.046004323
-0.010156658
-0.047885142
-0.011702149
-0.049869156
-0.013363738
-0.051922905
-0.01514671
-0.054074253
-0.017054401
-0.056318386
-0.019090473
-0.058669068
-0.021257326
-0.061131466
-0.023556976
-0.063716267
-0.025990567
-0.066432474
-0.028558791
-0.06929093
-0.031261484
-0.07230256
-0.034098418
-0.075479119
-0.037068374
-0.078832965
-0.040170693
-0.082376442
-0.043403979
-0.086123106
-0.046767509
-0.090086288
-0.050260119
-0.094280118
-0.053881745
-0.098718879
-0.057632428
-0.10341712
-0.061512427
-0.1083906
-0.065523698
-0.11365407
-0.069667749
-0.11922458
-0.073948204
-0.12511806
-0.07836828
-0.13135232
-0.08293285
-0.13794519
-0.08764716
-0.14491583
-0.092517921
-0.15228366