/*--------------------------------*- C++ -*----------------------------------*\
  =========                 |
  \\      /  F ield         | OpenFOAM: The Open Source CFD Toolbox
   \\    /   O peration     | Website:  https://openfoam.org
    \\  /    A nd           | Version:  6
     \\/     M anipulation  |
\*---------------------------------------------------------------------------*/
FoamFile
{
    version     2.0;
    format      ascii;
    class       volScalarField;
    location    "300";
    object      rho;
}
// * * * * * * * * * * * * * * * * * * * * * * * * * * * * * * * * * * * * * //

dimensions      [1 -3 0 0 0 0 0];

internalField   nonuniform List<scalar> 
16000
(
1.1544076
1.1606246
1.158733
1.1601921
1.1596346
1.1603863
1.1602784
1.1607761
1.1608729
1.1612663
1.1614728
1.1618253
1.1620975
1.1624414
1.1627558
1.1631066
1.1634506
1.1638145
1.1641808
1.1645593
1.1649429
1.1653346
1.1657313
1.1661333
1.1665389
1.1669474
1.1673574
1.1677678
1.1681772
1.1685843
1.1689877
1.1693861
1.1697782
1.1701629
1.1705304
1.1708883
1.1712356
1.1715711
1.1718925
1.1721987
1.172489
1.1727623
1.1730179
1.1732553
1.173474
1.1736738
1.1738542
1.1740153
1.174157
1.1742794
1.1743826
1.174467
1.1745327
1.1745802
1.17461
1.1746224
1.1746181
1.1745976
1.1745613
1.1745098
1.1744437
1.1743636
1.1742695
1.1741632
1.1740425
1.1739127
1.1737637
1.1736144
1.1734283
1.1732696
1.17302
1.1728899
1.1725029
1.1725246
1.1717746
1.1722807
1.1705828
1.1723583
1.1687248
1.172687
1.1546596
1.1609092
1.1589277
1.1604688
1.1598878
1.1606973
1.1605888
1.1611296
1.1612382
1.1616654
1.1618921
1.162274
1.1625701
1.1629412
1.163281
1.1636578
1.1640271
1.1644161
1.1648069
1.1652091
1.1656156
1.1660291
1.1664465
1.1668678
1.1672912
1.1677158
1.1681401
1.1685627
1.1689821
1.169397
1.1698058
1.1702071
1.1705994
1.1709811
1.1713515
1.1717064
1.1720413
1.1723623
1.172668
1.1729564
1.1732267
1.173478
1.1737098
1.173922
1.1741142
1.1742864
1.1744387
1.174571
1.1746838
1.1747772
1.1748518
1.1749079
1.1749461
1.174967
1.174971
1.1749589
1.1749312
1.1748885
1.1748315
1.1747607
1.1746766
1.1745799
1.1744707
1.1743501
1.1742173
1.1740745
1.1739181
1.1737545
1.1735692
1.1733878
1.1731579
1.1729773
1.1726548
1.1725573
1.171973
1.1722331
1.1708568
1.17224
1.1689635
1.1726426
1.1550682
1.1613459
1.1593015
1.1609141
1.1603222
1.1611813
1.161081
1.1616592
1.1617866
1.1622447
1.1624956
1.1629052
1.1632275
1.163625
1.1639911
1.1643935
1.1647884
1.1652019
1.1656166
1.1660417
1.1664701
1.1669041
1.1673405
1.1677792
1.1682181
1.1686561
1.1690915
1.169523
1.1699487
1.1703673
1.170777
1.1711763
1.1715637
1.1719379
1.1722972
1.1726405
1.1729675
1.173268
1.1735503
1.1738146
1.1740587
1.1742818
1.1744839
1.1746649
1.1748249
1.1749642
1.1750829
1.1751815
1.1752606
1.1753207
1.1753624
1.1753865
1.1753936
1.1753844
1.1753596
1.17532
1.1752663
1.1751992
1.1751192
1.1750269
1.1749229
1.1748078
1.1746818
1.1745455
1.1743989
1.1742427
1.1740756
1.1738996
1.1737086
1.1735121
1.1732868
1.1730773
1.1727878
1.1726166
1.1721365
1.1722234
1.1710774
1.1721463
1.169195
1.1725768
1.1556666
1.1619568
1.1598646
1.1615522
1.1609509
1.1618629
1.1617733
1.1623917
1.1625407
1.1630323
1.1633102
1.1637501
1.1641013
1.1645276
1.1649225
1.1653526
1.1657749
1.1662145
1.1666546
1.1671033
1.1675541
1.1680086
1.1684637
1.1689187
1.1693716
1.169821
1.170265
1.170702
1.1711302
1.171548
1.1719535
1.1723452
1.1727216
1.1730813
1.173423
1.1737455
1.1740476
1.1743295
1.1745821
1.1748125
1.1750224
1.1752093
1.1753733
1.1755152
1.1756352
1.1757338
1.1758117
1.1758696
1.1759083
1.1759286
1.1759315
1.1759178
1.1758884
1.1758442
1.175786
1.1757146
1.1756309
1.1755357
1.1754294
1.1753127
1.1751862
1.1750502
1.1749053
1.1747516
1.1745894
1.174419
1.1742397
1.1740518
1.1738525
1.1736446
1.1734176
1.1731901
1.1729162
1.172699
1.1722863
1.1722459
1.1712841
1.1721024
1.1694234
1.1726003
1.1564449
1.1627302
1.160614
1.1623774
1.1617723
1.1627384
1.1626644
1.1633244
1.1634994
1.164026
1.1643348
1.1648068
1.1651899
1.1656468
1.1660727
1.1665318
1.166983
1.1674495
1.1679154
1.1683879
1.1688606
1.1693346
1.1698067
1.1702759
1.17074
1.1711973
1.1716459
1.1720838
1.1725092
1.1729202
1.1733152
1.1736925
1.1740505
1.1743881
1.1747039
1.1749972
1.175267
1.1755126
1.1757348
1.1759236
1.1760898
1.1762326
1.1763508
1.1764461
1.176519
1.1765703
1.1766011
1.1766123
1.1766052
1.1765807
1.1765401
1.1764843
1.1764145
1.1763318
1.1762369
1.1761309
1.1760147
1.1758889
1.1757542
1.1756112
1.1754603
1.1753021
1.1751368
1.1749647
1.1747859
1.1746004
1.1744079
1.174208
1.1739991
1.1737811
1.1735491
1.1733095
1.173042
1.172795
1.1724283
1.1722945
1.1714781
1.1720857
1.1696471
1.1726467
1.1574111
1.1636727
1.1615572
1.1633986
1.1627954
1.163818
1.1637651
1.1644692
1.1646756
1.1652398
1.1655841
1.1660907
1.1665094
1.1669993
1.1674588
1.1679489
1.1684307
1.1689251
1.1694174
1.1699136
1.1704075
1.1708996
1.1713866
1.1718672
1.1723389
1.1727998
1.1732478
1.1736808
1.1740968
1.174494
1.1748706
1.175225
1.1755559
1.1758622
1.1761428
1.1763972
1.1766247
1.1768253
1.1769989
1.1771452
1.1772574
1.1773473
1.1774119
1.1774525
1.177471
1.1774681
1.1774453
1.1774041
1.1773456
1.1772714
1.1771828
1.1770809
1.1769671
1.1768425
1.1767081
1.1765649
1.1764137
1.1762553
1.1760904
1.1759194
1.175743
1.1755612
1.1753746
1.1751831
1.1749869
1.1747859
1.1745797
1.1743677
1.1741487
1.1739216
1.1736833
1.1734349
1.1731687
1.1729025
1.172567
1.1723633
1.1716683
1.1720941
1.169876
1.1727249
1.1585698
1.1647975
1.162705
1.1646267
1.164032
1.165114
1.1650886
1.1658393
1.1660828
1.1666871
1.1670715
1.1676153
1.1680731
1.1685982
1.1690938
1.1696163
1.1701297
1.1706524
1.1711709
1.1716897
1.172203
1.1727106
1.1732091
1.1736968
1.1741709
1.1746294
1.1750698
1.1754902
1.1758885
1.1762627
1.1766113
1.1769329
1.1772262
1.1774905
1.1777251
1.1779298
1.1781045
1.1782494
1.1783653
1.1784524
1.1785079
1.178535
1.1785377
1.1785162
1.1784731
1.1784097
1.1783277
1.1782287
1.1781145
1.1779865
1.1778463
1.1776953
1.1775348
1.177366
1.17719
1.1770078
1.1768202
1.176628
1.1764319
1.1762321
1.1760292
1.1758234
1.1756149
1.1754037
1.1751898
1.1749731
1.1747531
1.1745291
1.1743
1.1740642
1.1738194
1.1735645
1.1732969
1.1730191
1.172705
1.1724494
1.1718591
1.172124
1.1701137
1.1728232
1.1599427
1.1661581
1.1640785
1.1660832
1.1655027
1.1666458
1.1666543
1.1674533
1.1677396
1.1683863
1.1688153
1.1693988
1.1698989
1.1704613
1.1709948
1.171551
1.1720965
1.1726472
1.1731907
1.1737301
1.1742598
1.1747789
1.1752838
1.1757724
1.1762419
1.1766898
1.1771139
1.1775118
1.1778817
1.1782219
1.1785308
1.1788074
1.1790509
1.1792608
1.1794372
1.1795801
1.1796902
1.1797683
1.1798154
1.179833
1.1798229
1.1797781
1.1797107
1.1796201
1.179509
1.1793795
1.1792332
1.1790723
1.1788984
1.1787135
1.178519
1.1783166
1.1781076
1.1778931
1.1776743
1.1774522
1.1772275
1.1770009
1.1767731
1.1765442
1.1763148
1.1760848
1.1758544
1.1756236
1.1753922
1.1751599
1.1749263
1.1746907
1.1744518
1.174208
1.173957
1.1736972
1.1734273
1.1731432
1.1728435
1.1725509
1.172051
1.1721736
1.1703636
1.1729461
1.1615303
1.1677555
1.165682
1.1677738
1.1672152
1.1684228
1.168473
1.1693235
1.1696595
1.1703518
1.1708308
1.1714571
1.1720031
1.172605
1.1731782
1.1737687
1.1743462
1.1749237
1.1754897
1.1760462
1.1765875
1.177112
1.1776161
1.1780972
1.1785524
1.1789791
1.179375
1.1797381
1.1800665
1.1803588
1.1806141
1.1808316
1.1810111
1.1811528
1.1812572
1.1813254
1.1813584
1.1813579
1.1813255
1.1812634
1.1811736
1.1810535
1.1809086
1.1807428
1.1805584
1.180358
1.1801436
1.1799175
1.1796815
1.1794375
1.1791873
1.1789323
1.1786739
1.1784132
1.1781514
1.1778893
1.1776276
1.1773669
1.1771077
1.1768502
1.1765945
1.1763409
1.1760892
1.1758393
1.1755909
1.1753437
1.1750972
1.1748505
1.1746025
1.1743515
1.1740952
1.1738317
1.1735595
1.1732735
1.172983
1.1726666
1.1722451
1.1722403
1.1706307
1.1730897
1.1633377
1.1695919
1.1675268
1.169712
1.1691845
1.170461
1.1705621
1.1714682
1.1718616
1.1726035
1.173138
1.1738103
1.1744057
1.1750491
1.175663
1.1762876
1.1768956
1.177497
1.1780813
1.178649
1.1791946
1.1797158
1.1802088
1.1806708
1.1810989
1.1814905
1.1818435
1.1821561
1.1824269
1.1826551
1.1828403
1.1829824
1.183082
1.1831402
1.1831582
1.1831378
1.1830812
1.1829904
1.1828681
1.182717
1.1825391
1.1823364
1.182108
1.1818617
1.1815997
1.1813252
1.1810401
1.1807469
1.1804474
1.1801437
1.1798373
1.1795297
1.1792222
1.1789159
1.1786118
1.1783105
1.1780127
1.1777189
1.1774293
1.1771442
1.1768635
1.1765873
1.1763153
1.1760472
1.1757829
1.1755217
1.1752632
1.1750065
1.1747504
1.1744931
1.1742325
1.1739667
1.173693
1.1734085
1.1731235
1.1727952
1.1724404
1.1723234
1.1709199
1.1732402
1.165383
1.171685
1.1696315
1.171917
1.1714305
1.1727808
1.1729432
1.1739092
1.1743684
1.1751641
1.1757599
1.1764817
1.1771292
1.1778152
1.1784698
1.1791267
1.1797615
1.1803816
1.1809771
1.1815471
1.1820861
1.1825915
1.1830593
1.1834866
1.1838708
1.1842094
1.1845009
1.184744
1.184938
1.185083
1.1851793
1.1852279
1.1852304
1.1851888
1.1851054
1.1849829
1.1848241
1.1846323
1.1844106
1.1841622
1.18389
1.1835986
1.1832819
1.1829517
1.1826098
1.1822595
1.1819028
1.1815422
1.1811795
1.1808166
1.180455
1.1800961
1.179741
1.1793907
1.1790459
1.1787072
1.1783751
1.1780499
1.1777317
1.1774206
1.1771165
1.1768192
1.1765284
1.1762438
1.1759648
1.175691
1.1754218
1.1751562
1.1748932
1.174631
1.1743674
1.1741006
1.1738269
1.1735463
1.1732646
1.1729351
1.1726352
1.1724226
1.171229
1.1733929
1.1676751
1.1740427
1.1720116
1.1744072
1.1739749
1.1754055
1.1756417
1.1766731
1.1772075
1.1780619
1.1787244
1.1794985
1.1801998
1.1809281
1.1816208
1.1823056
1.1829605
1.1835903
1.1841855
1.1847443
1.1852613
1.1857333
1.1861568
1.186529
1.1868476
1.187111
1.1873183
1.1874693
1.1875643
1.1876044
1.1875913
1.1875271
1.1874147
1.187257
1.1870576
1.1868201
1.1865483
1.186246
1.1859172
1.1855654
1.1851942
1.1848095
1.184403
1.1839875
1.1835652
1.1831394
1.1827121
1.1822855
1.1818614
1.1814414
1.181027
1.1806192
1.1802191
1.1798273
1.1794445
1.179071
1.1787071
1.1783529
1.1780085
1.1776738
1.1773484
1.1770321
1.1767244
1.176425
1.1761332
1.1758485
1.1755701
1.1752972
1.1750287
1.1747629
1.174498
1.1742315
1.1739597
1.1736849
1.1734058
1.1730839
1.1728273
1.1725368
1.1715465
1.1735393
1.1702578
1.1766997
1.1747006
1.1772163
1.1768525
1.1783695
1.1786928
1.1797951
1.1804136
1.1813308
1.1820642
1.1828918
1.183646
1.1844132
1.1851379
1.1858418
1.1865052
1.1871302
1.1877082
1.1882362
1.1887094
1.1891245
1.1894785
1.1897693
1.1899956
1.1901568
1.1902534
1.1902863
1.1902576
1.1901697
1.1900257
1.1898294
1.1895847
1.1892959
1.1889675
1.1886042
1.1882106
1.1877911
1.1873501
1.1868915
1.1864191
1.1859388
1.185444
1.1849442
1.1844435
1.1839446
1.1834494
1.18296
1.1824778
1.1820044
1.1815407
1.1810877
1.1806462
1.1802165
1.179799
1.1793941
1.1790016
1.1786216
1.1782539
1.1778982
1.1775542
1.1772213
1.1768992
1.1765872
1.1762846
1.1759909
1.1757052
1.1754267
1.1751544
1.1748867
1.1746219
1.1743573
1.1740896
1.1738221
1.1735459
1.1732389
1.1730147
1.1726642
1.1718607
1.1736796
1.1731631
1.1796846
1.1777304
1.1803776
1.1800996
1.1817098
1.1821348
1.1833134
1.1840247
1.1850081
1.1858144
1.186694
1.1874966
1.1882949
1.18904
1.1897481
1.1904013
1.1909999
1.1915358
1.1920058
1.1924057
1.1927328
1.1929854
1.1931625
1.1932643
1.1932922
1.1932481
1.193135
1.1929567
1.1927174
1.1924219
1.1920755
1.1916833
1.1912509
1.1907838
1.1902872
1.1897665
1.1892264
1.1886717
1.1881062
1.1875338
1.1869604
1.1863794
1.1857991
1.1852239
1.1846564
1.1840981
1.1835507
1.1830154
1.1824933
1.1819852
1.1814917
1.1810132
1.1805499
1.1801021
1.1796696
1.1792523
1.17885
1.1784624
1.178089
1.1777293
1.1773827
1.1770487
1.1767265
1.1764155
1.176115
1.175824
1.1755419
1.1752676
1.1749997
1.1747367
1.1744756
1.1742143
1.1739551
1.1736837
1.1733968
1.1731957
1.1728036
1.1721703
1.1738164
1.1764166
1.1830353
1.1811422
1.1839341
1.1837631
1.1854729
1.1860155
1.1872753
1.1880858
1.1891365
1.1900139
1.190939
1.191779
1.1925931
1.1933387
1.1940268
1.1946417
1.1951823
1.1956414
1.1960166
1.1963048
1.196505
1.1966172
1.1966426
1.1965837
1.196444
1.1962279
1.1959406
1.1955879
1.1951759
1.1947111
1.1942001
1.1936494
1.1930653
1.1924539
1.1918212
1.1911724
1.1905127
1.1898466
1.1891778
1.18851
1.1878489
1.187187
1.1865323
1.185889
1.1852593
1.1846442
1.1840451
1.1834628
1.182898
1.1823512
1.1818227
1.1813126
1.1808208
1.1803472
1.1798917
1.1794538
1.1790331
1.1786293
1.1782416
1.1778694
1.1775122
1.1771691
1.1768395
1.1765225
1.1762175
1.1759235
1.1756398
1.1753653
1.1750991
1.1748395
1.1745838
1.1743309
1.174081
1.1738172
1.1735542
1.1733677
1.1729529
1.1724743
1.1739448
1.1800635
1.1867979
1.1849869
1.1879367
1.1878969
1.1897119
1.19039
1.1917362
1.1926478
1.193761
1.1947005
1.1956561
1.1965125
1.1973161
1.1980303
1.198662
1.1991978
1.1996364
1.1999727
1.2002057
1.2003348
1.2003615
1.2002888
1.2001207
1.1998628
1.1995213
1.1991032
1.1986162
1.1980681
1.1974669
1.1968204
1.1961362
1.1954217
1.1946836
1.1939284
1.1931619
1.1923893
1.1916156
1.1908448
1.1900798
1.1893247
1.1885845
1.1878493
1.1871286
1.1864252
1.1857413
1.1850772
1.1844339
1.1838117
1.1832111
1.1826321
1.1820746
1.1815386
1.1810237
1.1805295
1.1800557
1.1796016
1.1791668
1.1787505
1.1783522
1.177971
1.1776062
1.177257
1.1769227
1.1766024
1.1762953
1.1760006
1.1757174
1.1754448
1.1751819
1.1749273
1.1746787
1.174436
1.1741965
1.1739437
1.1737063
1.1735262
1.1731072
1.1727748
1.1740598
1.184154
1.1910303
1.1893266
1.1924431
1.1925619
1.1944863
1.1953137
1.1967522
1.1977613
1.1989213
1.1999023
1.2008607
1.2016982
1.20245
1.2030851
1.2036082
1.2040092
1.2042881
1.2044431
1.2044765
1.2043914
1.2041931
1.2038883
1.2034849
1.2029917
1.202418
1.2017735
1.2010679
1.2003108
1.1995115
1.1986786
1.1978204
1.1969442
1.1960569
1.1951646
1.1942726
1.1933856
1.192508
1.1916429
1.1907927
1.1899615
1.1891531
1.188354
1.1875772
1.1868236
1.1860946
1.1853902
1.184711
1.1840568
1.1834276
1.1828233
1.1822433
1.1816874
1.1811549
1.1806454
1.1801581
1.1796924
1.1792476
1.1788229
1.1784175
1.1780307
1.1776616
1.1773093
1.176973
1.1766519
1.1763452
1.176052
1.1757715
1.1755028
1.1752451
1.174997
1.1747571
1.1745258
1.1742977
1.1740598
1.1738485
1.1736698
1.1732616
1.173061
1.1741599
1.1887543
1.1957931
1.194241
1.1975405
1.1978597
1.1999038
1.2008624
1.2023618
1.2034614
1.2046448
1.2056306
1.2065468
1.20731
1.2079477
1.2084356
1.2087788
1.2089723
1.2090197
1.2089246
1.208694
1.2083362
1.2078614
1.2072805
1.2066054
1.2058483
1.205021
1.2041355
1.2032029
1.2022337
1.2012376
1.2002235
1.1991991
1.1981716
1.197147
1.1961306
1.1951268
1.1941396
1.1931722
1.1922266
1.1913048
1.1904112
1.1895458
1.1886947
1.187873
1.1870796
1.1863155
1.1855802
1.1848736
1.1841955
1.1835453
1.1829226
1.1823266
1.1817568
1.1812124
1.1806927
1.1801968
1.1797239
1.1792733
1.178844
1.1784352
1.1780461
1.1776756
1.1773231
1.1769876
1.1766683
1.1763643
1.1760748
1.1757989
1.175536
1.1752852
1.1750452
1.1748154
1.1745964
1.1743806
1.174161
1.173976
1.1737973
1.1734116
1.1733239
1.1742426
1.1939851
1.2011969
1.1998664
1.203339
1.2038714
1.2059915
1.2071126
1.2086616
1.2097978
1.2109524
1.2118746
1.2126714
1.2132749
1.2137085
1.2139571
1.2140293
1.2139279
1.2136626
1.2132441
1.2126857
1.2120015
1.2112066
1.2103165
1.2093462
1.2083102
1.2072223
1.2060953
1.2049406
1.2037686
1.2025885
1.2014083
1.2002347
1.1990737
1.1979302
1.1968081
1.1957107
1.1946409
1.1936007
1.1925908
1.1916129
1.1906712
1.1897603
1.1888711
1.1880161
1.1871939
1.1864046
1.1856476
1.1849224
1.1842283
1.1835644
1.1829301
1.1823245
1.1817466
1.1811957
1.1806707
1.1801707
1.179695
1.1792424
1.1788122
1.1784034
1.178015
1.1776463
1.1772962
1.176964
1.1766487
1.1763496
1.1760658
1.1757966
1.1755412
1.1752989
1.1750684
1.1748499
1.1746435
1.1744408
1.1742417
1.1740824
1.1739052
1.173551
1.1735511
1.1743019
1.2000753
1.2074129
1.2063541
1.2099236
1.2107034
1.2128935
1.2141115
1.2156592
1.2167603
1.2177917
1.2185457
1.2191096
1.2194363
1.2195496
1.2194473
1.2191453
1.2186566
1.2179992
1.2171916
1.2162537
1.215205
1.2140649
1.2128515
1.2115818
1.2102711
1.2089332
1.2075803
1.2062229
1.20487
1.2035293
1.2022071
1.2009086
1.1996381
1.1983987
1.1971932
1.1960232
1.1948908
1.1937961
1.1927388
1.1917213
1.1907462
1.1898026
1.1888879
1.188011
1.1871704
1.1863658
1.185596
1.1848604
1.1841578
1.1834872
1.1828477
1.1822383
1.1816578
1.1811052
1.1805796
1.1800799
1.1796051
1.1791543
1.1787265
1.1783207
1.177936
1.1775716
1.1772264
1.1768997
1.1765907
1.1762984
1.1760222
1.1757613
1.175515
1.1752824
1.1750627
1.1748566
1.1746629
1.1744737
1.1742962
1.1741599
1.1739862
1.1736689
1.1737401
1.1743397
1.2070599
1.2144322
1.2136649
1.217342
1.2184492
1.2207141
1.2219183
1.2233247
1.224256
1.2250152
1.225449
1.2256297
1.2255351
1.2251956
1.2246247
1.223849
1.2228925
1.2217818
1.2205424
1.2191991
1.217775
1.216291
1.2147658
1.2132158
1.2116552
1.2100961
1.2085484
1.2070205
1.2055191
1.2040496
1.2026161
1.2012219
1.1998693
1.1985599
1.1972947
1.1960745
1.1948997
1.1937689
1.1926815
1.191641
1.1906467
1.189682
1.1887535
1.1878653
1.1870163
1.1862053
1.1854311
1.1846925
1.1839884
1.1833175
1.1826786
1.1820707
1.1814924
1.1809428
1.1804207
1.179925
1.1794547
1.1790089
1.1785864
1.1781864
1.1778079
1.17745
1.1771119
1.1767928
1.1764917
1.176208
1.1759408
1.1756896
1.1754536
1.1752319
1.1750241
1.1748309
1.17465
1.1744751
1.1743187
1.1742008
1.1740327
1.1737607
1.1738911
1.1743498
1.2150311
1.2224383
1.2222025
1.225996
1.2270962
1.229216
1.2303403
1.2314332
1.2320168
1.2323178
1.2322466
1.2318741
1.2312073
1.2302892
1.2291506
1.2278289
1.2263576
1.2247694
1.2230934
1.2213558
1.2195793
1.2177835
1.2159845
1.2141961
1.2124291
1.2106923
1.2089926
1.2073353
1.2057243
1.2041624
1.2026515
1.2011927
1.1997867
1.1984333
1.1971322
1.1958834
1.1946855
1.1935359
1.1924354
1.1913873
1.1903851
1.1894095
1.1884785
1.187589
1.1867405
1.1859312
1.1851599
1.1844251
1.1837256
1.1830599
1.1824268
1.181825
1.1812533
1.1807105
1.1801955
1.1797072
1.1792444
1.1788062
1.1783917
1.1779998
1.1776296
1.1772803
1.176951
1.176641
1.1763494
1.1760754
1.1758185
1.175578
1.1753532
1.1751433
1.1749481
1.1747681
1.1746001
1.1744403
1.1743037
1.1741988
1.1740392
1.1738206
1.173988
1.174323
1.2244759
1.2318617
1.2319485
1.2355692
1.2367107
1.2384329
1.2391742
1.2396942
1.2396572
1.239263
1.2384784
1.237386
1.2360202
1.2344373
1.2326807
1.2307943
1.2288151
1.2267761
1.2247046
1.2226236
1.2205516
1.2185033
1.2164905
1.214522
1.2126043
1.2107423
1.2089393
1.2071973
1.2055175
1.2039003
1.2023454
1.2008523
1.1994198
1.1980467
1.1967319
1.1954739
1.1942699
1.1931176
1.1920196
1.1909755
1.1899707
1.1890002
1.1880752
1.187193
1.1863525
1.185552
1.1847899
1.1840647
1.1833749
1.1827192
1.1820962
1.1815046
1.1809431
1.1804105
1.1799056
1.1794274
1.1789747
1.1785466
1.178142
1.1777602
1.1774
1.1770608
1.1767418
1.176442
1.1761609
1.1758978
1.175652
1.1754229
1.1752098
1.1750121
1.1748298
1.174663
1.174508
1.174364
1.1742456
1.1741509
1.1740052
1.1738394
1.174011
1.1742488
1.2357762
1.2425449
1.2428843
1.2460139
1.2467846
1.2477745
1.2477733
1.247408
1.2464804
1.2451813
1.2435312
1.2416244
1.239515
1.2372647
1.2349203
1.2325233
1.2301066
1.2276965
1.2253137
1.2229737
1.2206881
1.2184653
1.216311
1.2142288
1.2122211
1.2102885
1.2084312
1.2066484
1.2049389
1.2033011
1.2017332
1.2002332
1.1987987
1.1974277
1.1961184
1.1948681
1.193673
1.1925327
1.1914503
1.1904195
1.1894207
1.1884645
1.1875534
1.186686
1.1858601
1.1850743
1.1843268
1.1836161
1.1829407
1.182299
1.1816899
1.1811118
1.1805635
1.1800439
1.1795518
1.179086
1.1786455
1.1782294
1.1778366
1.1774663
1.1771176
1.1767898
1.1764819
1.1761935
1.1759236
1.1756718
1.1754374
1.17522
1.1750188
1.1748334
1.1746639
1.1745098
1.1743678
1.1742392
1.1741364
1.1740498
1.1739216
1.1738049
1.1739636
1.1741182
1.2483511
1.2541986
1.2544218
1.2565821
1.2565521
1.2563725
1.2552562
1.253721
1.2517044
1.2493911
1.2468391
1.2441417
1.2413559
1.2385352
1.2357172
1.2329318
1.2302004
1.2275382
1.2249558
1.2224598
1.2200541
1.2177406
1.2155195
1.21339
1.2113505
1.2093987
1.2075322
1.2057481
1.2040436
1.2024158
1.2008616
1.199378
1.1979622
1.1966117
1.195324
1.194095
1.1929217
1.1918063
1.190749
1.1897354
1.1887524
1.1878179
1.1869276
1.1860807
1.1852748
1.1845085
1.1837799
1.1830876
1.1824299
1.1818055
1.181213
1.1806511
1.1801184
1.1796139
1.1791364
1.1786848
1.1782581
1.1778553
1.1774756
1.1771179
1.1767816
1.1764658
1.1761698
1.175893
1.1756347
1.1753943
1.1751714
1.1749654
1.1747757
1.1746021
1.1744446
1.1743024
1.1741729
1.1740589
1.1739692
1.17389
1.1737814
1.1737042
1.1738391
1.1739225
1.2613319
1.2661414
1.2658277
1.266275
1.2648933
1.2631239
1.2606272
1.2578067
1.2546973
1.2514524
1.2481354
1.2448163
1.2415354
1.2383254
1.235206
1.2321909
1.2292876
1.2264998
1.2238285
1.2212727
1.21883
1.2164972
1.2142706
1.2121462
1.2101198
1.2081873
1.2063446
1.2045877
1.2029126
1.2013157
1.1997934
1.1983421
1.1969588
1.1956409
1.1943848
1.193186
1.1920441
1.1909622
1.1899327
1.1889363
1.1879812
1.1870722
1.1862074
1.1853847
1.1846024
1.1838587
1.1831519
1.1824805
1.1818431
1.1812382
1.1806643
1.1801204
1.1796051
1.1791173
1.1786558
1.1782197
1.1778079
1.1774195
1.1770536
1.1767095
1.1763862
1.176083
1.1757993
1.1755345
1.1752878
1.1750589
1.1748472
1.1746522
1.1744735
1.1743109
1.1741643
1.1740327
1.1739146
1.1738134
1.1737342
1.1736623
1.1735735
1.1735263
1.1736338
1.1736647
1.2746903
1.2764635
1.2748261
1.272761
1.2696363
1.2661707
1.262369
1.2584711
1.2545398
1.2506645
1.2468829
1.2432273
1.2397122
1.2363462
1.2331312
1.2300661
1.227147
1.224369
1.221726
1.2192117
1.2168197
1.2145439
1.2123782
1.2103171
1.2083551
1.2064871
1.2047083
1.2030141
1.2014004
1.1998632
1.1983985
1.1970029
1.1956736
1.1944072
1.1931992
1.1920469
1.1909531
1.1899166
1.188922
1.187957
1.1870398
1.1861663
1.1853356
1.1845453
1.183794
1.1830797
1.1824011
1.1817566
1.1811447
1.1805642
1.1800137
1.1794919
1.1789979
1.1785303
1.1780882
1.1776706
1.1772765
1.176905
1.1765553
1.1762266
1.1759181
1.1756291
1.175359
1.1751072
1.174873
1.174656
1.1744558
1.1742719
1.1741038
1.1739515
1.1738147
1.1736926
1.1735844
1.1734932
1.1734212
1.1733553
1.1732838
1.1732586
1.1733418
1.1733374
1.2837115
1.2815523
1.2781738
1.274129
1.2697054
1.2651992
1.2607064
1.2563327
1.2521115
1.2480716
1.244219
1.2405555
1.237076
1.2337737
1.2306401
1.2276663
1.2248434
1.2221628
1.2196167
1.2171973
1.2148973
1.2127098
1.2106285
1.2086475
1.2067613
1.2049647
1.2032532
1.2016223
1.2000679
1.1985862
1.1971736
1.1958269
1.1945436
1.1933197
1.1921512
1.1910387
1.1899853
1.1889806
1.1880047
1.1870718
1.1861834
1.1853379
1.1845333
1.183768
1.1830402
1.1823485
1.1816912
1.181067
1.1804744
1.1799123
1.1793793
1.1788744
1.1783962
1.1779439
1.1775164
1.1771126
1.1767318
1.176373
1.1760354
1.1757183
1.1754208
1.1751424
1.1748823
1.17464
1.174415
1.1742067
1.1740147
1.1738386
1.1736779
1.1735327
1.1734024
1.1732864
1.1731847
1.1730991
1.1730298
1.1729687
1.1729122
1.1728918
1.172934
1.1729285
1.2798669
1.2762135
1.272325
1.2679035
1.2633863
1.2589118
1.254567
1.2503974
1.2464162
1.24263
1.2390344
1.2356231
1.2323872
1.2293175
1.2264044
1.2236387
1.2210116
1.2185148
1.2161406
1.2138823
1.2117335
1.2096883
1.207741
1.2058864
1.2041197
1.2024362
1.2008318
1.1993025
1.1978446
1.1964547
1.1951296
1.1938666
1.1926628
1.191514
1.1904184
1.1893784
1.1883904
1.187438
1.1865182
1.1856428
1.1848092
1.1840158
1.1832609
1.1825429
1.1818603
1.1812116
1.1805954
1.1800104
1.1794554
1.178929
1.1784302
1.1779579
1.1775109
1.1770883
1.1766891
1.1763124
1.1759573
1.175623
1.1753088
1.1750138
1.1747373
1.1744788
1.1742375
1.1740129
1.1738045
1.1736118
1.1734343
1.1732716
1.1731234
1.1729894
1.1728693
1.1727627
1.1726696
1.1725908
1.1725258
1.1724712
1.1724269
1.1724056
1.1724155
1.1724157
1.252412
1.2561991
1.2555064
1.2539734
1.2514772
1.2486574
1.2456084
1.242509
1.2394091
1.2363658
1.2334001
1.23053
1.2277622
1.2251008
1.2225463
1.2200976
1.2177522
1.2155072
1.2133589
1.2113034
1.209337
1.207456
1.2056569
1.2039362
1.2022907
1.2007171
1.1992125
1.197774
1.1963987
1.1950842
1.1938282
1.1926285
1.1914813
1.1903839
1.1893382
1.1883456
1.1873937
1.1864665
1.1855827
1.184739
1.1839348
1.1831683
1.1824382
1.181743
1.1810815
1.1804522
1.1798541
1.1792858
1.1787462
1.1782343
1.1777489
1.177289
1.1768536
1.1764418
1.1760526
1.1756851
1.1753387
1.1750123
1.1747054
1.1744172
1.1741468
1.1738939
1.1736576
1.1734374
1.1732328
1.1730433
1.1728684
1.1727077
1.1725609
1.1724276
1.1723074
1.1722002
1.1721057
1.1720242
1.171955
1.1718975
1.1718522
1.1718212
1.1718056
1.1718013
1.2566516
1.2565682
1.2569085
1.2567219
1.255654
1.2536108
1.2505507
1.2467779
1.2425067
1.2379843
1.233401
1.2287179
1.2241668
1.2196925
1.2154159
1.211455
1.2077689
1.2045021
1.2015693
1.1989557
1.1966408
1.1946073
1.192809
1.1912445
1.1898616
1.1886241
1.1875042
1.1864862
1.1855749
1.1847835
1.1840687
1.1834066
1.1827901
1.1822106
1.1816628
1.1811424
1.180647
1.180175
1.1797258
1.179295
1.1788829
1.1784902
1.1781134
1.1777546
1.1774143
1.1770916
1.1767853
1.1764948
1.1762192
1.175958
1.1757103
1.1754757
1.1752528
1.1750418
1.1748401
1.1746496
1.1744649
1.1742921
1.1741191
1.1739618
1.1737931
1.1736516
1.1734758
1.1733553
1.1731543
1.173069
1.1728126
1.1727924
1.1724227
1.1725282
1.1719534
1.1722872
1.1713584
1.1720945
1.1705865
1.1719963
1.1695348
1.1720295
1.168093
1.1722815
1.0977158
1.1030145
1.1110475
1.1200571
1.1293206
1.1381984
1.1454742
1.1514654
1.1567125
1.1612544
1.1651192
1.1684756
1.1713668
1.1738612
1.1760189
1.1778349
1.1793858
1.1806433
1.1816795
1.1824645
1.1830772
1.1834818
1.1837539
1.1838598
1.1838437
1.1837298
1.1835323
1.1832702
1.1829685
1.1826326
1.1822616
1.1818674
1.1814548
1.1810344
1.1806136
1.1801977
1.17979
1.1793929
1.1790106
1.1786414
1.1782854
1.1779445
1.1776182
1.1773042
1.1770057
1.1767214
1.1764507
1.1761931
1.175948
1.175715
1.1754933
1.1752828
1.1750819
1.1748913
1.1747082
1.1745348
1.1743659
1.1742071
1.1740474
1.1739014
1.1737441
1.1736109
1.1734459
1.1733298
1.1731403
1.1730545
1.1728128
1.1727838
1.1724379
1.1725241
1.1719827
1.1722859
1.1713991
1.1720991
1.1706257
1.1720089
1.1695625
1.1720654
1.1680939
1.1723415
1.2094083
1.2103462
1.2127774
1.2153656
1.215799
1.2147516
1.2131464
1.2112882
1.2092823
1.2072482
1.2052117
1.203235
1.2013143
1.1994861
1.1977402
1.1960924
1.1945495
1.1931098
1.1917862
1.1905897
1.1894885
1.1885003
1.1875575
1.1867249
1.1859733
1.1852937
1.1846964
1.1841096
1.183541
1.1829239
1.1823443
1.1818071
1.1813004
1.1808249
1.1803739
1.1799445
1.179535
1.1791441
1.1787722
1.1784106
1.1780668
1.1777394
1.1774246
1.1771254
1.1768406
1.1765688
1.1763099
1.1760635
1.1758291
1.1756065
1.1753949
1.175194
1.1750025
1.1748208
1.1746464
1.1744811
1.1743199
1.1741684
1.1740155
1.1738756
1.1737243
1.1735959
1.1734363
1.1733232
1.1731392
1.1730536
1.1728162
1.1727868
1.1724487
1.1725257
1.1720003
1.1722814
1.1714242
1.172088
1.1706611
1.1719953
1.1695987
1.1720588
1.1681207
1.1723546
1.1680485
1.1681052
1.1711535
1.1765024
1.1792412
1.1801092
1.1805819
1.1809873
1.1813439
1.1817285
1.1821229
1.1825272
1.1828764
1.1832044
1.1833356
1.1836812
1.1836818
1.1839596
1.1838469
1.184
1.1837941
1.1838386
1.1835825
1.1834843
1.1832207
1.1829285
1.1825812
1.1822553
1.1819195
1.18156
1.1811959
1.1808288
1.1804611
1.1800947
1.1797323
1.1793755
1.1790262
1.178686
1.1783544
1.1780327
1.177724
1.1774273
1.1771424
1.1768693
1.1766077
1.1763578
1.1761195
1.1758925
1.1756762
1.1754706
1.1752748
1.1750887
1.1749111
1.1747422
1.1745797
1.1744255
1.1742744
1.1741323
1.1739878
1.1738559
1.1737114
1.1735897
1.173435
1.1733277
1.1731469
1.1730666
1.1728318
1.1728058
1.1724685
1.1725495
1.1720207
1.1723096
1.1714449
1.172119
1.1706787
1.1720259
1.1696159
1.1720864
1.1681341
1.1723808
1.1758463
1.1778604
1.1824549
1.1868352
1.1880742
1.1882307
1.1879194
1.1877219
1.1874922
1.187298
1.1870448
1.1868115
1.1865407
1.1862906
1.1860136
1.1857326
1.1854422
1.1851288
1.1848191
1.1844629
1.1841441
1.1837304
1.1833822
1.1829745
1.1826
1.1822277
1.1818641
1.1814992
1.1811391
1.1807863
1.1804375
1.1800944
1.1797581
1.1794289
1.1791066
1.1787916
1.1784843
1.1781853
1.1778936
1.1776098
1.1773369
1.1770737
1.17682
1.1765759
1.1763416
1.1761171
1.1759024
1.1756974
1.1755016
1.1753151
1.1751371
1.1749676
1.1748054
1.1746509
1.1745017
1.1743597
1.1742199
1.174088
1.173953
1.1738294
1.1736927
1.1735774
1.1734292
1.1733265
1.173151
1.1730734
1.1728424
1.1728182
1.1724842
1.1725646
1.1720418
1.1723247
1.1714691
1.1721327
1.1707071
1.1720392
1.1696419
1.1721023
1.1681528
1.1724006
1.1692691
1.1711205
1.1758155
1.1805347
1.1823227
1.1825658
1.1822078
1.1823077
1.1822546
1.1822988
1.1822229
1.1822022
1.182113
1.1820524
1.1819502
1.1818617
1.1817456
1.181638
1.1815094
1.1813874
1.1812412
1.1811101
1.1809495
1.1807909
1.1806116
1.180421
1.1802163
1.1800029
1.1797811
1.1795512
1.1793136
1.1790716
1.1788263
1.178579
1.1783307
1.1780827
1.1778364
1.1775933
1.1773523
1.177116
1.1768868
1.1766641
1.1764476
1.1762382
1.1760361
1.1758416
1.1756547
1.1754756
1.175304
1.1751399
1.1749827
1.1748326
1.1746882
1.1745501
1.1744161
1.1742879
1.1741609
1.1740404
1.1739159
1.1738015
1.1736733
1.1735651
1.1734238
1.1733262
1.1731563
1.1730819
1.1728565
1.1728325
1.1725035
1.1725824
1.1720634
1.1723442
1.1714931
1.1721525
1.1707305
1.1720582
1.169665
1.1721202
1.1681701
1.1724196
1.1682814
1.1705717
1.175716
1.1800222
1.1812624
1.1814527
1.1813168
1.181275
1.1811402
1.1810922
1.1809662
1.1809079
1.1807916
1.1807216
1.1806126
1.1805254
1.1804104
1.1803065
1.1801839
1.180064
1.1799328
1.1797961
1.1796524
1.1795029
1.1793469
1.1791867
1.1790207
1.17885
1.1786751
1.1784955
1.1783109
1.1781236
1.1779338
1.1777421
1.177549
1.1773551
1.1771615
1.1769691
1.1767762
1.1765866
1.1764016
1.1762204
1.1760432
1.1758708
1.1757034
1.1755414
1.1753849
1.1752342
1.175089
1.1749494
1.1748151
1.174686
1.1745611
1.1744409
1.1743234
1.1742102
1.1740969
1.1739887
1.1738756
1.1737709
1.1736519
1.1735511
1.1734173
1.1733246
1.1731611
1.1730893
1.1728691
1.1728456
1.1725216
1.1725986
1.1720866
1.1723614
1.1715185
1.1721691
1.1707581
1.1720741
1.1696901
1.1721363
1.1681882
1.1724369
1.1656831
1.1682716
1.1736943
1.1777171
1.1787158