/*--------------------------------*- C++ -*----------------------------------*\
  =========                 |
  \\      /  F ield         | OpenFOAM: The Open Source CFD Toolbox
   \\    /   O peration     | Website:  https://openfoam.org
    \\  /    A nd           | Version:  6
     \\/     M anipulation  |
\*---------------------------------------------------------------------------*/
FoamFile
{
    version     2.0;
    format      ascii;
    class       volScalarField;
    location    "300";
    object      T;
}
// * * * * * * * * * * * * * * * * * * * * * * * * * * * * * * * * * * * * * //

dimensions      [0 0 0 1 0 0 0];

internalField   nonuniform List<scalar> 
16000
(
297.16783
295.84755
296.32164
296.13168
296.29535
296.26069
296.34146
296.3553
296.41014
296.4416
296.48869
296.52798
296.57328
296.6165
296.66223
296.70779
296.75459
296.80177
296.84969
296.89806
296.9469
296.99607
297.0455
297.09508
297.14471
297.19427
297.24365
297.29271
297.34132
297.38934
297.43665
297.48308
297.52853
297.57287
297.6151
297.65603
297.69553
297.73346
297.7696
297.80385
297.83618
297.86648
297.89469
297.92076
297.94467
297.96637
297.98587
298.00315
298.01824
298.03115
298.04193
298.05062
298.05729
298.062
298.06483
298.06586
298.06515
298.06281
298.05894
298.05364
298.04699
298.03911
298.03006
298.02001
298.00892
297.99732
297.98474
297.97277
297.95934
297.94903
297.93431
297.92888
297.90877
297.91622
297.88163
297.92707
297.85601
297.97296
297.84784
298.03033
297.17863
295.86816
296.36173
296.16882
296.33858
296.30384
296.38791
296.40343
296.46086
296.49475
296.544
296.58582
296.63331
296.67899
296.72696
296.77489
296.82392
296.87336
296.92343
296.9739
297.02475
297.07583
297.12705
297.17829
297.22943
297.28033
297.33086
297.38087
297.43023
297.47878
297.52636
297.57284
297.61808
297.66189
297.70423
297.74466
297.78272
297.81905
297.85346
297.88579
297.91597
297.94394
297.96966
297.9931
298.01426
298.03314
298.04973
298.06407
298.0762
298.08616
298.09401
298.09982
298.10366
298.10561
298.10578
298.10425
298.10108
298.0964
298.0903
298.08289
298.07426
298.06451
298.05372
298.042
298.02942
298.01624
298.00242
297.98875
297.97456
297.962
297.94775
297.93839
297.9221
297.92137
297.89613
297.92363
297.87256
297.96369
297.86488
298.01571
297.20917
295.91253
296.4196
296.22497
296.39931
296.36648
296.45316
296.47157
296.53119
296.56806
296.6196
296.6643
296.7142
296.76261
296.81303
296.86354
296.91499
296.96685
297.01921
297.07189
297.12481
297.17783
297.23083
297.28368
297.33622
297.3883
297.43979
297.4905
297.5403
297.589
297.63646
297.68251
297.72701
297.76983
297.8108
297.84981
297.88683
297.9208
297.95261
297.98223
298.0095
298.03434
298.05677
298.07679
298.09441
298.10968
298.12261
298.13327
298.14172
298.14804
298.1523
298.15459
298.15501
298.15365
298.15063
298.14604
298.13997
298.13252
298.12382
298.11395
298.10303
298.09113
298.07835
298.06478
298.0505
298.03568
298.02043
298.0052
297.98992
297.97564
297.96107
297.94923
297.93432
297.92867
297.90913
297.92466
297.88767
297.95992
297.88001
298.01484
297.25805
295.98091
296.496
296.301
296.47954
296.44923
296.53848
296.56016
296.62216
296.66229
296.71631
296.76409
296.81659
296.86789
296.92094
296.97414
297.02812
297.08245
297.13713
297.19201
297.24696
297.30183
297.35647
297.41073
297.46443
297.51741
297.56949
297.62051
297.67028
297.71863
297.76539
297.81041
297.85352
297.89461
297.93353
297.97018
298.00443
298.03631
298.06486
298.09085
298.11444
298.13541
298.15379
298.16966
298.18305
298.19402
298.20266
298.20903
298.21323
298.21537
298.21554
298.21385
298.21042
298.20535
298.19877
298.19078
298.18149
298.171
298.15942
298.14687
298.13344
298.11921
298.10427
298.08869
298.07256
298.05601
298.03918
298.02238
298.00577
297.98996
297.97454
297.96089
297.94632
297.93729
297.92112
297.92893
297.90052
297.95847
297.89231
298.01444
297.32552
296.07503
296.59123
296.39761
296.57965
296.55296
296.64453
296.67016
296.73457
296.77841
296.83509
296.88628
296.94161
296.99604
297.0519
297.10797
297.16461
297.22152
297.27858
297.33567
297.39261
297.44923
297.50535
297.5608
297.61538
297.66891
297.72118
297.77202
297.82122
297.86862
297.91402
297.95729
297.99826
298.03682
298.07284
298.10624
298.13695
298.16489
298.19015
298.21166
298.23059
298.24687
298.26037
298.2713
298.2797
298.28568
298.28933
298.29078
298.29015
298.28755
298.28312
298.27698
298.26926
298.26008
298.24958
298.23787
298.22507
298.21127
298.19658
298.18113
298.16499
298.14826
298.13101
298.11331
298.09523
298.07687
298.05838
298.04
298.02198
298.00473
297.98826
297.97317
297.95831
297.94696
297.93246
297.93479
297.91286
297.95943
297.9039
298.01838
297.41179
296.19496
296.70602
296.51538
296.70031
296.67828
296.77206
296.80228
296.8693
296.91728
296.97692
297.03183
297.09027
297.14806
297.20698
297.26608
297.32552
297.38506
297.44453
297.50378
297.56259
297.62078
297.67813
297.73444
297.78949
297.84307
297.89498
297.945
297.99294
298.03861
298.08184
298.12248
298.1604
298.19548
298.22765
298.25682
298.28297
298.30609
298.32617
298.34318
298.35641
298.3671
298.37497
298.38016
298.38286
298.38316
298.38121
298.37717
298.37117
298.36337
298.35391
298.34294
298.3306
298.31701
298.30232
298.28665
298.27011
298.25281
298.23485
298.21635
298.19739
298.17805
298.15839
298.13849
298.11838
298.09817
298.07797
298.058
298.03851
298.01987
298.00223
297.98589
297.97044
297.95737
297.9437
297.94171
297.92473
297.96193
297.91506
298.02405
297.51748
296.33758
296.84068
296.65491
296.8422
296.8261
296.92211
296.95768
297.02761
297.08021
297.14319
297.20216
297.26405
297.32546
297.38765
297.44993
297.51227
297.57448
297.63632
297.6976
297.75808
297.81755
297.87575
297.93245
297.98742
298.04042
298.09123
298.13963
298.18543
298.22843
298.26849
298.30547
298.33926
298.36977
298.39697
298.42083
298.44135
298.45856
298.47254
298.48333
298.4906
298.49472
298.49612
298.49482
298.49111
298.4851
298.47697
298.46692
298.4551
298.44169
298.42685
298.41073
298.39349
298.37525
298.35617
298.33636
298.31595
298.29502
298.27368
298.25204
298.23018
298.20816
298.18606
298.1639
298.14175
298.11967
298.09776
298.0762
298.05526
298.03524
298.0164
297.99893
297.98274
297.96837
297.955
297.94969
297.93639
297.96611
297.9264
298.03108
297.64522
296.49076
296.9975
296.8186
297.0076
296.99856
297.09681
297.13836
297.21149
297.26912
297.33578
297.39911
297.46473
297.52996
297.5956
297.66114
297.72641
297.79121
297.85525
297.91832
297.98012
298.04041
298.0989
298.15534
298.20946
298.26102
298.30978
298.35553
298.39808
298.43727
298.47296
298.50503
298.53344
298.55814
298.57913
298.59645
298.61016
298.62035
298.62713
298.63064
298.63109
298.62773
298.62185
298.61338
298.60261
298.58974
298.57495
298.55847
298.54046
298.52113
298.50065
298.47917
298.45685
298.43383
298.41024
298.38621
298.36185
298.33725
298.3125
298.28769
298.26291
298.23822
298.21366
298.18928
298.16509
298.14116
298.11756
298.09446
298.07208
298.05074
298.03071
298.01218
297.99518
297.9798
297.9664
297.95846
297.94786
297.97091
297.93757
298.03836
297.79748
296.67507
297.17774
297.0077
297.19788
297.19704
297.29765
297.34582
297.42256
297.48565
297.55641
297.6244
297.69406
297.76329
297.83251
297.90134
297.96946
298.03668
298.10263
298.16707
298.22965
298.29009
298.34809
298.40335
298.45561
298.5046
298.55011
298.59192
298.62987
298.66384
298.69372
298.71947
298.74106
298.75854
298.77196
298.78144
298.7871
298.78909
298.7876
298.78285
298.77505
298.76389
298.74999
298.73375
298.7154
298.69521
298.67338
298.65015
298.62572
298.60027
298.57399
298.54704
298.51957
298.49172
298.46361
298.43536
298.40706
298.37881
298.35068
298.32276
298.29512
298.2678
298.24084
298.21427
298.18811
298.16239
298.13717
298.11258
298.08883
298.06622
298.04505
298.02552
298.00772
297.99155
297.97788
297.96793
297.95934
297.97635
297.94873
298.04436
297.97375
296.87801
297.38192
297.22295
297.41406
297.42272
297.52608
297.58162
297.66254
297.73159
297.80693
297.87993
297.95393
298.02731
298.10019
298.17222
298.243
298.31228
298.37965
298.4448
298.50736
298.56701
298.62342
298.67629
298.72533
298.77032
298.81103
298.8473
298.87902
298.9061
298.92853
298.9463
298.9595
298.96823
298.97264
298.97291
298.96926
298.96192
298.95114
298.9372
298.92032
298.90066
298.87816
298.85364
298.8273
298.79948
298.77036
298.74021
298.70922
298.67759
298.64549
298.61308
298.5805
298.54788
298.51533
298.48294
298.45081
298.41902
298.38762
298.35669
298.32629
298.29645
298.26719
298.23854
298.2105
298.18309
298.15634
298.13036
298.10534
298.08154
298.05929
298.03883
298.02024
298.00347
297.98938
297.97793
297.97074
297.9821
297.95916
298.05223
298.17547
297.11014
297.61199
297.46646
297.65833
297.67779
297.78441
297.84807
297.93382
298.00931
298.08974
298.16803
298.2466
298.32418
298.40063
298.4756
298.5486
298.61932
298.68731
298.75219
298.81357
298.87109
298.92443
298.97327
299.01737
299.05651
299.09054
299.11935
299.14289
299.16117
299.17426
299.18227
299.18536
299.18374
299.17766
299.16739
299.15323
299.13549
299.1145
299.09058
299.06401
299.03526
299.00371
298.97057
298.93602
298.90041
298.86393
298.82684
298.78933
298.75159
298.71378
298.67604
298.63851
298.60128
298.56445
298.52812
298.49234
298.45718
298.4227
298.38893
298.35593
298.32372
298.29232
298.26174
298.23196
298.20298
298.17484
298.1476
298.12141
298.09654
298.07329
298.05196
298.03265
298.0154
298.00083
297.98834
297.98198
297.98815
297.96965
298.0587
298.4015
297.37098
297.86995
297.74036
297.93305
297.96469
298.07527
298.14781
298.23913
298.32155
298.40754
298.49133
298.57457
298.65621
298.7359
298.81325
298.8877
298.95885
299.02622
299.08938
299.14793
299.2015
299.24978
299.2925
299.32945
299.36049
299.38555
299.40463
299.41778
299.42513
299.42686
299.4232
299.41444
299.40088
299.38289
299.36083
299.33509
299.30605
299.27411
299.23962
299.20292
299.16464
299.1239
299.08203
299.03925
298.9959
298.95216
298.90828
298.86444
298.82081
298.77752
298.73472
298.69248
298.65092
298.6101
298.57007
298.53091
298.49264
298.45531
298.41894
298.38356
298.3492
298.31584
298.2835
298.25215
298.22179
298.1924
298.16405
298.13684
298.11102
298.08688
298.06476
298.04478
298.02715
298.01208
297.99895
297.99291
297.99446
297.98
298.0653
298.64742
297.66387
298.15861
298.04765
298.24142
298.28665
298.40204
298.48422
298.58186
298.6716
298.76348
298.85279
298.94053
299.02576
299.10797
299.18669
299.26129
299.33132
299.39625
299.45564
299.50909
299.55628
299.59693
299.63087
299.65797
299.67823
299.69168
299.69847
299.69881
299.69295
299.68123
299.66402
299.64172
299.61477
299.58363
299.54875
299.5106
299.46962
299.42625
299.38088
299.33387
299.28582
299.23606
299.18558
299.13477
299.08392
299.03321
298.98287
298.93305
298.88389
298.8355
298.78799
298.74144
298.6959
298.65143
298.60807
298.56585
298.52478
298.4849
298.4462
298.40872
298.37244
298.33737
298.30349
298.27077
298.2392
298.20876
298.17947
298.15142
298.1248
298.0999
298.07706
298.0565
298.03852
298.023
298.00957
298.00338
298.00082
297.99007
298.07027
298.92296
297.99213
298.48152
298.39201
298.58729
298.6475
298.76869
298.86118
298.96582
299.06312
299.16097
299.25548
299.34713
299.43497
299.5184
299.59682
299.66958
299.73617
299.79607
299.84887
299.89423
299.93189
299.96171
299.98364
299.99772
300.00411
300.00304
299.99481
299.97982
299.9585
299.93134
299.89886
299.86158
299.82005
299.77482
299.72642
299.67537
299.62214
299.56721
299.51097
299.45378
299.39625
299.3377
299.27898
299.22054
299.16265
299.10546
299.04915
298.99383
298.93964
298.88664
298.8349
298.78449
298.73542
298.68774
298.64144
298.59655
298.55306
298.51096
298.47027
298.43097
298.39306
298.35653
298.32136
298.28751
298.25495
298.22365
298.19362
298.16491
298.13767
298.11216
298.08871
298.06763
298.04931
298.0334
298.01995
298.01331
298.0072
297.99894
298.07415
299.23182
298.35974
298.84269
298.77767
298.9752
299.05174
299.17985
299.2832
299.39529
299.50008
299.60355
299.70238
299.79666
299.88539
299.96786
300.04341
300.11138
300.17125
300.22259
300.26507
300.29847
300.32273
300.33788
300.34408
300.34161
300.33082
300.31219
300.28624
300.25354
300.21473
300.17043
300.12131
300.068
300.01114
299.95134
299.88915
299.82514
299.75978
299.69355
299.62681
299.5599
299.49343
299.42662
299.36028
299.29486
299.23058
299.16754
299.10589
299.04571
298.98708
298.93005
298.87466
298.82092
298.76884
298.71841
298.66964
298.62251
298.57699
298.53307
298.49073
298.44996
298.41073
298.37302
298.33682
298.30207
298.26875
298.23682
298.20625
298.17708
298.14941
298.12346
298.09952
298.07801
298.05932
298.04308
298.02981
298.02254
298.01342
298.00748
298.07685
299.57735
298.77171
299.24722
299.20989
299.41061
299.50472
299.64097
299.75546
299.87499
299.98656
300.09453
300.19591
300.29053
300.37727
300.45543
300.52429
300.58329
300.63201
300.67015
300.69761
300.7144
300.72071
300.71686
300.70331
300.68059
300.64936
300.61033
300.56423
300.51186
300.45399
300.3914
300.32485
300.25505
300.18267
300.10834
300.03264
299.95609
299.87918
299.80232
299.72579
299.64998
299.57542
299.50111
299.428
299.35641
299.28653
299.21843
299.1522
299.08788
299.02551
298.96511
298.90667
298.85019
298.79565
298.74301
298.69225
298.64334
298.59623
298.55089
298.50727
298.46537
298.42514
298.38656
298.34959
298.3142
298.28036
298.24801
298.21712
298.1877
298.15981
298.1336
298.10934
298.08747
298.06838
298.05182
298.03882
298.03087
298.01959
298.01554
298.07804
299.96334
299.23463
299.70179
299.69515
299.90002
300.0125
300.158
300.28318
300.40946
300.52604
300.63619
300.73702
300.82819
300.90856
300.97748
301.03434
301.07878
301.1106
301.12983
301.13668
301.13154
301.11496
301.08763
301.05034
301.00396
300.94943
300.88768
300.81968
300.74637
300.66865
300.58737
300.50333
300.41727
300.32986
300.24169
300.1533
300.06516
299.97769
299.89123
299.80601
299.72241
299.64085
299.55998
299.48109
299.4043
299.32976
299.25748
299.1875
299.11983
299.05446
298.99138
298.93056
298.87196
298.81553
298.76122
298.70898
298.65876
298.6105
298.56414
298.51964
298.47696
298.43606
298.3969
298.35946
298.32368
298.28955
298.257
298.226
298.19654
298.16863
298.14238
298.11799
298.09588
298.07638
298.05948
298.04662
298.03799
298.02557
298.02322
298.07726
300.39386
299.75593
300.21404
300.24154
300.4523
300.5831
300.73858
300.87092
301.00219
301.1206
301.2288
301.32408
301.40602
301.47364
301.5265
301.56431
301.5871
301.5951
301.58881
301.56894
301.53633
301.49201
301.43706
301.37264
301.29993
301.22011
301.13433
301.04367
300.94916
300.85174
300.75229
300.65156
300.55026
300.44899
300.34827
300.24855
300.1502
300.05358
299.95889
299.86631
299.77629
299.68887
299.6026
299.51906
299.43814
299.35993
299.2844
299.21155
299.14134
299.07375
299.00871
298.94617
298.88606
298.82832
298.77288
298.71967
298.6686
298.61963
298.57266
298.52766
298.48455
298.44331
298.40388
298.36623
298.33033
298.29613
298.2636
298.23269
298.20338
298.17565
298.14956
298.12525
298.10308
298.08324
298.06598
298.05303
298.04365
298.03103
298.02957
298.07478
300.87335
300.34654
300.79313
300.85714
301.07652
301.22284
301.38522
301.52419
301.65551
301.77002
301.86935
301.9513
302.01558
302.06165
302.08956
302.09961
302.09244
302.06896
302.03028
301.9777
301.91263
301.83653
301.75089
301.65718
301.55679
301.45107
301.34124
301.22842
301.11364
300.99778
300.88163
300.76587
300.65107
300.53774
300.42628
300.317
300.2102
300.1061
300.00477
299.90639
299.81136
299.71922
299.62896
299.54193
299.45796
299.3771
299.29927
299.22443
299.1525
299.08343
299.01713
298.95352
298.89252
298.83403
298.77798
298.72427
298.67283
298.62356
298.57638
298.53124
298.48806
298.44679
298.40738
298.3698
298.334
298.29996
298.26764
298.237
298.20802
298.18066
298.15493
298.13092
298.10888
298.08887
298.07135
298.05814
298.04774
298.03514
298.03496
298.07074
301.42025
301.02679
301.45543
301.55994
301.77208
301.93809
302.10441
302.24355
302.36688
302.46815
302.54816
302.60568
302.64101
302.65442
302.64683
302.61942
302.57369
302.51134
302.43419
302.34415
302.24312
302.13293
302.01534
301.89199
301.76434
301.63375
301.50139
301.3683
301.23536
301.10333
300.97283
300.84439
300.71844
300.59531
300.47527
300.35852
300.24523
300.13547
300.02921
299.92666
299.8281
299.73251
299.63954
299.55016
299.46423
299.3817
299.30248
299.22649
299.15362
299.08379
299.0169
298.95284
298.89151
298.8328
298.77663
298.72288
298.67147
298.62231
298.5753
298.53036
298.48743
298.44644
298.40734
298.37008
298.33463
298.30095
298.26902
298.23882
298.21031
298.18346
298.15825
298.13476
298.11306
298.0931
298.07554
298.06198
298.05019
298.03693
298.03981
298.06546
302.04835
301.79653
302.19822
302.33108
302.56575
302.74198
302.89771
303.02444
303.12616
303.19945
303.24552
303.26422
303.25703
303.2254
303.17143
303.09738
303.00569
302.89886
302.77935
302.6495
302.51152
302.36742
302.21899
302.06783
301.9153
301.76259
301.61068
301.4604
301.31243
301.16729
301.02543
300.88717
300.75276
300.62237
300.49611
300.37408
300.25632
300.14274
300.03326
299.92819
299.82755
299.72967
299.63519
299.54456
299.45767
299.37439
299.29464
299.21828
299.14519
299.07527
299.00839
298.94444
298.8833
298.82487
298.76902
298.71566
298.66468
298.61598
298.56947
298.52507
298.48269
298.44226
298.40373
298.36704
298.33216
298.29904
298.26768
298.23805
298.21014
298.18391
298.15936
298.13652
298.11536
298.09576
298.07841
298.06433
298.05086
298.03764
298.0432
298.05898
302.7618
302.64918
303.05676
303.23589
303.45553
303.61201
303.74748
303.84305
303.90596
303.93327
303.92827
303.89243
303.82896
303.74084
303.6315
303.50425
303.36236
303.20888
303.04659
302.87797
302.70522
302.53022
302.35455
302.17953
302.00626
301.8356
301.66826
301.50476
301.34553
301.19084
301.04092
300.89589
300.75584
300.62076
300.49065
300.3655
300.2452
300.12954
300.01853
299.91251
299.81096
299.71184
299.61699
299.52612
299.43919
299.35602
299.2765
299.20048
299.12782
299.0584
298.99208
298.92875
298.86827
298.81053
298.75541
298.7028
298.6526
298.6047
298.559
298.51542
298.47387
298.43427
298.39655
298.36067
298.32657
298.29422
298.26359
298.23468
298.20747
298.18194
298.15812
298.13602
298.11554
298.09659
298.07984
298.06568
298.05136
298.03848
298.04263
298.05114
303.58652
303.65071
304.02976
304.21089
304.40853
304.53459
304.62576
304.66651
304.66706
304.62717
304.55268
304.44737
304.31629
304.16391
303.99467
303.81253
303.62108
303.4234
303.22216
303.01954
302.81737
302.61709
302.41986
302.22658
302.03793
301.8544
301.67634
301.504
301.33751
301.17692
301.02226
300.87347
300.73047
300.59314
300.46139
300.33509
300.21399
300.09786
299.98691
299.88116
299.77924
299.68051
299.58618
299.49598
299.40981
299.32749
299.24887
299.1738
299.10214
299.03374
298.96847
298.90619
298.84678
298.79012
298.73608
298.68456
298.63544
298.58863
298.54401
298.5015
298.46102
298.42248
298.38582
298.35096
298.31785
298.28646
298.25675
298.2287
298.20231
298.17757
298.15451
298.13316
298.11341
298.09523
298.07923
298.06524
298.05066
298.03792
298.04115
298.0431
304.54415
304.78325
305.10751
305.26679
305.40747
305.46699
305.47933
305.43572
305.34873
305.22212
305.06403
304.88036
304.6774
304.46033
304.2338
304.00166
303.76707
303.53259
303.30024
303.07156
302.84772
302.62958
302.41774
302.21261
302.01445
301.82336
301.6394
301.46252
301.29262
301.12958
300.97324
300.82342
300.67991
300.54251
300.41106
300.28532
300.16494
300.04982
299.94026
299.83575
299.73433
299.63695
299.54397
299.45521
299.37049
299.28965
299.21251
299.13893
299.06875
299.00182
298.93801
298.87717
298.81919
298.76393
298.71129
298.66113
298.61337
298.56789
298.5246
298.48339
298.4442
298.40693
298.37152
298.33788
298.30597
298.27574
298.24713
298.22013
298.19472
298.17088
298.14866
298.12808
298.10904
298.09164
298.0764
298.0628
298.04859
298.03627
298.03825
298.03507
305.62659
305.99277
306.23264
306.32412
306.36548
306.32122
306.2225
306.06989
305.87836
305.65541
305.41052
305.15052
304.88161
304.6085
304.33501
304.06398
303.79756
303.53729
303.28427
303.03921
302.80256
302.57454
302.35525
302.14464
301.9426
301.74894
301.56346
301.3859
301.21601
301.05351
300.89814
300.74962
300.60766
300.47204
300.34251
300.21872
300.10035
299.98754
299.88038
299.77758
299.67764
299.58241
299.49151
299.40483
299.32215
299.24331
299.16814
299.09649
299.0282
298.96312
298.90111
298.84205
298.78579
298.73223
298.68124
298.63271
298.58653
298.54261
298.50084
298.46114
298.42342
298.38761
298.35362
298.32138
298.29085
298.26195
298.23464
298.20888
298.18464
298.1619
298.14067
298.12095
298.10267
298.086
298.07134
298.05806
298.04463
298.03377
298.03383
298.02837
306.86947
307.19452
307.30302
307.27421
307.17071
306.98784
306.75529
306.48279
306.18574
305.87313
305.55341
305.23226
304.91411
304.60199
304.29801
304.00354
303.71941
303.44607
303.18366
302.93215
302.69136
302.46103
302.24085
302.03046
301.82948
301.63754
301.45427
301.27928
301.11222
300.95274
300.80051
300.65518
300.51646
300.3841
300.25777
300.13706
300.02185
299.91244
299.80821
299.70721
299.61016
299.51763
299.42941
299.34532
299.26517
299.18878
299.11599
299.04665
298.9806
298.9177
298.85781
298.80081
298.74655
298.69494
298.64584
298.59916
298.55479
298.51263
298.47259
298.43458
298.39851
298.36432
298.33192
298.30125
298.27225
298.24485
298.21902
298.19469
298.17184
298.15042
298.13044
298.11185
298.09458
298.07881
298.06476
298.05179
298.03912
298.02973
298.02778
298.02272
308.23099
308.24069
308.15111
307.944
307.66361
307.33204
306.9722
306.59756
306.21932
305.84426
305.47732
305.12136
304.7782
304.44874
304.13333
303.83196
303.54436
303.27012
303.00873
302.75966
302.52233
302.29619
302.08069
301.8753
301.67953
301.49289
301.31493
301.14522
300.98336
300.82898
300.68169
300.54117
300.40713
300.27928
300.15721
300.0406
299.92967
299.82439
299.72334
299.62512
299.53158
299.44238
299.35738
299.27639
299.19922
299.12571
299.05571
298.98905
298.92559
298.8652
298.80774
298.75308
298.70111
298.65171
298.60476
298.56018
298.51784
298.47767
298.43957
298.40345
298.36923
298.33685
298.30622
298.27729
298.24998
298.22425
298.20005
298.17732
298.15603
298.13615
298.11765
298.10047
298.08459
298.07013
298.05715
298.04511
298.03367
298.02514
298.0213
298.01249
308.93317
308.75433
308.44616
308.06761
307.65106
307.22091
306.79099
306.36964
305.96182
305.56998
305.19531
304.83803
304.49793
304.17445
303.86691
303.57452
303.29652
303.03215
302.78068
302.54135
302.31354
302.09661
301.89
301.69313
301.50551
301.32666
301.15614
300.99352
300.83841
300.69044
300.54927
300.41456
300.28608
300.16347
300.04631
299.93459
299.82861
299.72754
299.62925
299.53511
299.44537
299.35985
299.27836
299.20073
299.12679
299.05638
298.98936
298.92558
298.8649
298.80719
298.75232
298.70018
298.65064
298.6036
298.55896
298.51661
298.47646
298.43841
298.40238
298.36829
298.33606
298.30562
298.27689
298.24981
298.22433
298.20039
298.17793
298.15692
298.1373
298.11905
298.10214
298.08651
298.07216
298.05915
298.04747
298.03674
298.02693
298.01947
298.01497
298.00766
308.31818
308.26858
307.92788
307.54126
307.12381
306.70329
306.28947
305.88831
305.50267
305.13361
304.78144
304.44586
304.12638
303.82231
303.53296
303.25757
302.99541
302.7458
302.5081
302.28173
302.06609
301.86062
301.6648
301.47812
301.30013
301.13038
300.96847
300.81402
300.66667
300.52608
300.39194
300.264
300.14194
300.0254
299.91412
299.8083
299.70768
299.61068
299.51687
299.42747
299.34225
299.26105
299.18371
299.11005
299.03993
298.97319
298.9097
298.84933
298.79194
298.73741
298.68562
298.63646
298.58982
298.5456
298.50369
298.46401
298.42646
298.39095
298.3574
298.32573
298.29587
298.26775
298.2413
298.21645
298.19316
298.17136
298.151
298.13205
298.11445
298.09817
298.08319
298.06945
298.05695
298.04571
298.03569
298.02673
298.01886
298.01269
298.00836
298.00361
306.1529
306.36165
306.33449
306.18953
305.95188
305.67551
305.37666
305.06968
304.76225
304.45909
304.16328
303.87647
303.5997
303.33342
303.07781
302.83281
302.59823
302.37378
302.1591
301.95384
301.75759
301.56999
301.39064
301.2192
301.0553
300.89864
300.74887
300.60572
300.46888
300.3381
300.21312
300.09375
299.97962
299.87044
299.76638
299.66756
299.57291
299.48067
299.39271
299.30876
299.22875
299.15249
299.07984
299.01067
298.94484
298.88221
298.82266
298.76608
298.71234
298.66132
298.61293
298.56706
298.5236
298.48246
298.44355
298.40679
298.37207
298.33933
298.30849
298.27947
298.2522
298.22661
298.20264
298.18024
298.15934
298.13989
298.12185
298.10517
298.08981
298.07574
298.06292
298.05132
298.04092
298.03171
298.02367
298.01675
298.01098
298.00646
298.00323
298.00093
308.4066
308.46538
307.9304
307.1061
306.14532
305.24748
304.47448
303.82235
303.26567
302.79073
302.34687
301.95991
301.60895
301.28894
300.98789
300.71172
300.45081
300.21198
299.99605
299.79936
299.62148
299.45822
299.31446
299.18431
299.06396
298.96089
298.86781
298.78744
298.7123
298.64523
298.58766
298.53606
298.48893
298.44543
298.40504
298.36726
298.33173
298.29812
298.26604
298.23561
298.20694
298.17949
298.15348
298.12917
298.10584
298.08363
298.06259
298.04272
298.02397
298.00631
297.98967
297.97402
297.9593
297.94547
297.93248
297.92027
297.90876
297.89796
297.88766
297.87811
297.86871
297.86029
297.85132
297.84414
297.83486
297.82946
297.81854
297.81685
297.80336
297.80886
297.78879
297.80695
297.77575
297.81306
297.76561
297.82999
297.77407
297.8601
297.81956
297.89982
305.84759
305.23207
304.53859
303.67531
302.78498
302.03073
301.4554
301.04442
300.753
300.53097
300.35337
300.20097
300.06416
299.93723
299.81172
299.69761
299.58044
299.47607
299.36879
299.27609
299.17905
299.09641
299.01006
298.93802
298.86396
298.80043
298.73665
298.68284
298.62963
298.57938
298.53396
298.49152
298.45126
298.41295
298.3765
298.34181
298.30874
298.27723
298.2469
298.21821
298.1911
298.16524
298.14046
298.11753
298.09552
298.07456
298.05469
298.03593
298.01823
298.00156
297.98587
297.97109
297.95719
297.94413
297.93184
297.9203
297.90939
297.89914
297.88932
297.8802
297.87117
297.86307
297.85436
297.84738
297.83829
297.83297
297.82195
297.82067
297.80709
297.81269
297.79241
297.81078
297.7792
297.8166
297.7689
297.83353
297.77591
297.86501
297.81946
297.90616
299.98378
299.89047
299.30316
298.52465
298.14021
298.09832
298.15942
298.2492
298.35093
298.45153
298.54181
298.61868
298.68228
298.73169
298.76514
298.79719
298.80678
298.82398
298.80552
298.79059
298.76014
298.73976
298.7062
298.6803
298.64648
298.61697
298.57924
298.54839
298.51159
298.48228
298.45238
298.42109
298.3898
298.35922
298.32923
298.29996
298.27154
298.24404
298.21708
298.19221
298.168
298.14464
298.12251
298.10136
298.08113
298.06192
298.04371
298.02647
298.01017
297.99478
297.98026
297.96658
297.95367
297.94154
297.93009
297.91934
297.90908
297.89951
297.89019
297.88166
297.87293
297.86539
297.85674
297.85035
297.841
297.83638
297.82538
297.82446
297.81
297.81653
297.79492
297.81514
297.78103
297.82162
297.76935
297.83916
297.77629
297.87044
297.81953
297.91145
302.56242
302.54807
301.83514
300.51381
299.71441
299.51953
299.45502
299.40912
299.37196
299.32158
299.25915
299.19554
299.13731
299.07788
299.07849
298.98135
298.98543
298.88273
298.89662
298.79871
298.81207
298.72151
298.73254
298.6484
298.6377
298.58324
298.57949
298.51445
298.47655
298.4482
298.4152
298.38372
298.35362
298.32458
298.29659
298.26957
298.2435
298.21837
298.19414
298.17125
298.14904
298.1276
298.1072
298.08764
298.06904
298.05135
298.03458
298.01867
298.00362
297.98941
297.97599
297.96334
297.9514
297.94017
297.92952
297.91953
297.90994
297.90099
297.89219
297.88416
297.8758
297.86863
297.86019
297.85409
297.84478
297.8404
297.82947
297.82858
297.81322
297.82084
297.79844
297.81915
297.78426
297.8249
297.77285
297.84225
297.77837
297.8742
297.82072
297.91537
301.6845
301.21568
300.1501
298.98151
298.55975
298.47215
298.50025
298.50339
298.51244
298.50996
298.51416
298.5156
298.51866
298.51821
298.51736
298.51406
298.50977
298.50304
298.49505
298.49057
298.47385
298.47441
298.45438
298.45018
298.43072
298.41659
298.39146
298.37807
298.36014
298.33909
298.31881
298.29835
298.27755
298.25666
298.23581
298.2151
298.19465
298.17455
298.15495
298.13622
298.11771
298.09968
298.08228
298.06559
298.0496
298.03432
298.01976
298.0059
297.99274
297.98026
297.96843
297.95724
297.94663
297.93662
297.92709
297.9181
297.90941
297.90127
297.89316
297.88578
297.87791
297.87126
297.8631
297.85742
297.84814
297.84418
297.83298
297.83246
297.81685
297.82483
297.8017
297.82318
297.78687
297.82924
297.77407
297.84686
297.77959
297.87868
297.82139
297.9195
301.78505
301.33859
300.24246
299.01627
298.45934
298.40965
298.42429
298.42303
298.4237
298.41234
298.41196
298.41202
298.41204
298.40957
298.4069
298.40176
298.39662
298.38953
298.38269
298.37269
298.36546
298.35243
298.34355
298.3296
298.31831
298.30529
298.29382
298.27926
298.26476
298.25052
298.23592
298.22088
298.20555
298.19005
298.17445
298.1588
298.1432
298.1277
298.11246
298.09774
298.083
298.06854
298.05446
298.04085
298.02771
298.01509
298.00297
297.99137
297.9803
297.96976
297.95971
297.95016
297.94105
297.93241
297.92411
297.91624
297.90855
297.90131
297.89398
297.88729
297.87998
297.87385
297.86604
297.86074
297.85163
297.84791
297.83617
297.83656
297.82053
297.82906
297.80533
297.82727
297.78992
297.83307
297.77703
297.85076
297.78124
297.88284
297.82226
297.92347
301.4338
300.89739
299.68891
298.52614
298.12639
298.05139
298.08933
298.09621
298.11472
298.12067
298.13261
298.13684
298.14397
298.14809
298.15288
298.15652
298.15993
298.16264
298.16469
298.1668
298.16748
298.16889
298.16844
298.16828
298.16652
298.16411
298.1603
298.15613
298.15091
298.14477
298.13803
298.13048
298.12222
298.11339
298.10407
298.09431
298.08425
298.07396
298.06362
298.05343
298.04294
298.03248
298.02215
298.01202
298.00215
297.99254
297.98324
297.97425
297.96559
297.95727
297.94926
297.94158
297.93419
297.9271
297.92021
297.91361
297.90705
297.90081
297.89436
297.88844
297.88177
297.87621
297.86883
297.86393
297.85504
297.85159
297.83981
297.84056
297.82435
297.83314
297.80883
297.83111
297.79282
297.83702
297.77898
297.85486
297.78282
297.887
297.82308
297.92731
301.29314
300.68837
299.39221
298.28221
297.95103