/*--------------------------------*- C++ -*----------------------------------*\
  =========                 |
  \\      /  F ield         | OpenFOAM: The Open Source CFD Toolbox
   \\    /   O peration     | Website:  https://openfoam.org
    \\  /    A nd           | Version:  6
     \\/     M anipulation  |
\*---------------------------------------------------------------------------*/
FoamFile
{
    version     2.0;
    format      ascii;
    class       volVectorField;
    location    "300";
    object      U;
}
// * * * * * * * * * * * * * * * * * * * * * * * * * * * * * * * * * * * * * //

dimensions      [0 1 -1 0 0 0 0];

internalField   nonuniform List<vector> 
16000
(
(153.70716 1.2577691e-15 -17.793524)
(162.78542 -1.1164844e-15 -11.539239)
(159.31436 4.3266324e-18 -16.84763)
(160.94768 3.9091735e-18 -12.536161)
(159.59869 0 -15.731937)
(160.05079 -8.9384995e-16 -13.240752)
(159.37436 8.4655168e-16 -14.931158)
(159.40359 0 -13.608262)
(158.97456 -1.8476519e-19 -14.397089)
(158.82949 1.74802e-19 -13.723486)
(158.49529 3.312724e-19 -14.029981)
(158.27102 -6.4274332e-16 -13.677897)
(157.97034 6.0955409e-16 -13.746123)
(157.70856 4.8018509e-18 -13.536023)
(157.41583 5.4868756e-16 -13.491665)
(157.13457 -5.209054e-16 -13.334767)
(156.84013 -9.9020326e-16 -13.236256)
(156.54745 9.3986513e-16 -13.092158)
(156.24854 0 -12.964145)
(155.94859 8.4951293e-16 -12.815622)
(155.64542 -8.0791697e-16 -12.66747)
(155.34105 -7.6937723e-16 -12.507496)
(155.03523 -7.3971402e-19 -12.342338)
(154.72904 -3.6603652e-19 -12.168141)
(154.42291 6.5252544e-16 -11.986911)
(154.11767 0 -11.797529)
(153.81404 6.0230081e-16 -11.600641)
(153.51283 -5.6406651e-16 -11.396038)
(153.21486 -5.3326159e-19 -11.184055)
(152.92098 -5.0832614e-19 -10.964845)
(152.63207 -4.9660042e-16 -10.738749)
(152.34904 4.728762e-16 -10.50609)
(152.07279 -1.411991e-17 -10.267458)
(151.80422 -1.2629279e-17 -10.023396)
(151.54424 8.2234998e-16 -9.7744674)
(151.29362 -1.570034e-15 -9.521346)
(151.05315 7.4879165e-16 -9.264638)
(150.82356 1.1177786e-17 -9.0050482)
(150.60558 1.067295e-17 -8.7434245)
(150.39985 0 -8.4806733)
(150.20692 -1.215935e-18 -8.2176641)
(150.02728 1.1616167e-18 -7.955286)
(149.86134 -5.6743248e-16 -7.6944439)
(149.70945 5.4422101e-16 -7.4360381)
(149.57186 5.1826772e-16 -7.180935)
(149.44874 -4.9628364e-16 -6.92997)
(149.34018 -9.2659415e-19 -6.6839348)
(149.24619 0 -6.4435598)
(149.16669 4.3404322e-16 -6.2095111)
(149.10155 -4.1513504e-16 -5.9823798)
(149.05055 0 -5.7626765)
(149.01339 0 -5.5508254)
(148.98974 2.2741467e-17 -5.3471628)
(148.97915 -1.3600616e-18 -5.151949)
(148.98119 2.0846825e-17 -4.9653499)
(148.99542 0 -4.7874392)
(149.02131 0 -4.6182176)
(149.05823 0 -4.4576088)
(149.10551 0 -4.3054519)
(149.16239 -3.5788743e-17 -4.1615371)
(149.22817 -3.2301795e-17 -4.02556)
(149.30189 0 -3.8972505)
(149.38305 2.9731359e-17 -3.7761229)
(149.47018 0 -3.6620311)
(149.56366 -3.0825788e-17 -3.5540692)
(149.65989 -4.243365e-16 -3.4527758)
(149.76213 4.0466667e-16 -3.3558631)
(149.85943 -3.0388754e-18 -3.2663998)
(149.96594 3.741007e-16 -3.1774705)
(150.04944 -3.7980027e-16 -3.1006439)
(150.16175 0 -3.0132314)
(150.20645 -3.3400524e-16 -2.9568507)
(150.35284 6.4387971e-16 -2.8494914)
(150.29704 -3.1083262e-16 -2.8491258)
(150.55113 4.6828451e-18 -2.6506853)
(150.22403 0 -2.850932)
(150.75247 -1.4002428e-16 -2.2963279)
(149.86816 1.7146108e-17 -3.1702496)
(150.86862 1.3138361e-16 -1.4735292)
(149.39267 -3.2040106e-17 -4.2050423)
(153.38619 -1.2673506e-15 -19.51931)
(162.5021 1.1269316e-15 -12.985265)
(158.82928 -4.2699299e-18 -18.551092)
(160.55707 1.0235391e-15 -13.986902)
(159.11799 -9.7635025e-16 -17.361036)
(159.61477 7.1246418e-18 -14.706126)
(158.89021 0 -16.489214)
(158.93129 0 -15.073873)
(158.47544 7.6103461e-16 -15.895655)
(158.32696 -7.4279996e-16 -15.171405)
(157.9757 6.8271451e-16 -15.477949)
(157.74187 -6.5700472e-16 -15.094336)
(157.4277 0 -15.147125)
(157.15434 5.8689694e-16 -14.911706)
(156.84937 -5.6120941e-16 -14.845034)
(156.55627 0 -14.663202)
(156.25025 0 -14.538895)
(155.94623 0 -14.368119)
(155.6365 -9.0054038e-16 -14.211857)
(155.32615 8.6938406e-16 -14.034322)
(155.01326 0 -13.855683)
(154.69982 7.8708315e-16 -13.664312)
(154.38579 -7.3689213e-16 -13.466476)
(154.07227 -7.1295183e-16 -13.258618)
(153.75986 3.1448892e-17 -13.042619)
(153.44946 6.2587005e-16 -12.817521)
(153.1419 6.3498918e-16 -12.583971)
(152.83809 -1.1821099e-15 -12.341879)
(152.53893 1.1177312e-15 -12.091649)
(152.24537 -5.1586605e-16 -11.833549)
(151.95834 5.0790773e-16 -11.568039)
(151.67878 -9.6829526e-16 -11.295605)
(151.40759 9.3781601e-16 -11.016831)
(151.14574 -8.6697162e-16 -10.732345)
(150.89407 4.199909e-16 -10.442993)
(150.65343 0 -10.149634)
(150.42459 2.3919034e-17 -9.8531425)
(150.20823 -1.1401931e-17 -9.5543612)
(150.00495 -7.0789684e-16 -9.2540963)
(149.81527 7.068028e-16 -8.953389)
(149.63967 0 -8.6533084)
(149.47847 -6.067439e-16 -8.3548629)
(149.33195 3.6077153e-17 -8.0590434)
(149.2003 1.1069842e-15 -7.7668551)
(149.08361 -5.2874143e-16 -7.479256)
(148.98187 -5.0532839e-16 -7.1971456)
(148.89501 5.1302921e-16 -6.9213762)
(148.82287 -4.0385256e-16 -6.6527235)
(148.76522 8.2722931e-16 -6.3918833)
(148.72177 -4.2180368e-16 -6.1394667)
(148.69214 0 -5.8959912)
(148.67594 0 -5.6618789)
(148.67271 -2.3055862e-17 -5.4374537)
(148.68191 -7.060098e-16 -5.222951)
(148.703 6.5449503e-16 -5.0185139)
(148.73548 6.0620892e-16 -4.8241778)
(148.77878 -3.2429509e-20 -4.6398961)
(148.83228 -6.6687775e-16 -4.4655485)
(148.89525 0 -4.3009265)
(148.96695 3.3981573e-17 -4.1457532)
(149.04666 -3.2578283e-17 -3.9996833)
(149.13353 -6.2423848e-17 -3.8623437)
(149.22688 -4.4868299e-16 -3.7332617)
(149.3257 7.2966715e-20 -3.6120582)
(149.42961 4.127048e-16 -3.4980644)
(149.53671 0 -3.3911446)
(149.64743 -4.05272e-16 -3.2900405)
(149.75638 3.8916904e-16 -3.1957194)
(149.86795 -4.6719724e-17 -3.1048103)
(149.96698 3.8150659e-16 -3.0224138)
(150.07573 -6.9037342e-16 -2.9369418)
(150.14782 3.7356836e-16 -2.8705005)
(150.26737 3.193974e-16 -2.7752684)
(150.2711 -1.0639902e-19 -2.7499545)
(150.45409 -3.1939592e-16 -2.5850007)
(150.24972 2.6795794e-16 -2.7230981)
(150.63701 -2.711392e-16 -2.2554793)
(149.94573 -1.6694814e-17 -2.9979821)
(150.73546 1.6037881e-17 -1.4709838)
(149.50416 3.1188673e-17 -3.961345)
(152.91196 1.2813532e-15 -21.279169)
(162.0473 -6.6785699e-21 -14.496895)
(158.20844 -1.1129706e-15 -20.259267)
(160.01827 1.0298489e-15 -15.512422)
(158.50118 7.7088074e-18 -18.994073)
(159.02619 9.2222915e-16 -16.238589)
(158.26163 -1.7619312e-15 -18.057608)
(158.30499 1.2624616e-17 -16.593062)
(157.82613 7.886467e-16 -17.410795)
(157.66879 1.1665013e-17 -16.660299)
(157.30136 -7.1931513e-16 -16.945469)
(157.05467 6.7107622e-16 -16.541484)
(156.72664 0 -16.566943)
(156.43967 0 -16.309648)
(156.12169 -5.7383347e-16 -16.213675)
(155.81547 5.4464964e-16 -16.006359)
(155.49716 0 -15.851394)
(155.18107 1.5380183e-17 -15.651471)
(154.86013 -1.4602266e-17 -15.462826)
(154.53916 8.6152368e-16 -15.25291)
(154.21663 4.7486853e-19 -15.039788)
(153.89446 -7.7909023e-16 -14.813215)
(153.57285 7.5379047e-16 -14.578665)
(153.25297 -7.2843401e-16 -14.333142)
(152.93555 -7.155376e-16 -14.078297)
(152.62162 6.8098167e-16 -13.813433)
(152.31211 1.9701889e-17 -13.539197)
(152.00803 3.7484408e-17 -13.255668)
(151.71038 3.5714085e-17 -12.963347)
(151.42018 -5.6124318e-16 -12.662657)
(151.13842 4.8602462e-16 -12.3542)
(150.86609 5.2539307e-16 -12.038623)
(150.60413 -4.7120894e-16 -11.716689)
(150.35344 -4.4952938e-16 -11.389235)
(150.11486 8.5723512e-16 -11.057152)
(149.88918 -8.1765862e-16 -10.721453)
(149.6771 -3.6581098e-16 -10.383247)
(149.47928 7.4408693e-16 -10.043697)
(149.29618 0 -9.703848)
(149.12817 -6.7780376e-16 -9.3646597)
(148.97554 6.0635292e-16 -9.0273145)
(148.83849 0 -8.6930119)
(148.71709 -3.6831658e-17 -8.3628215)
(148.61133 0 -8.0378046)
(148.5211 6.7237404e-17 -7.719)
(148.44621 0 -7.4073452)
(148.38638 -3.0643547e-17 -7.103713)
(148.34127 4.7403986e-20 -6.8088927)
(148.31045 1.1193284e-16 -6.5235708)
(148.29347 0 -6.2483389)
(148.2898 0 -5.9836836)
(148.2989 0 -5.7299845)
(148.32019 0 -5.4875184)
(148.35305 0 -5.2564567)
(148.39684 8.5420104e-17 -5.0368868)
(148.45095 4.0831435e-17 -4.8287875)
(148.5148 6.250955e-16 -4.6320374)
(148.58773 -5.9818003e-16 -4.4464462)
(148.66902 -7.1561315e-17 -4.2717397)
(148.75791 0 -4.1075657)
(148.85368 6.5546329e-17 -3.9535139)
(148.95555 5.648744e-16 -3.8091277)
(149.06277 -5.4104494e-16 -3.6738935)
(149.17456 0 -3.5473008)
(149.29027 -5.5186486e-17 -3.4287375)
(149.40873 -1.0574787e-16 -3.3177413)
(149.52927 4.0537887e-16 -3.213474)
(149.64893 -3.8877495e-16 -3.1158669)
(149.76792 4.660107e-17 -3.0232705)
(149.87883 -3.5768324e-16 -2.9373262)
(149.98975 8.3380794e-20 -2.8527671)
(150.07929 2.88515e-16 -2.779289)
(150.1881 0 -2.6927599)
(150.228 0 -2.6476931)
(150.36886 1.8279087e-17 -2.5141291)
(150.24907 1.7607661e-17 -2.5925466)
(150.53184 2.9609094e-17 -2.208127)
(149.98434 -1.1432412e-16 -2.8135192)
(150.6376 1.1395569e-16 -1.458456)
(149.52574 -6.029148e-17 -3.7644216)
(152.29107 3.0969572e-17 -23.083996)
(161.42175 9.1770438e-18 -16.040027)
(157.43916 1.1496026e-15 -22.004724)
(159.33069 4.8372581e-19 -17.070751)
(157.73307 -1.0047981e-15 -20.65757)
(158.28598 -9.4693985e-16 -17.801771)
(157.48005 8.9745961e-16 -19.651095)
(157.52426 -1.3253508e-17 -18.139244)
(157.02156 8.1709749e-16 -18.946738)
(156.85383 -7.3777592e-16 -18.171011)
(156.46955 -7.2259428e-16 -18.429647)
(156.20886 1.3485484e-15 -18.004648)
(155.86632 -6.4978188e-16 -17.998737)
(155.565 1.9291513e-17 -17.717571)
(155.23354 0 -17.588846)
(154.91385 0 -17.353228)
(154.58313 -5.2862644e-16 -17.164282)
(154.25506 4.8639812e-16 -16.931945)
(153.92324 0 -16.707494)
(153.59226 9.3652811e-16 -16.461679)
(153.26095 -8.9025838e-16 -16.210509)
(152.93125 4.0567807e-20 -15.945084)
(152.60357 0 -15.670161)
(152.27918 -4.6536228e-17 -15.383288)
(151.95896 -7.0834082e-16 -15.085952)
(151.64406 6.3185063e-16 -14.777719)
(151.33552 -6.8231359e-16 -14.459288)
(151.03446 5.7314375e-16 -14.130932)
(150.74196 -3.6380447e-17 -13.793292)
(150.45911 -3.4717668e-17 -13.446979)
(150.18694 -4.9593725e-16 -13.092775)
(149.92645 4.7239844e-16 -12.731524)
(149.67858 0 -12.364185)
(149.4442 0 -11.991786)
(149.22408 0 -11.615448)
(149.01889 -5.2083425e-17 -11.236348)
(148.82923 -4.9596908e-17 -10.855672)
(148.65556 8.048594e-16 -10.474756)
(148.49827 -9.0160661e-17 -10.095028)
(148.35758 -6.4596859e-16 -9.7176338)
(148.23351 4.107637e-17 -9.3436474)
(148.12607 6.2757076e-16 -8.9743809)
(148.03511 -5.238975e-16 -8.611055)
(147.96039 -5.7162144e-16 -8.254734)
(147.90159 -6.8235631e-17 -7.9064895)
(147.85828 9.7659997e-16 -7.5672828)
(147.82997 -3.7290597e-16 -7.2379624)
(147.81612 -5.933511e-17 -6.9192956)
(147.81613 3.9684243e-16 -6.611926)
(147.82934 -5.4146567e-16 -6.3163882)
(147.85511 -4.137286e-16 -6.0331056)
(147.89273 3.9524748e-16 -5.7623841)
(147.94152 0 -5.5044232)
(148.00078 7.216054e-16 -5.2593116)
(148.06978 -7.7582751e-16 -5.0270462)
(148.14785 0 -4.8075297)
(148.23435 6.3009637e-16 -4.6005595)
(148.32864 -9.790114e-16 -4.4058538)
(148.42999 5.0409916e-16 -4.2230637)
(148.53765 5.5093334e-16 -4.0517581)
(148.65091 -1.3186419e-16 -3.8914512)
(148.76904 -5.0420669e-16 -3.7416118)
(148.89132 -4.82331e-16 -3.6016632)
(149.01704 5.770704e-16 -3.4710094)
(149.14554 -4.4178786e-16 -3.3490083)
(149.27594 1.0581308e-16 -3.2350496)
(149.40733 4.0498752e-16 -3.1283931)
(149.53766 -3.877534e-16 -3.0285606)
(149.66568 5.5725858e-16 -2.93451)
(149.78702 0 -2.8464467)
(149.90372 0 -2.7618356)
(150.00574 0 -2.6844442)
(150.11181 0 -2.602401)
(150.17583 1.5045021e-16 -2.544166)
(150.29183 -2.8865865e-16 -2.4327397)
(150.22985 3.4671589e-16 -2.4649207)
(150.44383 -3.659823e-16 -2.1521453)
(150.00502 4.9655164e-16 -2.6366815)
(150.5487 -3.7287239e-16 -1.4341082)
(149.53698 -1.1241527e-19 -3.5352491)
(151.52059 1.3407389e-15 -24.926617)
(160.61077 5.3844906e-19 -17.615457)
(156.51743 -1.1860203e-15 -23.775293)
(158.4864 0 -18.667029)
(156.80983 -1.5986423e-17 -22.340135)
(157.38485 -3.0148169e-17 -19.399532)
(156.53918 0 -21.260416)
(156.57939 -8.3769055e-16 -19.713226)
(156.05345 8.1932503e-16 -20.496201)
(155.87185 -8.0089621e-16 -19.701421)
(155.4704 7.361292e-16 -19.924068)
(155.19338 -3.4159139e-20 -19.47938)
(154.83558 0 -19.435804)
(154.51843 6.0960165e-16 -19.129084)
(154.17278 -5.9714792e-16 -18.962786)
(153.83884 0 -18.695614)
(153.49535 5.3918659e-16 -18.468302)
(153.15515 -5.4414875e-16 -18.199538)
(152.81266 4.8709056e-16 -17.934892)
(152.47222 4.3444631e-16 -17.648804)
(152.13308 -8.5286853e-16 -17.355093)
(151.79718 -2.6155898e-17 -17.046294)
(151.46518 4.986362e-17 -16.726468)
(151.13844 -8.959259e-20 -16.393744)
(150.81805 0 -16.049486)
(150.50524 -8.1596458e-20 -15.693565)
(150.20119 0 -15.326778)
(149.9071 3.8976114e-17 -14.949635)
(149.62413 0 -14.562961)
(149.35339 3.5290479e-17 -14.1676)
(149.09595 0 -13.764553)
(148.85278 0 -13.354899)
(148.62477 6.1153835e-17 -12.939827)
(148.41271 0 -12.520595)
(148.21724 -4.4401985e-16 -12.098533)
(148.03892 4.7595533e-16 -11.675019)
(147.87814 0 -11.251475)
(147.73515 -4.8044527e-17 -10.829298)
(147.61009 -6.419829e-16 -10.40996)
(147.50303 6.1206124e-16 -9.9950189)
(147.41377 -6.6722027e-16 -9.5856626)
(147.34197 7.1591944e-16 -9.1830393)
(147.28728 -7.5886312e-16 -8.7885032)
(147.24919 5.7912852e-16 -8.4031501)
(147.22712 -1.3823153e-16 -8.0279915)
(147.22043 6.5879523e-17 -7.6639834)
(147.22838 -1.2574466e-16 -7.311912)
(147.25023 1.2013027e-16 -6.9724718)
(147.28518 -4.5842758e-16 -6.6462271)
(147.33242 9.8460809e-16 -6.3336141)
(147.39114 -2.9723695e-20 -6.0349559)
(147.46053 -4.9868199e-16 -5.7504504)
(147.53979 1.9051416e-16 -5.4801883)
(147.62814 0 -5.22415)
(147.72482 0 -4.982218)
(147.82907 0 -4.754195)
(147.94025 -6.3391543e-16 -4.5397826)
(148.0577 4.5437212e-16 -4.3385986)
(148.18072 1.446671e-16 -4.1502036)
(148.30858 -1.3830222e-16 -3.9740846)
(148.44061 1.3213254e-16 -3.8096746)
(148.57611 -7.5789643e-16 -3.6563691)
(148.71442 9.6602086e-16 -3.5135244)
(148.85489 -1.0389951e-15 -3.380475)
(148.99691 9.9345251e-16 -3.2565277)
(149.13974 -2.1124153e-16 -3.1409853)
(149.28248 -6.0582356e-16 -3.0331009)
(149.42354 0 -2.932209)
(149.56117 -1.8476936e-16 -2.8374578)
(149.69227 1.7683524e-16 -2.7484392)
(149.8162 0 -2.6637661)
(149.92817 0 -2.5843055)
(150.03588 -1.5513506e-16 -2.5048424)
(150.11637 -2.9717136e-16 -2.4377409)
(150.21892 -2.8463263e-16 -2.3420459)
(150.19817 6.8248592e-17 -2.3373966)
(150.36173 -6.5441944e-17 -2.0857241)
(150.00838 2.5127676e-16 -2.4591769)
(150.46711 -6.0100228e-17 -1.4006522)
(149.5195 2.2698267e-16 -3.3183522)
(150.59771 1.3384112e-15 -26.804805)
(159.60881 -1.2143157e-15 -19.222832)
(155.43627 1.8246361e-17 -25.571559)
(157.47784 0 -20.300143)
(155.72346 1.6233324e-17 -24.04056)
(156.31453 1.0117628e-15 -21.02933)
(155.4303 -9.0077279e-16 -22.882798)
(155.46156 -5.5014405e-17 -21.310703)
(154.91255 0 -22.054914)
(154.71365 -7.9091689e-16 -21.245465)
(154.29443 6.9897128e-17 -21.422711)
(153.99891 2.1777931e-17 -20.957969)
(153.62501 6.3264743e-16 -20.87023)
(153.29082 0 -20.534865)
(152.93038 6.0868963e-16 -20.325678)
(152.58174 -1.1197545e-15 -20.022554)
(152.22545 1.0981957e-15 -19.751815)
(151.87346 -4.8905576e-16 -19.441652)
(151.52104 0 -19.131679)
(151.17232 2.944322e-17 -18.800114)
(150.82697 -8.9706503e-16 -18.458656)
(150.48699 1.705853e-15 -18.101257)
(150.15328 -1.6733768e-15 -17.731381)
(149.82733 8.6822105e-16 -17.34774)
(149.51039 -7.347821e-16 -16.95166)
(149.20381 6.9881245e-16 -16.543347)
(148.90888 0 -16.123763)
(148.62686 -5.9394017e-16 -15.693696)
(148.35896 6.0301392e-16 -15.254213)
(148.10629 7.1876056e-17 -14.806432)
(147.86987 6.8449558e-17 -14.351617)
(147.65063 -5.8627847e-16 -13.891118)
(147.44932 9.3055294e-16 -13.426381)
(147.26659 1.6559366e-19 -12.95891)
(147.10292 -9.008945e-16 -12.490266)
(146.95863 5.3656697e-16 -12.022034)
(146.83387 0 -11.555804)
(146.72865 3.8987633e-16 -11.093169)
(146.64281 -4.6451576e-16 -10.635625)
(146.57606 0 -10.184733)
(146.52803 -6.7540828e-16 -9.742028)
(146.49802 8.0611525e-17 -9.3086109)
(146.4854 5.3708243e-16 -8.8856681)
(146.4894 0 -8.4743816)
(146.50915 1.3952743e-16 -8.0756481)
(146.54378 6.6585786e-16 -7.6903473)
(146.59232 -5.0807804e-16 -7.3191744)
(146.65382 1.2042543e-19 -6.9626943)
(146.72731 -4.6237915e-16 -6.6213514)
(146.81182 8.8237176e-16 -6.2954429)
(146.90641 -5.4439473e-20 -5.9851547)
(147.01017 -1.0041995e-16 -5.6905452)
(147.12222 -1.9162496e-16 -5.4115678)
(147.24173 1.8300746e-16 -5.1480706)
(147.36789 1.7466904e-16 -4.8998075)
(147.49995 6.6665371e-16 -4.6664566)
(147.63721 -6.3656983e-16 -4.4476128)
(147.77907 0 -4.2427927)
(147.92484 0 -4.0514533)
(148.07385 1.3850865e-16 -3.8729998)
(148.22546 5.2913955e-16 -3.7067833)
(148.37905 -2.5280904e-16 -3.5521273)
(148.53399 -4.8268302e-16 -3.4083238)
(148.68972 -2.304749e-16 -3.2746457)
(148.84568 2.202736e-16 -3.1503471)
(149.00125 4.2082079e-16 -3.0346686)
(149.15564 8.0407901e-16 -2.9268278)
(149.3075 -3.842314e-16 -2.826061)
(149.45503 3.6708223e-16 -2.7315484)
(149.59561 -7.0180887e-16 -2.6426301)
(149.7275 -3.3535159e-16 -2.5583153)
(149.84804 3.2069396e-16 -2.4782452)
(149.95964 1.5328429e-16 -2.4002936)
(150.0521 1.4659893e-16 -2.327893)
(150.14759 -2.804621e-16 -2.2429275)
(150.1583 1.3419926e-16 -2.2094685)
(150.28343 1.2843335e-16 -2.0093917)
(150.00129 -4.9216593e-16 -2.2838006)
(150.38956 2.9418762e-16 -1.3589051)
(149.49077 0 -3.0951298)
(149.51051 2.1548396e-17 -28.715388)
(158.42039 -1.1967187e-15 -20.862771)
(154.18082 3.6541961e-17 -27.391683)
(156.28936 1.111628e-15 -21.96994)
(154.4596 -1.0573177e-15 -25.755055)
(155.05974 1.0286669e-15 -22.689142)
(154.13901 -5.9124024e-17 -24.513356)
(154.15595 2.7959719e-17 -22.927001)
(153.5845 0 -23.616841)
(153.36483 8.0484379e-16 -22.79617)
(152.92744 -8.5826573e-16 -22.917916)
(152.61142 0 -22.431459)
(152.22078 7.3009092e-16 -22.292424)
(151.86857 -6.5188544e-16 -21.924065)
(151.49306 6.193782e-16 -21.665903)
(151.12964 -6.2457277e-16 -21.321288)
(150.76099 4.8889883e-16 -21.001172)
(150.39805 -1.0616032e-15 -20.643603)
(150.03707 5.0429489e-16 -20.282257)
(149.68196 -4.7967787e-16 -19.89908)
(149.33285 5.1281378e-16 -19.503813)
(148.99182 -5.4261973e-17 -19.091783)
(148.66002 -5.1605708e-17 -18.665987)
(148.33908 -4.8965724e-17 -18.225733)
(148.03039 0 -17.772406)
(147.73543 4.4321177e-17 -17.306589)
(147.45554 6.7573062e-16 -16.829486)
(147.19202 -7.2303242e-16 -16.342217)
(146.94607 5.3548401e-16 -15.846147)
(146.71874 -1.4538475e-16 -15.342718)
(146.51096 -6.2368455e-16 -14.833498)
(146.32349 -1.4721706e-19 -14.320136)
(146.15692 -5.0284728e-16 -13.804354)
(146.01164 4.7871714e-16 -13.287914)
(145.88789 1.1412404e-16 -12.772601)
(145.78568 -1.0848443e-16 -12.260192)
(145.70485 0 -11.752437)
(145.64507 -3.9419816e-16 -11.251029)
(145.60585 4.6934598e-16 -10.757588)
(145.58652 -7.1572963e-16 -10.273584)
(145.5863 8.5266934e-16 -9.8006126)
(145.60436 -1.6238565e-16 -9.3398976)
(145.63962 7.7431147e-16 -8.8923589)
(145.69107 -1.3288404e-15 -8.4591509)
(145.75754 -1.4078881e-16 -8.0410704)
(145.83791 4.0263866e-16 -7.6388184)
(145.93102 0 -7.2529594)
(146.03573 1.2217327e-16 -6.8838778)
(146.1509 0 -6.5318511)
(146.27545 -2.2196216e-16 -6.1970013)
(146.40834 0 -5.8793421)
(146.54858 -4.0362323e-16 -5.5787651)
(146.69525 1.925594e-16 -5.2950627)
(146.84747 -3.6722511e-16 -5.0279314)
(147.00446 -1.7509884e-16 -4.7769841)
(147.16544 0 -4.5417613)
(147.32976 0 -4.3217447)
(147.49682 0 -4.1163449)
(147.66602 -5.8048848e-16 -3.9249164)
(147.83673 2.7719633e-16 -3.7467804)
(148.00838 1.3765011e-19 -3.5812111)
(148.18041 5.0460256e-16 -3.4274642)
(148.35227 0 -3.2847728)
(148.52347 6.8923791e-16 -3.1523562)
(148.69352 -6.579482e-16 -3.0294215)
(148.86191 -2.0918327e-16 -2.9151618)
(149.02796 -1.9966747e-16 -2.8087552)
(149.19053 7.6286826e-16 -2.7093769)
(149.34791 -3.6416696e-16 -2.6161876)
(149.4977 -5.2132982e-16 -2.5284181)
(149.63774 1.8978035e-19 -2.4451588)
(149.76606 1.8447618e-19 -2.3656512)
(149.8827 1.5130313e-15 -2.2888791)
(149.9841 -5.7807919e-16 -2.213933)
(150.07659 5.5203929e-16 -2.1360684)
(150.11134 0 -2.0810037)
(150.20745 5.0387982e-16 -1.9233383)
(149.98389 -4.8215373e-16 -2.110648)
(150.31359 0 -1.3097429)
(149.45259 2.1369647e-16 -2.8773044)
(148.23999 1.375724e-15 -30.661816)
(157.11622 -2.5109932e-15 -22.539288)
(152.73793 -3.8299536e-17 -29.227847)
(154.90659 -7.2419942e-19 -23.670001)
(153.00498 1.0738318e-15 -27.473758)
(153.60635 -1.0147598e-15 -24.370997)
(152.6517 1.9531649e-15 -26.142619)
(152.64862 -9.1014212e-16 -24.552366)
(152.05541 0 -25.172011)
(151.8115 0 -24.342282)
(151.35555 9.698294e-17 -24.398409)
(151.01718 -7.3617284e-16 -23.887128)
(150.6093 7.4176278e-16 -23.689331)
(150.23844 0 -23.282306)
(149.8479 0 -22.968393)
(149.47017 5.9772066e-16 -22.57558)
(149.09017 -4.9646276e-16 -22.199239)
(148.71792 0 -21.787197)
(148.35063 5.1243527e-16 -21.367493)
(147.99207 -4.8665312e-16 -20.925628)
(147.64282 -5.7765739e-17 -20.469643)
(147.30506 5.491331e-17 -19.996182)
(146.9802 5.2209309e-17 -19.507943)
(146.66999 0 -19.004858)
(146.37596 0 -18.488477)
(146.09963 0 -17.959827)
(145.84237 0 -17.420434)
(145.60546 0 -16.871809)
(145.38999 6.9685321e-16 -16.315678)
(145.19688 -5.1567385e-16 -15.753845)
(145.02686 0 -15.188217)
(144.88044 6.0052505e-16 -14.620761)
(144.75791 1.3362503e-19 -14.053478)
(144.65934 1.0677245e-19 -13.488377)
(144.5846 -9.2062988e-16 -12.927442)
(144.53332 4.3835649e-16 -12.372603)
(144.50494 5.2191661e-16 -11.825719)
(144.49872 -3.9750016e-16 -11.288535)
(144.51377 -3.7858381e-16 -10.762673)
(144.54902 -3.6057473e-16 -10.249645)
(144.60329 -1.7156767e-16 -9.7507621)
(144.67548 6.5443873e-16 -9.2672803)
(144.76411 -1.5598415e-16 -8.8000782)
(144.86791 -4.4559169e-16 -8.3499879)
(144.98546 1.4151496e-16 -7.9177058)
(145.11542 6.7440296e-16 -7.5036837)
(145.25645 -2.5718188e-16 -7.1082959)
(145.40723 2.4505004e-16 -6.7317084)
(145.56653 -2.3344163e-16 -6.3739865)
(145.73318 2.2247301e-16 -6.0350469)
(145.90607 0 -5.7147019)
(146.08419 -1.5252537e-19 -5.4126552)
(146.26659 -1.9275054e-16 -5.1285219)
(146.45242 1.8376701e-16 -4.8618354)
(146.64091 -3.5061899e-16 -4.6120598)
(146.83134 0 -4.3785971)
(147.02309 -3.187168e-16 -4.1608106)
(147.21561 3.0369199e-16 -3.9580048)
(147.40838 -1.1589997e-15 -3.7694423)
(147.60087 5.5280711e-16 -3.5943607)
(147.79256 5.2692181e-16 -3.4319665)
(147.98299 -2.5131906e-16 -3.2814539)
(148.1717 4.7920016e-16 -3.1420064)
(148.35825 -9.1410905e-16 -3.0127989)
(148.54224 -4.357922e-16 -2.8930001)
(148.72327 8.3143385e-16 -2.7817677)
(148.90076 9.535357e-20 -2.6782471)
(149.07378 3.7807701e-16 -2.5815723)
(149.24076 3.6053155e-16 -2.4908774)
(149.39947 0 -2.405331)
(149.54756 9.8342966e-16 -2.3240129)
(149.6831 -1.8763835e-15 -2.2461103)
(149.80526 9.2341295e-20 -2.1706909)
(149.91349 8.5340209e-16 -2.0954157)
(150.00565 -1.356826e-15 -2.0220022)
(150.05895 1.9908119e-19 -1.951956)
(150.13291 2.4706761e-16 -1.828263)
(149.96095 -4.7151049e-16 -1.9397305)
(150.23873 1.1248388e-15 -1.2549431)
(149.40983 -2.0751053e-16 -2.6605628)
(146.77301 0 -32.642475)
(155.62485 -1.2766707e-15 -24.242167)
(151.09975 1.2243322e-15 -31.069887)
(153.31925 3.5967498e-17 -25.394492)
(151.34911 1.1255285e-15 -29.188383)
(151.94225 -3.1436792e-17 -26.067055)
(150.95577 -9.7654796e-16 -27.762073)
(150.92607 8.6754433e-16 -26.176999)
(150.31122 -8.7637486e-16 -26.710602)
(150.03922 -8.8332519e-16 -25.871994)
(149.56392 -4.312513e-19 -25.85219)
(149.20135 7.4705732e-16 -25.311019)
(148.77566 1.2814797e-19 -25.046304)
(148.38581 -6.7304949e-16 -24.593244)
(147.98069 6.3834813e-16 -24.215724)
(147.58973 7.5905175e-17 -23.766519)
(147.20023 6.4792742e-16 -23.325888)
(146.82131 -5.4649487e-16 -22.851001)
(146.45115 -5.1945827e-16 -22.364797)
(146.09345 4.3137894e-16 -21.856083)
(145.74921 -4.6887167e-16 -21.331525)
(145.42074 4.4526552e-16 -20.78904)
(145.10967 -4.2343532e-16 -20.231218)
(144.81782 3.0148534e-16 -19.658655)
(144.54681 0 -19.073205)
(144.29814 7.2744283e-16 -18.476396)
(144.07313 -6.9133667e-16 -17.870167)
(143.8729 -6.5768805e-16 -17.256481)
(143.69834 -2.2929755e-19 -16.637473)
(143.5501 5.9467494e-16 -16.015341)
(143.42859 5.6582767e-16 -15.392344)
(143.33395 -5.3813972e-16 -14.770758)
(143.26605 1.2817819e-16 -14.152844)
(143.22452 -4.8724045e-16 -13.540814)
(143.20874 8.1146789e-16 -12.936793)
(143.21788 -4.4121571e-16 -12.342803)
(143.25089 -7.3503443e-16 -11.760723)
(143.30656 3.9974911e-16 -11.192269)
(143.38355 0 -10.638999)
(143.48037 -1.8131302e-16 -10.102288)
(143.59553 -6.8987397e-16 -9.5831959)
(143.72739 6.5703081e-16 -9.0828622)
(143.87431 7.8188691e-16 -8.6020039)
(144.03471 -7.450094e-16 -8.1410926)
(144.207 -2.8352482e-16 -7.7006374)
(144.38962 6.7608766e-16 -7.2808119)
(144.5811 2.5735845e-16 -6.8817341)
(144.78002 2.454369e-16 -6.5033195)
(144.98509 2.3375485e-16 -6.1453842)
(145.19509 -1.4066363e-19 -5.8076145)
(145.40891 -6.3665896e-16 -5.4896037)
(145.62553 6.0634988e-16 -5.1908543)
(145.84407 3.8508164e-16 -4.910797)
(146.0637 -7.3436868e-16 -4.648799)
(146.28372 3.4973002e-16 -4.4041759)
(146.50349 -6.666064e-16 -4.1761974)
(146.72246 1.5882527e-15 -3.9641098)
(146.94016 -3.0290763e-16 -3.7671208)
(147.15617 -2.8857423e-16 -3.5844132)
(147.37004 -2.7491489e-16 -3.4151474)
(147.58136 0 -3.2584742)
(147.78976 -7.4922257e-16 -3.1135373)
(147.99487 -4.7576253e-16 -2.9794811)
(148.19633 1.3608083e-15 -2.8554473)
(148.39384 4.3214992e-16 -2.7405773)
(148.58705 -4.1181325e-16 -2.6340054)
(148.77553 -1.5696414e-15 -2.5348546)
(148.95852 -3.7372984e-16 -2.4422334)
(149.13464 3.5640982e-16 -2.3552542)
(149.30181 0 -2.273039)
(149.45763 9.7007457e-16 -2.1946601)
(149.59994 -6.1632814e-16 -2.1193352)
(149.7277 8.8068942e-16 -2.0458364)
(149.84118 -8.3894181e-16 -1.9720187)
(149.93482 1.6561707e-19 -1.901343)
(150.00206 5.0787815e-16 -1.8222709)
(150.05943 2.4187968e-16 -1.7251561)
(149.93364 0 -1.7716386)
(150.16342 -2.1952394e-16 -1.1964513)
(149.37048 0 -2.4481674)
(145.09932 -1.4361354e-15 -34.656243)
(153.9229 -4.0527172e-17 -25.971)
(149.2516 -3.890731e-17 -32.918272)
(151.51144 -3.6468287e-17 -27.142714)
(149.47603 -3.4575515e-17 -30.895835)
(150.05026 -1.047957e-15 -27.772689)
(149.03387 1.0537042e-15 -29.365708)
(148.97048 5.8642316e-17 -27.79213)
(148.33379 9.4601577e-16 -28.223214)
(148.02988 -7.3767769e-16 -27.372833)
(147.5344 -9.9950721e-17 -27.265973)
(147.14614 8.0589157e-16 -26.687168)
(146.7025 -7.635807e-16 -26.346094)
(146.29403 0 -25.837434)
(145.87563 0 -25.386894)
(145.47368 -6.9102765e-16 -24.871274)
(145.07785 4.3694384e-16 -24.356742)
(144.69648 0 -23.80913)
(144.32871 -5.9136577e-16 -23.246972)
(143.97816 9.9756408e-16 -22.662099)
(143.64626 3.0850188e-19 -22.060196)
(143.33541 -7.8731334e-16 -21.440406)
(143.04737 4.2735055e-16 -20.805435)
(142.78402 -7.1106796e-16 -20.156599)
(142.5469 8.68159e-16 -19.496193)
(142.3374 -9.1821258e-17 -18.826318)
(142.15663 0 -18.149404)
(142.00542 0 -17.467909)
(141.8843 4.7202054e-16 -16.784408)
(141.7935 1.401176e-19 -16.101492)
(141.73293 1.4256391e-16 -15.421752)
(141.70222 -1.0820713e-15 -14.747731)
(141.70068 5.1480684e-16 -14.081882)
(141.72736 -4.8931559e-16 -13.426539)
(141.78107 5.819073e-16 -12.783877)
(141.86042 -4.4270865e-16 -12.155894)
(141.96381 6.3159325e-16 -11.544382)
(142.08954 0 -10.950915)
(142.23577 0 -10.37686)
(142.40062 3.6291004e-16 -9.8233222)
(142.58222 -1.7284329e-16 -9.2911629)
(142.77852 -8.219576e-16 -8.7811647)
(142.98777 -1.5640629e-16 -8.2937118)
(143.20811 1.0430269e-15 -7.828993)
(143.43778 2.8376063e-16 -7.3872104)
(143.67513 -1.0805256e-15 -6.9682358)
(143.91859 0 -6.5718761)
(144.16672 -7.345767e-16 -6.1977705)
(144.41821 4.6659773e-16 -5.8454634)
(144.67186 2.2223332e-16 -5.5143977)
(144.92663 4.2289526e-16 -5.2039406)
(145.18155 -8.0601675e-16 -4.9133929)
(145.43581 7.674902e-16 -4.6420044)
(145.68869 -1.0970091e-15 -4.3889828)
(145.93958 3.4829191e-16 -4.1535048)
(146.18793 3.3171804e-16 -3.9347206)
(146.43331 0 -3.7317707)
(146.67534 0 -3.5437806)
(146.91373 5.73121e-16 -3.3698659)
(147.14813 5.4579476e-16 -3.209126)
(147.37824 -5.2018899e-16 -3.0606684)
(147.60379 4.9493593e-16 -2.9236009)
(147.8245 -4.7154894e-16 -2.7970417)
(148.04012 4.4890115e-16 -2.6801118)
(148.25039 -1.2830554e-15 -2.571938)
(148.45509 -8.1428647e-16 -2.4716436)
(148.65387 1.1632247e-15 -2.3783412)
(148.84615 3.6908972e-16 -2.2911296)
(149.03075 0 -2.2091068)
(149.20579 6.6892452e-16 -2.131361)
(149.36885 -6.3693327e-16 -2.0569852)
(149.51751 0 -1.9851908)
(149.65069 -5.7703532e-16 -1.9144683)
(149.76824 -5.4920627e-16 -1.8435447)
(149.86453 0 -1.7747509)
(149.94179 0 -1.6918975)
(149.98745 0 -1.6148103)
(149.90366 -4.5086842e-16 -1.6074534)
(150.08953 0 -1.1353844)
(149.33139 -7.7463044e-16 -2.2380061)
(143.19986 -4.5603298e-17 -36.702348)
(151.99249 0 -27.723839)
(147.17295 -1.2241856e-15 -34.768095)
(149.46134 1.2242621e-15 -28.910226)
(147.36456 0 -32.588616)
(147.90829 -1.0645632e-15 -29.479068)
(146.86395 9.4372862e-16 -30.943604)
(146.75971 0 -29.384715)
(146.10089 8.4690498e-16 -29.696375)
(145.76166 -9.0844368e-16 -28.827931)
(145.24543 5.0572298e-17 -28.62196)
(144.83076 7.2060749e-16 -27.994876)
(144.36985 -9.0600608e-17 -27.566436)
(143.94437 -6.0372413e-16 -26.990219)
(143.51546 5.7306723e-16 -26.455425)
(143.10652 7.8291334e-17 -25.86138)
(142.70959 -5.1544934e-16 -25.261635)
(142.33231 0 -24.629854)
(141.97471 6.6190194e-17 -23.980985)
(141.64037 1.889239e-16 -23.309623)
(141.33107 -1.1969039e-16 -22.62088)
(141.04919 -2.2680088e-16 -21.91513)
(140.79656 0 -21.195422)
(140.5749 1.0239649e-16 -20.463867)
(140.38557 -9.6883365e-17 -19.72332)
(140.22964 9.2009265e-17 -18.976522)
(140.10782 0 -18.226444)
(140.02043 -1.66569e-16 -17.476052)
(139.96747 -4.7420101e-16 -16.728344)
(139.94852 4.4998703e-16 -15.986258)
(139.96284 -1.4241758e-16 -15.252645)
(140.00936 0 -14.530213)
(140.08669 3.8661292e-16 -13.821495)
(140.19322 -6.1245285e-16 -13.128811)
(140.32709 1.1683409e-16 -12.454244)