/*--------------------------------*- C++ -*----------------------------------*\
| =========                 |                                                 |
| \\      /  F ield         | OpenFOAM: The Open Source CFD Toolbox           |
|  \\    /   O peration     | Version:  2.4.0                                 |
|   \\  /    A nd           | Web:      www.OpenFOAM.org                      |
|    \\/     M anipulation  |                                                 |
\*---------------------------------------------------------------------------*/
FoamFile
{
    version     2.0;
    format      ascii;
    class       volVectorField;
    location    "10000";
    object      U;
}
// * * * * * * * * * * * * * * * * * * * * * * * * * * * * * * * * * * * * * //

dimensions      [0 1 -1 0 0 0 0];

internalField   nonuniform List<vector> 
18579
(
(0.00106696 0.988169 0)
(0.000891099 0.987089 0)
(0.000734655 0.985939 0)
(0.000614821 0.984984 5.69237e-23)
(0.000514946 0.984141 -1.0639e-24)
(0.000431174 0.983372 -2.52913e-24)
(0.000362594 0.982666 -3.8226e-24)
(0.000307435 0.982019 -4.95163e-23)
(0.000263477 0.98142 0)
(0.000228792 0.980862 0)
(0.000201573 0.980338 0)
(0.000180357 0.979842 1.91014e-23)
(0.000164055 0.979369 -7.4775e-24)
(0.000151607 0.978913 -7.76386e-24)
(0.000142211 0.978471 -3.86105e-24)
(0.000135431 0.978039 1.24319e-23)
(0.00013073 0.977614 -3.33367e-23)
(0.000127662 0.977194 -8.67365e-24)
(0.000126065 0.976775 -8.87391e-24)
(0.0001256 0.976356 7.96111e-23)
(0.000126131 0.975935 -4.75099e-23)
(0.000127613 0.975509 6.62082e-23)
(0.000129847 0.975078 -5.63214e-23)
(0.000132722 0.97464 0)
(0.000136231 0.974193 0)
(0.000140284 0.973735 0)
(0.00014489 0.973267 -1.50043e-23)
(0.000149953 0.972786 2.54845e-22)
(0.000155463 0.972291 -3.9335e-22)
(0.000161316 0.971783 1.38502e-22)
(0.000167603 0.971258 3.23115e-22)
(0.000174069 0.970718 -1.49558e-22)
(0.000180829 0.970162 -1.73574e-22)
(0.000187812 0.969589 0)
(0.000194909 0.968999 -3.9671e-22)
(0.000201941 0.968393 4.23696e-22)
(0.000208883 0.967769 4.78845e-22)
(0.000215602 0.967129 2.89535e-23)
(0.000221862 0.966477 -1.04562e-21)
(0.000227522 0.96581 -3.09541e-23)
(0.000232213 0.965132 -3.2015e-23)
(0.000235811 0.964445 -3.31362e-23)
(0.000237855 0.963755 6.33994e-22)
(0.000237881 0.963062 0)
(0.000235373 0.962375 4.65388e-23)
(0.000229901 0.961698 0)
(0.000220532 0.961039 0)
(0.000206574 0.960408 8.56188e-22)
(0.000187153 0.959814 -8.56234e-22)
(0.000161096 0.959269 -5.84485e-23)
(0.000127281 0.958791 9.79662e-22)
(8.45205e-05 0.958391 -9.79697e-22)
(3.12955e-05 0.958091 -1.31694e-22)
(-3.36593e-05 0.957911 -1.10419e-21)
(-0.000111725 0.957871 2.24811e-21)
(-0.000204062 0.957999 -1.14393e-21)
(-0.000311273 0.958319 -1.14139e-21)
(-0.000432865 0.95886 -1.27722e-21)
(-0.000567581 0.959644 2.57123e-21)
(-0.000712509 0.960697 0)
(-0.00086299 0.962037 1.58968e-22)
(-0.00101308 0.963669 0)
(-0.00115761 0.965596 1.57359e-22)
(-0.00129216 0.967804 0)
(-0.00142546 0.970276 -2.37893e-21)
(-0.00155254 0.972993 1.06147e-22)
(-0.00166163 0.975919 2.41524e-21)
(-0.0017359 0.979 -2.03406e-21)
(-0.00176017 0.98216 2.09091e-21)
(-0.00172196 0.9853 1.62708e-21)
(-0.00161299 0.988308 -1.57689e-21)
(-0.00143056 0.99106 -1.01669e-21)
(-0.00117796 0.993434 9.83624e-22)
(-0.000864789 0.995313 0)
(-0.000506284 0.996602 -8.30317e-23)
(-0.000122093 0.997234 8.30308e-23)
(0.000265502 0.997177 0)
(0.000635195 0.996433 1.17958e-21)
(0.000967962 0.995043 -1.22041e-21)
(0.00124803 0.993076 -5.01972e-23)
(0.001465 0.990623 2.09942e-21)
(0.00161471 0.987792 -2.09961e-21)
(0.00169922 0.984689 -1.45777e-22)
(0.00172607 0.981421 2.72756e-21)
(0.00170706 0.978081 1.41333e-22)
(0.00165834 0.974747 -2.7826e-21)
(0.00159221 0.971481 0)
(0.00151885 0.968326 -2.92868e-21)
(0.00142586 0.965323 -2.61644e-23)
(0.00131309 0.962514 6.46979e-21)
(0.00118472 0.95993 -3.14199e-21)
(0.0010476 0.957596 1.54351e-21)
(0.000908745 0.95552 -2.56563e-23)
(0.000773876 0.9537 -2.91332e-21)
(0.000646583 0.952129 1.48646e-21)
(0.000529315 0.950796 -7.04969e-22)
(0.00042242 0.949682 7.04972e-22)
(0.000326541 0.948772 -3.30471e-22)
(0.000242231 0.948048 3.30464e-22)
(0.000168535 0.947494 0)
(0.000104719 0.947089 1.47643e-22)
(5.03084e-05 0.94682 -1.4764e-22)
(4.5123e-06 0.946667 0)
(-3.40391e-05 0.946619 -1.30079e-22)
(-6.71403e-05 0.94666 2.57239e-22)
(-9.60267e-05 0.946772 -3.56156e-21)
(-0.000119691 0.946951 3.80406e-21)
(-0.000137306 0.947193 0)
(-0.000150751 0.94749 0)
(-0.000161421 0.947829 0)
(-0.000169598 0.948202 0)
(-0.000175445 0.948604 2.8337e-21)
(-0.000179468 0.949028 -2.83364e-21)
(-0.000181951 0.94947 0)
(-0.000182984 0.949927 2.45386e-21)
(-0.000182818 0.950392 -1.30781e-22)
(-0.000181799 0.950866 -1.26542e-22)
(-0.00018007 0.951345 -2.1567e-21)
(-0.000177841 0.951824 3.18136e-23)
(-0.000175134 0.952303 0)
(-0.000171871 0.952782 -2.82399e-23)
(-0.000167819 0.953259 -7.9078e-22)
(-0.000162731 0.95374 7.90805e-22)
(-0.000157546 0.954207 -4.29628e-23)
(-0.000153113 0.954661 6.46527e-23)
(-0.000148875 0.955111 3.68755e-23)
(-0.000144677 0.955552 -3.68752e-23)
(-0.000140623 0.955985 0)
(-0.000136552 0.956411 0)
(-0.000132529 0.956829 -2.55801e-23)
(-0.000129782 0.95724 -5.12187e-25)
(-0.000128604 0.957638 0)
(-0.000127622 0.958029 0)
(-0.000126446 0.958419 -4.91146e-22)
(-0.000126145 0.958812 4.91117e-22)
(-0.000127385 0.959202 0)
(-0.000130476 0.959593 0)
(-0.000135781 0.959985 0)
(-0.000143811 0.960382 0)
(-0.000155467 0.96079 0)
(-0.000171586 0.961211 2.68716e-24)
(-0.000193411 0.96165 2.97305e-23)
(-0.000222474 0.962114 2.73696e-23)
(-0.000260485 0.962609 2.43699e-23)
(-0.000309372 0.963142 -8.6409e-23)
(-0.000370972 0.963721 0)
(-0.000446281 0.964357 0)
(-0.000537746 0.965078 1.41123e-22)
(-0.000659152 0.965949 -8.4897e-23)
(-0.00080031 0.966779 -9.29744e-23)
(0.00494126 0.957913 -7.29468e-23)
(0.0047642 0.956351 4.55034e-23)
(0.00447878 0.95458 0)
(0.00416189 0.95298 0)
(0.00385126 0.951459 0)
(0.00356332 0.949978 0)
(0.00330492 0.94854 -4.20119e-24)
(0.00307864 0.947148 0)
(0.00288383 0.945801 0)
(0.00271891 0.944493 0)
(0.00258108 0.943224 0)
(0.00246766 0.941986 0)
(0.00237614 0.940774 4.64567e-24)
(0.00230388 0.939584 -4.6459e-24)
(0.00224888 0.938411 0)
(0.00220927 0.937249 -2.60181e-23)
(0.00218331 0.936096 -8.95397e-24)
(0.00216971 0.934944 3.87905e-23)
(0.00216733 0.93379 -7.23266e-24)
(0.00217506 0.932631 7.39597e-23)
(0.0021922 0.931461 -1.44408e-22)
(0.00221789 0.930278 -1.02347e-23)
(0.00225158 0.929077 7.69356e-23)
(0.00229254 0.927857 1.35854e-23)
(0.00234047 0.926612 0)
(0.00239471 0.92534 0)
(0.00245492 0.924038 1.58528e-22)
(0.00252046 0.922704 -1.23315e-22)
(0.00259092 0.921335 0)
(0.00266562 0.919928 0)
(0.00274404 0.918483 0)
(0.00282534 0.916997 4.36617e-22)
(0.00290893 0.915469 -4.11005e-22)
(0.00299351 0.9139 4.08235e-22)
(0.00307833 0.912286 -2.4742e-22)
(0.00316169 0.910631 2.77463e-22)
(0.00324241 0.908932 6.53159e-23)
(0.00331843 0.907195 -5.55935e-22)
(0.00338765 0.90542 6.20038e-22)
(0.00344767 0.903611 -6.60793e-22)
(0.0034955 0.901774 6.87943e-22)
(0.00352793 0.899914 -1.3663e-21)
(0.00354104 0.898039 7.23409e-22)
(0.00353011 0.896162 -8.96019e-22)
(0.00349047 0.89429 -8.73652e-23)
(0.00341612 0.89244 7.80534e-22)
(0.00330054 0.890627 -9.12917e-22)
(0.00313637 0.888873 7.94446e-22)
(0.00291573 0.887199 0)
(0.0026295 0.885634 6.21249e-23)
(0.00226831 0.884205 1.07296e-21)
(0.00182216 0.882947 -1.21152e-21)
(0.00128054 0.881901 -3.30855e-24)
(0.000633235 0.881107 -1.4795e-22)
(-0.000129463 0.88061 0)
(-0.00101545 0.880465 1.56474e-22)
(-0.00202981 0.880722 -1.51857e-21)
(-0.00317197 0.881437 2.5796e-21)
(-0.0044342 0.882666 -2.6992e-21)
(-0.00579864 0.884461 1.3157e-21)
(-0.00723541 0.886867 -5.04961e-22)
(-0.00870003 0.889903 0)
(-0.0101364 0.893572 2.39551e-21)
(-0.0114788 0.897831 -2.88598e-21)
(-0.0127533 0.902657 2.30403e-21)
(-0.0138394 0.90805 -4.64135e-21)
(-0.0146864 0.91395 2.18549e-21)
(-0.0152182 0.920251 1.92048e-21)
(-0.01534 0.92678 -1.98061e-21)
(-0.0149596 0.933319 -1.53691e-22)
(-0.0140112 0.939622 0)
(-0.0124678 0.945417 -8.29822e-22)
(-0.0103473 0.950429 3.28041e-22)
(-0.00771674 0.954401 5.47771e-22)
(-0.00468963 0.957115 9.74587e-26)
(-0.0014161 0.958413 0)
(0.00192802 0.958219 8.71586e-22)
(0.0051713 0.956541 3.277e-22)
(0.00815905 0.953467 3.50498e-22)
(0.0107626 0.949149 -1.43087e-21)
(0.0128956 0.943792 0)
(0.0145169 0.937629 0)
(0.0156291 0.930901 1.54799e-22)
(0.0162736 0.923843 -3.18642e-22)
(0.0165078 0.91667 0)
(0.0163827 0.909546 2.62061e-22)
(0.0159267 0.902597 -1.46799e-21)
(0.0152928 0.895869 3.14756e-21)
(0.0144268 0.88943 -1.69123e-21)
(0.0133782 0.883397 -2.00349e-22)
(0.0122041 0.87785 1.90967e-22)
(0.0109626 0.872835 0)
(0.00970308 0.868366 1.50922e-21)
(0.00846398 0.864437 -1.421e-21)
(0.00727238 0.861029 -5.84111e-21)
(0.00614627 0.858094 7.27292e-21)
(0.00509538 0.855628 0)
(0.00412887 0.853609 -1.08262e-20)
(0.00324931 0.852007 1.08248e-20)
(0.00245518 0.850775 1.02577e-20)
(0.00174346 0.849876 -1.02557e-20)
(0.0011101 0.849276 0)
(0.00055001 0.848946 9.15693e-21)
(5.7679e-05 0.848857 -9.15821e-21)
(-0.000372673 0.848979 -1.35175e-22)
(-0.000747068 0.849274 -5.18827e-22)
(-0.00107045 0.849727 -3.90132e-21)
(-0.00134668 0.850335 3.96057e-21)
(-0.00158095 0.851076 0)
(-0.00177792 0.851923 3.36468e-21)
(-0.00194197 0.852858 -1.53466e-22)
(-0.00207654 0.853871 -1.49837e-22)
(-0.00218519 0.854946 -3.06788e-21)
(-0.00227099 0.856071 0)
(-0.00233683 0.857236 -4.21482e-23)
(-0.00238507 0.858427 -1.6586e-22)
(-0.00241785 0.859643 0)
(-0.00243699 0.860881 2.33076e-21)
(-0.00244459 0.862128 -1.58042e-22)
(-0.00244205 0.863381 -2.16883e-21)
(-0.00243069 0.864636 3.00186e-23)
(-0.00241185 0.865889 0)
(-0.00238671 0.867142 0)
(-0.00235675 0.868382 0)
(-0.00232362 0.8696 -2.30389e-23)
(-0.00228796 0.870804 0)
(-0.00225081 0.871991 0)
(-0.002213 0.873162 2.37233e-21)
(-0.00217554 0.874315 -4.5527e-21)
(-0.00213916 0.87545 2.19737e-21)
(-0.00210525 0.876569 -8.92803e-22)
(-0.00207514 0.877662 9.05123e-22)
(-0.00204955 0.878732 0)
(-0.00202866 0.879799 0)
(-0.00201418 0.88086 5.58614e-22)
(-0.00200788 0.881912 -5.58584e-22)
(-0.00201173 0.882956 0)
(-0.00202777 0.883995 -1.60874e-22)
(-0.00205817 0.885037 1.6087e-22)
(-0.00210576 0.886083 -8.7947e-23)
(-0.00217346 0.887139 3.43193e-23)
(-0.00226451 0.888209 5.36202e-23)
(-0.00238253 0.889298 9.90548e-24)
(-0.00253044 0.890412 -9.90466e-24)
(-0.00271053 0.891549 -6.19346e-23)
(-0.00292254 0.892717 2.43711e-23)
(-0.00316323 0.893915 7.23637e-23)
(-0.00342045 0.895175 -2.82435e-23)
(-0.00366306 0.896568 4.84931e-24)
(-0.00382025 0.897815 5.34681e-24)
(0.00945523 0.926097 0)
(0.00931807 0.924324 -5.39804e-23)
(0.00907073 0.922301 5.39932e-23)
(0.00876532 0.920433 -4.10542e-23)
(0.00843587 0.918605 4.10584e-23)
(0.00810407 0.916775 0)
(0.00778451 0.914946 -2.22737e-23)
(0.00748646 0.913129 2.64834e-23)
(0.00721611 0.911327 1.72253e-24)
(0.00697642 0.90954 0)
(0.00676898 0.907768 0)
(0.00659356 0.906011 0)
(0.00644991 0.904265 1.28767e-23)
(0.00633686 0.902527 -1.47984e-23)
(0.00625299 0.900793 0)
(0.00619703 0.899059 -4.39348e-23)
(0.00616739 0.897322 4.01161e-23)
(0.00616271 0.895577 0)
(0.00618173 0.893819 7.24478e-24)
(0.00622312 0.892044 0)
(0.00628574 0.890246 -9.89104e-23)
(0.00636854 0.888422 8.79314e-23)
(0.00647034 0.886568 0)
(0.00659018 0.884679 -1.36101e-23)
(0.00672714 0.882751 1.31125e-22)
(0.00688021 0.880778 -1.31137e-22)
(0.00704818 0.878758 0)
(0.00723007 0.876687 1.47335e-22)
(0.00742436 0.874564 -1.66683e-22)
(0.00762998 0.87238 0)
(0.00784496 0.870139 0)
(0.00806781 0.867833 1.54951e-24)
(0.00829624 0.865463 0)
(0.0085277 0.863028 -3.22782e-24)
(0.00875949 0.860526 0)
(0.00898839 0.857955 0)
(0.00921001 0.855319 -3.47314e-23)
(0.00942003 0.852619 0)
(0.00961324 0.849856 -3.25569e-22)
(0.00978327 0.847035 3.66431e-22)
(0.00992331 0.844163 -8.95907e-23)
(0.010025 0.841246 7.10847e-22)
(0.0100792 0.838292 -1.54886e-21)
(0.0100749 0.835316 8.92307e-22)
(0.0100003 0.83233 0)
(0.00984184 0.829349 5.45048e-23)
(0.00958458 0.826394 -9.46872e-22)
(0.00921133 0.823488 1.18879e-21)
(0.00870373 0.820659 0)
(0.00804169 0.817938 1.33046e-22)
(0.00720393 0.815359 -2.76248e-22)
(0.00616802 0.81296 -8.63267e-22)
(0.00491063 0.810789 9.92956e-22)
(0.00340862 0.808895 1.48404e-22)
(0.00164033 0.80733 -3.15178e-22)
(-0.00041349 0.806156 8.0405e-22)
(-0.00276662 0.805437 -1.45654e-21)
(-0.00542369 0.805239 -1.67546e-21)
(-0.00837409 0.805635 1.33591e-21)
(-0.0115829 0.806701 -3.08013e-21)
(-0.0149797 0.808517 3.29741e-22)
(-0.0184309 0.81117 2.73578e-21)
(-0.0216886 0.814788 0)
(-0.0239401 0.819235 3.18389e-22)
(-0.0273523 0.824802 2.47029e-21)
(-0.0306373 0.831438 -2.31913e-21)
(-0.033391 0.838612 2.0706e-21)
(-0.0351959 0.84641 -2.64126e-22)
(-0.0358843 0.854667 -2.8537e-22)
(-0.0352793 0.863128 -1.62856e-21)
(-0.0332391 0.871435 -4.67074e-23)
(-0.0296965 0.879178 0)
(-0.0246871 0.885919 2.59101e-23)
(-0.0183709 0.891228 -3.91467e-24)
(-0.0110329 0.894738 8.1259e-25)
(-0.00305056 0.896182 3.04782e-23)
(0.00511395 0.895453 8.64333e-22)
(0.0130118 0.892589 -9.20164e-22)
(0.0202462 0.887778 -1.55384e-21)
(0.0264841 0.881319 1.55394e-21)
(0.0315139 0.873559 -4.12009e-21)
(0.0352308 0.864875 4.12088e-21)
(0.0376172 0.855635 0)
(0.0387084 0.846134 3.13397e-22)
(0.0385563 0.836597 5.69113e-21)
(0.0375438 0.826952 -5.7141e-21)
(0.0360521 0.817943 0)
(0.0357456 0.80954 -3.0033e-21)
(0.0339541 0.801671 4.00321e-21)
(0.0315036 0.794551 2.12982e-20)
(0.0287038 0.788158 -2.76625e-20)
(0.0257569 0.782487 2.55724e-20)
(0.0227859 0.777519 -2.44193e-20)
(0.0198735 0.773214 -1.86059e-22)
(0.0170756 0.769528 -2.26089e-20)
(0.0144304 0.766396 2.08376e-20)
(0.0119633 0.763788 0)
(0.00968341 0.761725 1.68878e-22)
(0.00759316 0.760154 1.04002e-20)
(0.00569144 0.759014 -5.4336e-21)
(0.00397317 0.758269 -7.85436e-23)
(0.00243078 0.757881 -4.89154e-21)
(0.00105494 0.757813 4.57181e-21)
(-0.000165227 0.758037 -4.57188e-21)
(-0.00124148 0.758513 -3.98116e-21)
(-0.00218556 0.759204 3.99032e-21)
(-0.00300831 0.760097 3.93318e-21)
(-0.0037202 0.761184 -3.99245e-21)
(-0.00433184 0.76243 -3.62353e-21)
(-0.00485294 0.763807 2.05547e-22)
(-0.00529244 0.765299 3.47264e-21)
(-0.00565835 0.766888 0)
(-0.00595871 0.768557 -3.08594e-21)
(-0.00620037 0.770292 5.93681e-21)
(-0.00639014 0.772079 -2.8544e-21)
(-0.00653405 0.773899 2.5163e-22)
(-0.0066371 0.775751 0)
(-0.00670402 0.777628 2.33823e-21)
(-0.00673942 0.779521 -2.37554e-21)
(-0.00674739 0.78142 0)
(-0.00673199 0.783318 2.01502e-21)
(-0.00669662 0.785209 -2.077e-21)
(-0.00664471 0.787091 -1.78866e-21)
(-0.00657924 0.788958 1.78833e-21)
(-0.00650267 0.790802 0)
(-0.00641731 0.79263 0)
(-0.00632618 0.794431 0)
(-0.00623126 0.796208 0)
(-0.00613501 0.79796 0)
(-0.00603968 0.799685 1.05943e-21)
(-0.00594755 0.801383 -1.06086e-21)
(-0.00586102 0.803051 1.52298e-23)
(-0.0057819 0.804693 0)
(-0.00571277 0.806315 0)
(-0.00565646 0.807916 0)
(-0.0056155 0.809496 0)
(-0.00559264 0.811057 -2.35089e-22)
(-0.00559082 0.812602 2.3508e-22)
(-0.00561286 0.814137 0)
(-0.00566195 0.815661 0)
(-0.00574086 0.817179 0)
(-0.00585201 0.81869 0)
(-0.00599663 0.820203 1.81414e-23)
(-0.00617555 0.821712 -1.81387e-23)
(-0.00638676 0.823219 -6.31263e-25)
(-0.00662463 0.824718 -2.59613e-24)
(-0.00687821 0.826216 0)
(-0.00712957 0.827741 3.77111e-24)
(-0.0073462 0.829389 -4.86385e-24)
(-0.00747335 0.830849 4.62432e-25)
(0.0144589 0.894338 -7.93943e-23)
(0.0143574 0.892415 4.92173e-23)
(0.0141617 0.890221 4.53974e-23)
(0.0139056 0.888189 -4.54022e-23)
(0.0136148 0.886188 2.12405e-24)
(0.0133088 0.884162 2.28065e-23)
(0.0130028 0.882115 -3.62169e-24)
(0.012709 0.880053 -1.81806e-23)
(0.0124359 0.877981 -1.7249e-24)
(0.0121904 0.875897 2.98149e-26)
(0.0119766 0.873805 -8.21168e-24)
(0.0117975 0.871703 8.21247e-24)
(0.0116547 0.869592 1.92302e-24)
(0.0115495 0.867467 0)
(0.0114815 0.865329 0)
(0.0114512 0.863172 0)
(0.0114576 0.860995 -5.90359e-23)
(0.0115003 0.858793 6.74528e-23)
(0.0115781 0.856564 0)
(0.0116905 0.854301 0)
(0.0118361 0.852001 -1.10637e-24)
(0.0120141 0.849659 -1.34141e-23)
(0.0122233 0.847272 1.47513e-23)
(0.0124626 0.844834 -1.6124e-23)
(0.0127307 0.842339 1.75347e-23)
(0.0130263 0.839785 1.53873e-22)
(0.0133478 0.837166 -3.19812e-22)
(0.0136936 0.834479 -1.23537e-23)
(0.0140618 0.831718 1.78314e-22)
(0.0144499 0.82888 -2.29289e-22)
(0.0148558 0.825962 2.57841e-22)
(0.0152763 0.822959 -2.58673e-22)
(0.0157078 0.81987 -7.48877e-23)
(0.0161467 0.816692 6.3187e-22)
(0.0165881 0.813423 -3.28335e-22)
(0.0170267 0.81006 -7.18772e-23)
(0.0174559 0.806606 0)
(0.0178684 0.803059 7.99009e-23)
(0.0182557 0.79942 -6.80175e-22)
(0.0186082 0.795693 1.30675e-21)
(0.0189142 0.791881 -6.25188e-22)
(0.0191606 0.787991 0)
(0.0193328 0.784029 -8.24301e-22)
(0.019414 0.780005 9.31249e-22)
(0.0193851 0.77593 -1.11681e-22)
(0.019225 0.771818 0)
(0.0189099 0.767686 -9.81656e-22)
(0.0184137 0.763554 6.04755e-22)
(0.0177076 0.759445 -1.06385e-21)
(0.0167605 0.755387 1.20574e-21)
(0.015539 0.75141 -8.69701e-22)
(0.014008 0.747549 3.37859e-21)
(0.0121323 0.743846 -2.07865e-21)
(0.00987603 0.74034 -4.91281e-21)
(0.00720311 0.737087 5.38952e-21)
(0.00408146 0.734142 5.69814e-21)
(0.000483469 0.731564 -5.04106e-21)
(-0.00361258 0.729424 -5.30042e-21)
(-0.00821783 0.72779 5.64123e-21)
(-0.0133313 0.726746 6.58353e-21)
(-0.0189357 0.726385 -5.85753e-21)
(-0.0250016 0.72686 0)
(-0.0315065 0.728704 0)
(-0.0350616 0.750732 6.34894e-23)
(-0.0409228 0.753879 0)
(-0.0450846 0.760423 -3.97665e-22)
(-0.0480639 0.767738 -5.83821e-22)
(-0.0514279 0.776117 -1.15551e-21)
(-0.0535187 0.784979 2.96139e-23)
(-0.0537282 0.794236 5.76626e-23)
(-0.0516986 0.803614 4.76501e-22)
(-0.0471929 0.812661 2.77702e-22)
(-0.0401393 0.820804 4.30605e-22)
(-0.0306964 0.827413 -7.35566e-24)
(-0.0192899 0.831902 6.67689e-24)
(-0.00654673 0.833818 1.96788e-23)
(0.00660032 0.833 -1.39401e-23)
(0.0193219 0.829419 7.69589e-24)
(0.030959 0.823417 7.73974e-23)
(0.0408622 0.815454 -1.03529e-21)
(0.0486957 0.806042 0)
(0.0543454 0.795689 -7.43865e-25)
(0.0578443 0.784748 2.74394e-21)
(0.0594249 0.773469 0)
(0.0599253 0.762185 -1.24316e-22)
(0.0608131 0.751159 -5.38591e-21)
(0.0590822 0.740167 -5.1637e-21)
(0.0584119 0.708637 -4.03023e-22)
(0.0536416 0.701424 -1.36409e-20)
(0.0487515 0.695547 1.5999e-20)
(0.0438307 0.690441 3.09961e-21)
(0.0389549 0.686047 7.70515e-21)
(0.0341894 0.682327 -5.73806e-21)
(0.0295969 0.679246 0)
(0.0252251 0.676745 -7.29015e-22)
(0.0211064 0.674751 7.12319e-22)
(0.0172623 0.673227 1.3912e-21)
(0.0137027 0.67217 1.04975e-20)
(0.0104309 0.671546 -1.56862e-20)
(0.00744456 0.671308 1.02186e-20)
(0.00473671 0.671421 -5.11145e-21)
(0.00229646 0.671848 -7.50492e-23)
(0.000110035 0.672561 1.45282e-22)
(-0.00183859 0.673529 0)
(-0.003566 0.674729 3.99318e-21)
(-0.00508853 0.676123 -7.85397e-21)
(-0.00642129 0.677699 4.11254e-21)
(-0.00758 0.679444 -1.216e-22)
(-0.0085796 0.681329 3.89743e-21)
(-0.00943434 0.683334 -3.26849e-23)
(-0.0101576 0.685444 -6.9184e-21)
(-0.0107618 0.687642 6.60796e-21)
(-0.011259 0.689911 -1.3743e-22)
(-0.0116599 0.692238 -1.34828e-22)
(-0.0119748 0.694609 -3.0056e-21)
(-0.0122129 0.697011 -9.63219e-23)
(-0.0123826 0.699436 0)
(-0.0124919 0.701876 2.47172e-24)
(-0.0125483 0.704323 -4.70589e-24)
(-0.0125581 0.706769 0)
(-0.0125278 0.709206 -4.24605e-24)
(-0.012463 0.711628 6.2471e-23)
(-0.012369 0.71403 0)
(-0.0122509 0.716408 0)
(-0.0121123 0.718763 0)
(-0.011958 0.72109 0)
(-0.0117923 0.723384 2.9787e-24)
(-0.0116187 0.725644 6.73793e-22)
(-0.011441 0.72787 -6.73714e-22)
(-0.0112628 0.730059 -5.77162e-22)
(-0.0110876 0.732213 5.77109e-22)
(-0.0109189 0.734329 -1.5278e-23)
(-0.01076 0.736408 0)
(-0.0106141 0.738454 0)
(-0.0104851 0.740464 3.5241e-22)
(-0.0103761 0.742441 -3.52377e-22)
(-0.0102907 0.744386 0)
(-0.0102318 0.746302 0)
(-0.0102028 0.748188 0)
(-0.0102061 0.750048 1.41024e-24)
(-0.010244 0.751881 0)
(-0.0103181 0.75369 0)
(-0.0104286 0.755471 0)
(-0.0105729 0.757233 0)
(-0.0107471 0.758969 7.28906e-25)
(-0.0109437 0.760676 -2.23256e-24)
(-0.0111505 0.762357 0)
(-0.0113502 0.76405 -1.8852e-24)
(-0.0115157 0.765872 0)
(-0.0116084 0.767482 -2.75273e-24)
(0.0198025 0.863383 0)
(0.0197301 0.861352 0)
(0.0195875 0.859037 0)
(0.0193964 0.856893 0)
(0.0191746 0.854778 -2.12593e-24)
(0.0189372 0.85263 6.66155e-24)
(0.0186969 0.850448 -3.94348e-25)
(0.0184648 0.848236 -4.6952e-25)
(0.0182502 0.845995 0)
(0.0180606 0.843726 -2.9841e-26)
(0.0179019 0.841428 0)
(0.0177787 0.839101 0)
(0.0176945 0.836744 -7.20766e-24)
(0.0176517 0.834357 0)
(0.0176522 0.831937 1.19868e-23)
(0.0176972 0.829481 -4.04806e-23)
(0.0177875 0.826988 -4.63829e-24)
(0.0179232 0.824453 -5.10973e-23)
(0.0181046 0.821873 7.58344e-23)
(0.0183315 0.819244 1.16804e-23)
(0.0186035 0.81656 2.5088e-23)
(0.01892 0.813817 -1.03187e-22)
(0.0192797 0.811014 2.29377e-22)
(0.0196822 0.808143 -1.11383e-22)
(0.020126 0.805201 -1.30929e-22)
(0.0206096 0.802182 3.12232e-22)
(0.0211317 0.799082 -2.04774e-22)
(0.0216902 0.795895 -2.3245e-22)
(0.0222826 0.792618 1.37669e-22)
(0.0229065 0.789245 -2.70124e-23)
(0.0235586 0.785771 -5.38087e-23)
(0.024235 0.782193 0)
(0.0249318 0.778505 -1.93878e-22)
(0.025643 0.774705 2.56512e-22)
(0.0263628 0.770789 6.37491e-22)
(0.0270842 0.766754 -4.97432e-22)
(0.0277994 0.762596 3.89327e-23)
(0.0284979 0.758316 2.6678e-21)
(0.0291684 0.75391 -5.46936e-21)
(0.0297986 0.749378 2.89203e-21)
(0.0303733 0.744721 -3.18383e-21)
(0.0308757 0.739941 -2.47906e-22)
(0.0312866 0.735039 3.23831e-21)
(0.031584 0.730022 -1.06998e-22)
(0.0317436 0.724893 -2.45881e-24)
(0.0317375 0.719662 2.39037e-22)
(0.0315353 0.714336 4.03989e-21)
(0.0311029 0.708928 -7.99744e-21)
(0.030403 0.703451 -1.72626e-22)
(0.0293943 0.697923 8.95314e-21)
(0.0280332 0.692365 -4.55979e-21)
(0.0262758 0.686799 0)
(0.0240819 0.681233 0)
(0.0213984 0.675698 -1.58832e-22)
(0.0181584 0.670279 -2.17546e-20)
(0.014313 0.665014 2.1763e-20)
(0.00981879 0.659943 0)
(0.00463575 0.655123 0)
(-0.00127081 0.650631 -1.94361e-22)
(-0.00792464 0.646549 2.42748e-20)
(-0.0153335 0.642965 -2.52593e-20)
(-0.0234954 0.639978 0)
(-0.0324337 0.637891 -3.02434e-21)
(-0.039491 0.65996 2.77158e-21)
(-0.048467 0.659946 -2.37783e-21)
(-0.0571069 0.662998 -2.17194e-22)
(-0.0623747 0.678979 -4.52061e-23)
(-0.0689109 0.685724 0)
(-0.073483 0.693221 -2.71097e-24)
(-0.0756034 0.701822 0)
(-0.0745903 0.71137 1.03507e-22)
(-0.0697437 0.721361 0)
(-0.0605661 0.730991 0)
(-0.0469892 0.739216 5.23968e-23)
(-0.0295773 0.744902 9.14563e-25)
(-0.00946347 0.747132 0)
(0.0114883 0.745348 1.8408e-22)
(0.0313259 0.739901 0)
(0.0486456 0.731533 1.9806e-21)
(0.0627135 0.721109 -2.36356e-21)
(0.073228 0.709491 0)
(0.0801866 0.697607 0)
(0.0840045 0.685968 0)
(0.0850528 0.674655 -3.53548e-22)
(0.0836118 0.662976 2.08101e-22)
(0.0830495 0.6394 1.22497e-22)
(0.0781626 0.63057 -4.00198e-22)
(0.0740698 0.598293 -2.26362e-20)
(0.0671853 0.594371 4.44414e-22)
(0.0603344 0.591363 4.05113e-22)
(0.0535766 0.588987 3.8616e-20)
(0.0469921 0.58718 -1.58537e-20)
(0.0406542 0.585889 0)
(0.0346174 0.585123 7.66727e-22)
(0.0289179 0.584827 -1.1642e-20)
(0.0235786 0.584912 1.16378e-20)
(0.018613 0.585328 -1.04343e-21)
(0.0140272 0.58606 -1.71216e-22)
(0.00981946 0.587092 -5.29415e-21)
(0.00598176 0.588386 5.13155e-21)
(0.00250117 0.589907 4.97759e-21)
(-0.000639537 0.591633 -9.56819e-21)
(-0.00345906 0.59354 4.59738e-21)
(-0.0059762 0.595615 -4.43481e-21)
(-0.00821054 0.597845 8.71654e-21)
(-0.0101818 0.600206 -4.28206e-21)
(-0.0119093 0.602683 0)
(-0.0134123 0.605261 -3.71444e-21)
(-0.0147098 0.60792 3.66033e-21)
(-0.0158184 0.610653 -1.12836e-22)
(-0.0167546 0.613449 2.70907e-23)
(-0.0175343 0.616296 -3.26533e-21)
(-0.0181722 0.619181 3.27143e-21)
(-0.0186824 0.622092 0)
(-0.0190773 0.625022 0)
(-0.0193693 0.62796 5.39005e-24)
(-0.0195689 0.630902 0)
(-0.0196869 0.633837 2.49745e-21)
(-0.0197322 0.636762 -1.1465e-22)
(-0.0197141 0.639669 -1.21524e-22)
(-0.0196404 0.642554 -2.2628e-21)
(-0.0195187 0.645411 -1.01787e-21)
(-0.019356 0.648236 5.49657e-23)
(-0.0191587 0.651027 5.38703e-23)
(-0.018933 0.653781 9.08729e-22)
(-0.0186844 0.656495 0)
(-0.0184186 0.659167 -2.9871e-24)
(-0.0181406 0.661794 0)
(-0.0178553 0.664376 0)
(-0.0175673 0.666912 -6.0667e-22)
(-0.0172811 0.669401 1.1662e-21)
(-0.0170014 0.671843 -5.59538e-22)
(-0.016732 0.674238 1.96027e-24)
(-0.0164774 0.676586 4.23516e-22)
(-0.0162414 0.678887 -4.23466e-22)
(-0.0160281 0.681143 -3.36836e-22)
(-0.0158407 0.683354 3.35505e-22)
(-0.0156828 0.68552 0)
(-0.0155576 0.687642 0)
(-0.0154676 0.689721 -1.41365e-24)
(-0.0154143 0.691757 -2.51367e-24)
(-0.0153981 0.693753 0)
(-0.0154187 0.695708 0)
(-0.015474 0.697623 0)
(-0.0155594 0.699498 -9.61679e-26)
(-0.015668 0.701332 1.15534e-24)
(-0.0157898 0.703124 0)
(-0.0159112 0.704925 -7.26198e-27)
(-0.0160133 0.706859 0)
(-0.0160707 0.708565 -3.12606e-24)
(0.0253973 0.833669 -8.4832e-23)
(0.0253502 0.831561 5.22671e-23)
(0.0252572 0.829159 3.16729e-24)
(0.0251324 0.826937 3.31329e-23)
(0.0249882 0.824745 -3.36382e-23)
(0.0248355 0.822517 -1.69037e-24)
(0.0246848 0.820247 -1.27285e-24)
(0.0245451 0.817941 -8.3788e-25)
(0.0244251 0.815595 0)
(0.0243315 0.81321 0)
(0.0242711 0.810782 -1.0012e-24)
(0.0242485 0.808312 -3.04929e-24)
(0.0242685 0.805798 4.28287e-23)
(0.0243343 0.803238 -3.56195e-23)
(0.0244489 0.800631 -2.80366e-23)
(0.0246144 0.797973 5.33207e-23)
(0.0248327 0.795263 -7.18725e-23)
(0.0251051 0.792496 7.18813e-23)
(0.0254325 0.78967 0)
(0.0258159 0.78678 -1.16859e-23)
(0.0262554 0.78382 -1.29663e-23)
(0.0267509 0.780789 0)
(0.0273024 0.77768 1.98372e-22)
(0.0279091 0.774491 -1.33525e-22)
(0.0285702 0.771215 -3.68785e-23)
(0.0292854 0.767846 0)
(0.0300526 0.764379 4.2797e-23)
(0.0308696 0.760811 4.58749e-23)
(0.0317346 0.757135 4.90431e-23)
(0.0326448 0.753346 1.83044e-21)
(0.0335961 0.749439 -1.80867e-21)
(0.0345846 0.745407 -1.97257e-21)
(0.0356051 0.741246 1.90904e-21)
(0.0366514 0.73695 2.13949e-21)
(0.0377169 0.732515 -2.20426e-21)
(0.0388005 0.727918 0)
(0.0398932 0.723157 -3.8871e-23)
(0.0409742 0.718255 -8.18421e-23)
(0.0420308 0.713201 0)
(0.0430509 0.707982 0)
(0.0440195 0.702593 9.48874e-23)
(0.0449172 0.697031 1.49803e-22)
(0.0457225 0.691293 1.38242e-20)
(0.0464114 0.685373 -1.3719e-20)
(0.0469556 0.679271 1.14129e-22)
(0.0473244 0.672985 1.55121e-20)
(0.0474832 0.666512 -1.57539e-20)
(0.0473931 0.659854 0)
(0.0470118 0.653009 -6.88378e-23)
(0.0462935 0.64598 -3.54107e-22)
(0.0451885 0.638772 1.94336e-20)
(0.0436471 0.631383 9.32537e-22)
(0.0416115 0.623794 -3.00782e-20)
(0.0390043 0.616034 1.05237e-20)
(0.0357521 0.608142 0)
(0.0317891 0.600134 1.18084e-20)
(0.0270494 0.592017 -1.17174e-20)
(0.0214648 0.583819 9.97659e-23)
(0.0149669 0.575579 2.98835e-22)
(0.00749342 0.567347 2.00773e-22)
(-0.00100729 0.559186 1.43963e-20)
(-0.0105699 0.55116 4.02413e-22)
(-0.0211911 0.543323 -1.43599e-20)
(-0.0336054 0.561666 6.48193e-21)
(-0.0453599 0.555909 -1.95003e-21)
(-0.0574058 0.552811 -1.53695e-20)
(-0.0681624 0.565102 6.15477e-21)
(-0.0793542 0.566461 5.90416e-21)
(-0.0889544 0.568956 -2.35038e-22)
(-0.0959325 0.573298 1.6028e-22)
(-0.0991071 0.580002 -5.24614e-23)
(-0.0968007 0.589024 0)
(-0.0871993 0.599686 1.00865e-22)
(-0.0689003 0.610348 1.04883e-23)
(-0.0419542 0.618364 2.41003e-23)
(-0.00872664 0.620913 6.37846e-23)
(0.0255845 0.616471 -2.4883e-23)
(0.0558179 0.606457 3.39954e-23)
(0.0793679 0.59341 1.35122e-22)
(0.0955111 0.579976 0)
(0.105227 0.567549 -4.46864e-22)
(0.109776 0.556749 8.11598e-22)
(0.110333 0.547635 2.10378e-21)
(0.107792 0.539681 -6.85397e-21)
(0.102925 0.531805 -3.5097e-22)
(0.0973818 0.511873 -3.02305e-21)
(0.089802 0.507993 5.40511e-21)
(0.0797568 0.481126 1.30692e-21)
(0.0710222 0.482539 -1.47094e-20)
(0.0625028 0.484291 3.86258e-22)
(0.0542974 0.48634 1.36397e-20)
(0.0464681 0.488624 0)
(0.0390585 0.491093 4.1132e-22)
(0.0320967 0.493747 5.39739e-21)
(0.0255961 0.496558 -5.79271e-21)
(0.0195599 0.499483 5.80034e-21)
(0.0139846 0.502495 -6.51356e-21)
(0.0088625 0.505596 8.47688e-23)
(0.004179 0.508772 -8.33169e-23)
(-8.41866e-05 0.512005 -5.06377e-21)
(-0.00394611 0.515291 1.25133e-22)
(-0.0074282 0.51862 4.93812e-21)
(-0.0105524 0.521982 1.46987e-22)
(-0.013339 0.525379 -4.45982e-21)
(-0.0158093 0.52881 4.44207e-21)
(-0.0179852 0.532267 -1.65206e-23)
(-0.0198879 0.535741 0)
(-0.0215383 0.539228 -1.53491e-23)
(-0.0229562 0.542722 -5.90537e-23)
(-0.0241606 0.546218 0)
(-0.0251692 0.549713 -1.36818e-23)
(-0.0259996 0.553201 -1.31306e-23)
(-0.0266676 0.556678 -1.26265e-23)
(-0.0271884 0.560137 -6.05754e-24)
(-0.0275762 0.563577 -5.80712e-24)
(-0.027844 0.566991 -3.48541e-26)
(-0.0280044 0.570377 -5.32149e-24)
(-0.0280687 0.573731 -5.086e-24)
(-0.0280477 0.577048 -4.85525e-24)
(-0.0279513 0.580327 -5.14612e-26)
(-0.027789 0.583562 1.09505e-21)
(-0.0275691 0.586754 -1.09705e-21)
(-0.0272999 0.589899 -9.89054e-22)
(-0.0269888 0.592995 5.7094e-23)
(-0.026643 0.59604 9.29726e-22)
(-0.0262693 0.599031 -8.24347e-22)
(-0.0258739 0.60197 8.2602e-22)
(-0.0254627 0.604853 -2.96833e-24)
(-0.0250417 0.60768 -6.7877e-22)
(-0.0246161 0.61045 4.6537e-23)
(-0.0241912 0.613164 1.21454e-21)
(-0.023772 0.61582 -1.12221e-21)
(-0.0233633 0.61842 5.35389e-22)
(-0.0229698 0.620961 -4.45079e-22)
(-0.0225956 0.623446 4.53622e-22)
(-0.0222453 0.625873 -6.07936e-24)
(-0.0219227 0.628245 1.27624e-24)
(-0.0216316 0.630558 0)
(-0.0213742 0.632818 4.06972e-24)
(-0.0211535 0.635023 0)
(-0.0209711 0.637173 5.28678e-24)
(-0.0208279 0.639272 0)
(-0.0207237 0.641318 0)
(-0.020657 0.643314 0)
(-0.0206246 0.64526 0)
(-0.0206216 0.647156 -5.17891e-25)
(-0.0206411 0.649007 0)
(-0.0206744 0.650862 -1.89861e-24)
(-0.0207095 0.652855 0)
(-0.0207318 0.654611 0)
(0.0311648 0.805492 0)
(0.0311408 0.803333 5.75881e-23)
(0.0310946 0.800875 -6.07742e-23)
(0.0310351 0.798603 4.89958e-24)
(0.0309711 0.796361 2.51016e-23)
(0.0309107 0.794083 -2.99751e-23)
(0.0308617 0.791762 9.342e-24)
(0.0308316 0.789398 -1.49609e-23)
(0.0308272 0.786992 8.19217e-24)
(0.0308553 0.784537 8.29339e-24)
(0.0309214 0.782035 -1.34649e-23)
(0.0310309 0.77948 -2.72448e-23)
(0.0311881 0.776871 6.93145e-23)
(0.031397 0.774208 -3.90187e-23)
(0.031661 0.771486 3.16498e-23)