/*--------------------------------*- C++ -*----------------------------------*\
| =========                 |                                                 |
| \\      /  F ield         | OpenFOAM: The Open Source CFD Toolbox           |
|  \\    /   O peration     | Version:  2112                                  |
|   \\  /    A nd           | Website:  www.openfoam.com                      |
|    \\/     M anipulation  |                                                 |
\*---------------------------------------------------------------------------*/
FoamFile
{
    version     2.0;
    format      ascii;
    arch        "LSB;label=32;scalar=64";
    class       volVectorField;
    location    "0";
    object      Ulift0;
}
// * * * * * * * * * * * * * * * * * * * * * * * * * * * * * * * * * * * * * //

dimensions      [0 1 -1 0 0 0 0];

internalField   nonuniform List<vector> 
11644
(
(1.00039 -0.000290309 0)
(1.00039 -0.000869958 0)
(1.00039 -0.00144498 0)
(1.00038 -0.0020104 0)
(1.00037 -0.00256129 0)
(1.00035 -0.00309148 0)
(1.00033 -0.00359291 0)
(1.0003 -0.00405547 0)
(1.00026 -0.00446635 0)
(1.00021 -0.00481138 0)
(1.00014 -0.00507148 0)
(1.00008 -0.00523314 0)
(0.999986 -0.00527882 0)
(0.999838 -0.00514942 0)
(0.999735 -0.00483561 0)
(0.99961 -0.00435414 0)
(0.999465 -0.0036736 0)
(0.999341 -0.00279514 0)
(0.99923 -0.00174406 0)
(0.999171 -0.000567876 -3.5838e-33)
(0.999171 0.000651774 4.11327e-33)
(0.999231 0.00182731 0)
(0.999342 0.00287702 0)
(0.999466 0.00375326 0)
(0.999612 0.00443072 0)
(0.999738 0.00490858 0)
(0.999841 0.00521819 0)
(0.99999 0.0053428 0)
(1.00008 0.00529196 0)
(1.00015 0.00512482 0)
(1.00021 0.00485901 0)
(1.00026 0.00450817 0)
(1.0003 0.00409155 0)
(1.00033 0.00362347 0)
(1.00036 0.00311677 0)
(1.00037 0.00258156 0)
(1.00038 0.00202589 0)
(1.00039 0.00145588 0)
(1.0004 0.000876432 0)
(1.0004 0.000292454 0)
(1.00133 -0.000394002 0)
(1.00132 -0.0011799 0)
(1.00131 -0.00196177 0)
(1.00129 -0.00273755 0)
(1.00125 -0.00350214 0)
(1.0012 -0.00424881 0)
(1.00114 -0.00496829 0)
(1.00105 -0.00564807 0)
(1.00092 -0.0062725 0)
(1.00076 -0.00681947 0)
(1.00056 -0.00726979 0)
(1.0003 -0.00757488 0)
(0.99999 -0.00769371 0)
(0.999568 -0.00762756 0)
(0.999072 -0.007255 0)
(0.998605 -0.00650969 0)
(0.998102 -0.00544897 0)
(0.997656 -0.00408935 0)
(0.997335 -0.00252241 -2.70327e-20)
(0.997157 -0.00084874 1.8782e-25)
(0.997157 0.000865157 -1.75112e-25)
(0.997336 0.00253972 -1.35164e-20)
(0.997657 0.00410809 0)
(0.998105 0.0054694 0)
(0.998608 0.00653181 0)
(0.999077 0.00727832 0)
(0.999572 0.00765245 0)
(0.999996 0.00772049 0)
(1.0003 0.00760205 0)
(1.00057 0.00729583 0)
(1.00077 0.00684368 0)
(1.00093 0.00629469 0)
(1.00105 0.00566808 0)
(1.00115 0.00498589 0)
(1.00121 0.00426384 0)
(1.00126 0.0035145 0)
(1.00129 0.00274719 0)
(1.00132 0.00196867 0)
(1.00133 0.00118403 0)
(1.00133 0.000395381 0)
(1.00249 -0.000465372 0)
(1.00248 -0.00139368 0)
(1.00247 -0.00232141 0)
(1.00244 -0.00325271 0)
(1.0024 -0.00418578 0)
(1.00233 -0.00511513 0)
(1.00223 -0.00603038 0)
(1.00208 -0.00691472 0)
(1.00186 -0.00774176 0)
(1.00156 -0.00847556 0)
(1.00116 -0.00905598 0)
(1.00065 -0.00945346 0)
(0.999975 -0.00958458 1.26879e-25)
(0.999256 -0.00940945 -8.74677e-25)
(0.998403 -0.00906292 -4.8351e-24)
(0.99736 -0.00841758 3.65006e-24)
(0.996305 -0.00730858 6.30978e-24)
(0.995285 -0.0057484 0)
(0.994498 -0.0037014 -2.6956e-20)
(0.994047 -0.0012886 2.60432e-24)
(0.994046 0.00126059 -1.71417e-24)
(0.994496 0.00367529 -1.3478e-20)
(0.995283 0.00572604 0)
(0.996303 0.00729131 -6.0568e-24)
(0.997359 0.00840586 -3.47494e-24)
(0.998403 0.00905729 4.75766e-24)
(0.999257 0.00940881 8.68726e-25)
(0.999976 0.0095889 -1.2688e-25)
(1.00066 0.00946218 0)
(1.00117 0.00906646 0)
(1.00157 0.0084869 0)
(1.00187 0.00775312 0)
(1.00209 0.00692557 0)
(1.00224 0.00604039 0)
(1.00235 0.00512404 0)
(1.00241 0.00419336 0)
(1.00246 0.00325878 0)
(1.00248 0.00232583 0)
(1.00249 0.00139637 0)
(1.00251 0.000466275 0)
(1.00407 -0.000692597 0)
(1.00405 -0.00207809 0)
(1.00405 -0.00347043 0)
(1.00404 -0.00487796 0)
(1.00401 -0.00630259 0)
(1.00395 -0.00774133 0)
(1.00383 -0.00918539 0)
(1.00363 -0.0106187 0)
(1.00333 -0.0120179 0)
(1.0029 -0.0133503 0)
(1.0023 -0.0145918 0)
(1.00152 -0.0156774 3.32763e-24)
(1.00052 -0.0165851 -3.55486e-24)
(0.999097 -0.0170954 7.36329e-24)
(0.997198 -0.0167044 2.1603e-19)
(0.995289 -0.0154399 2.6603e-23)
(0.99313 -0.0133774 2.32819e-23)
(0.991064 -0.0103666 1.81801e-23)
(0.989415 -0.00656336 -2.3624e-23)
(0.988457 -0.00227022 2.48951e-26)
(0.988454 0.00221768 -2.67905e-20)
(0.989408 0.00651418 2.06844e-23)
(0.991053 0.0103237 -1.68707e-23)
(0.993119 0.013342 -2.19825e-23)
(0.995279 0.0154122 -2.56625e-23)
(0.997191 0.0166827 2.15943e-19)
(0.999095 0.0170772 -7.10938e-24)
(1.00049 0.0165839 3.46893e-24)
(1.00153 0.0156886 -3.31438e-24)
(1.00231 0.0145968 0)
(1.00291 0.0133544 0)
(1.00335 0.012023 0)
(1.00365 0.0106247 0)
(1.00384 0.00919156 0)
(1.00396 0.00774716 0)
(1.00402 0.00630775 0)
(1.00406 0.0048822 0)
(1.00407 0.00347357 0)
(1.00407 0.00208002 0)
(1.00408 0.000693247 0)
(1.00643 -0.00104487 0)
(1.00643 -0.00314052 0)
(1.00645 -0.00525402 0)
(1.00647 -0.00739556 0)
(1.00648 -0.00957027 0)
(1.00644 -0.0117759 0)
(1.00632 -0.0139992 0)
(1.00609 -0.0162108 0)
(1.0057 -0.0183586 0)
(1.00508 -0.0203675 -1.36225e-20)
(1.00425 -0.0221743 0)
(1.00302 -0.0237015 0)
(1.00118 -0.0246887 0)
(0.999196 -0.0253194 -2.15844e-19)
(0.996166 -0.0258177 2.15897e-19)
(0.992091 -0.0252007 -2.14571e-19)
(0.987723 -0.0227084 0)
(0.983323 -0.0182412 -6.35075e-23)
(0.979766 -0.0119286 -1.06234e-19)
(0.977717 -0.00416203 0)
(0.977713 0.00409793 -7.94848e-20)
(0.979753 0.0118671 3.85017e-23)
(0.983305 0.0181846 0)
(0.987702 0.0226594 0)
(0.992071 0.0251612 -2.14565e-19)
(0.99614 0.0257939 2.15891e-19)
(0.99917 0.0253207 -2.15837e-19)
(1.00114 0.0246977 0)
(1.00305 0.0236961 0)
(1.00425 0.0221673 0)
(1.00508 0.0203692 0)
(1.00571 0.0183626 0)
(1.00611 0.0162158 0)
(1.00634 0.0140042 0)
(1.00645 0.0117808 0)
(1.00649 0.00957459 0)
(1.00649 0.0073991 0)
(1.00646 0.00525664 0)
(1.00644 0.00314213 0)
(1.00645 0.00104541 0)
(1.00972 -0.001374 0)
(1.00974 -0.0041343 0)
(1.00981 -0.00692674 0)
(1.00989 -0.00976672 0)
(1.00996 -0.0126668 0)
(1.00999 -0.0156321 0)
(1.00991 -0.0186572 0)
(1.00968 -0.0217212 0)
(1.00922 -0.0248065 0)
(1.00853 -0.0279674 9.56939e-20)
(1.00739 -0.0311983 1.32577e-23)
(1.00563 -0.0344955 0)
(1.00324 -0.0379977 4.32589e-19)
(0.999025 -0.0404672 -2.1598e-19)
(0.99376 -0.0405307 4.29094e-19)
(0.987187 -0.0385478 -6.40014e-19)
(0.979352 -0.0345769 -5.42611e-26)
(0.971104 -0.0279027 -5.27066e-20)
(0.963811 -0.0183409 -1.04503e-19)
(0.959584 -0.00639784 -2.60004e-20)
(0.959578 0.00634267 -5.85187e-20)
(0.963792 0.0182919 -2.61242e-20)
(0.971075 0.0278652 9.27013e-23)
(0.979317 0.0345519 -5.42611e-26)
(0.987153 0.0385342 -6.40248e-19)
(0.993738 0.0405126 4.28804e-19)
(0.998932 0.0404682 -2.1637e-19)
(1.00324 0.0380157 4.32391e-19)
(1.00567 0.0345037 -2.89207e-23)
(1.00739 0.0312013 -2.18068e-19)
(1.00852 0.0279575 -1.47934e-24)
(1.00922 0.0248085 1.36783e-20)
(1.00969 0.0217275 0)
(1.00993 0.0186632 0)
(1.01 0.0156375 0)
(1.00998 0.0126714 0)
(1.00991 0.00977034 0)
(1.00982 0.00692936 0)
(1.00976 0.00413587 0)
(1.00974 0.00137452 0)
(1.01374 -0.00158282 0)
(1.0138 -0.0047674 0)
(1.01394 -0.00800262 0)
(1.01412 -0.0113158 0)
(1.01432 -0.0147339 0)
(1.01448 -0.0182782 0)
(1.01454 -0.0219586 0)
(1.01441 -0.0257753 0)
(1.01406 -0.0297927 -1.09958e-19)
(1.01344 -0.0339439 1.09889e-19)
(1.01241 -0.0382843 -3.2585e-23)
(1.01058 -0.0428112 4.35099e-19)
(1.00728 -0.0467257 2.62012e-21)
(1.00211 -0.0505395 1.07719e-19)
(0.994021 -0.0548108 4.29968e-19)
(0.982663 -0.0569974 -5.31654e-19)
(0.973403 -0.0516797 0)
(0.961264 -0.0446724 -5.20875e-20)
(0.949061 -0.0324582 2.57905e-20)
(0.940797 -0.0151047 -2.54995e-20)
(0.939022 0.00512178 -6.36696e-21)
(0.944608 0.024341 -5.12016e-20)
(0.955435 0.0392021 -5.17989e-20)
(0.967957 0.0486715 -5.24726e-20)
(0.98264 0.0569413 -5.31632e-19)
(0.993953 0.0547984 4.29933e-19)
(1.00198 0.050573 1.07702e-19)
(1.00735 0.0467315 4.34781e-19)
(1.01058 0.0427906 -1.4395e-22)
(1.01241 0.0382844 -2.19387e-19)
(1.01343 0.0339448 0)
(1.01407 0.0298003 1.37457e-20)
(1.01442 0.0257839 -1.37494e-20)
(1.01455 0.0219668 0)
(1.0145 0.0182849 0)
(1.01434 0.0147393 0)
(1.01414 0.0113198 0)
(1.01396 0.00800545 0)
(1.01382 0.00476908 0)
(1.01376 0.00158338 0)
(1.01815 -0.00165598 0)
(1.01827 -0.00499344 0)
(1.01851 -0.00840235 0)
(1.01885 -0.0119265 0)
(1.01925 -0.0156129 0)
(1.01966 -0.0195074 0)
(1.01999 -0.0236489 0)
(1.02017 -0.0281266 -1.10653e-19)
(1.02021 -0.0329598 -1.10621e-19)
(1.02007 -0.038249 4.39858e-19)
(1.01952 -0.0441495 -4.37683e-19)
(1.01828 -0.0508214 2.64783e-21)
(1.01466 -0.0589516 -4.36401e-19)
(1.00705 -0.066597 2.16914e-19)
(0.998687 -0.0711722 6.06612e-23)
(0.985966 -0.0761222 -1.06775e-19)
(0.966922 -0.0789488 1.04897e-19)
(0.942307 -0.0735087 5.11709e-20)
(0.916249 -0.0567301 0)
(0.896549 -0.0274846 -2.42887e-20)
(0.891941 0.00936863 1.52062e-23)
(0.905086 0.0434434 1.22783e-20)
(0.929263 0.0666046 5.60659e-23)
(0.955101 0.077498 5.19769e-20)
(0.977762 0.0784535 1.06087e-19)
(0.993233 0.0735177 1.07384e-19)
(1.00143 0.0688129 0)
(1.01473 0.0589629 2.48184e-23)
(1.01827 0.050875 -8.57122e-23)
(1.01951 0.0441374 -7.42977e-23)
(1.02007 0.0382614 3.22886e-23)
(1.02022 0.0329744 2.20884e-19)
(1.02019 0.0281488 -1.38278e-20)
(1.02001 0.0236606 0)
(1.01968 0.0195163 0)
(1.01927 0.0156194 0)
(1.01887 0.0119311 0)
(1.01853 0.00840545 0)
(1.01829 0.00499523 0)
(1.01817 0.00165656 0)
(1.0226 -0.00161538 0)
(1.0228 -0.00487772 0)
(1.02318 -0.00823195 0)
(1.02375 -0.0117406 0)
(1.02445 -0.0154764 0)
(1.02526 -0.0195209 0)
(1.02607 -0.0239686 0)
(1.02685 -0.0289341 1.112e-19)
(1.02776 -0.0344829 -1.46368e-23)
(1.02877 -0.0409133 8.85577e-19)
(1.02959 -0.0486035 -4.42446e-19)
(1.03028 -0.0582116 -4.42274e-19)
(1.02985 -0.0701786 -8.95308e-23)
(1.02047 -0.0813926 -1.09901e-19)
(1.01385 -0.0932075 -9.53852e-23)
(0.996375 -0.10912 2.31929e-23)
(0.969909 -0.117167 -1.24428e-23)
(0.930675 -0.122282 1.2715e-20)
(0.879949 -0.107136 1.13745e-23)
(0.83449 -0.0609744 -1.47144e-27)
(0.819281 0.0093452 -2.08197e-21)
(0.845055 0.0756301 -2.86082e-21)
(0.894416 0.113574 0)
(0.942904 0.122493 0)
(0.978441 0.114332 1.20678e-23)
(1.00726 0.100825 0)
(1.01696 0.0868 1.09595e-19)
(1.02987 0.0701612 4.41442e-19)
(1.03032 0.0581583 4.40148e-19)
(1.02961 0.0486862 -4.10708e-23)
(1.02877 0.0409362 4.85911e-26)
(1.02779 0.0344966 2.22551e-19)
(1.02688 0.0289494 0)
(1.02609 0.0239827 0)
(1.02528 0.0195299 0)
(1.02448 0.015483 0)
(1.02377 0.0117452 0)
(1.0232 0.00823502 0)
(1.02282 0.00487949 0)
(1.02262 0.00161595 0)
(1.02681 -0.00148224 0)
(1.0271 -0.00448184 0)
(1.02766 -0.00758561 0)
(1.0285 -0.0108685 0)
(1.02961 -0.0144218 0)
(1.03096 -0.0183614 0)
(1.03249 -0.0228512 0)
(1.03427 -0.0279829 3.46374e-22)
(1.03656 -0.0339052 0)
(1.03941 -0.0410263 4.46422e-19)
(1.04272 -0.0498224 4.23804e-23)
(1.04712 -0.0610814 -8.90734e-19)
(1.05162 -0.0760225 0)
(1.04381 -0.0937331 1.349e-22)
(1.0445 -0.114928 4.87989e-23)
(1.0284 -0.14252 -1.51185e-23)
(0.999612 -0.173607 -3.43736e-21)
(0.942563 -0.20961 -3.23982e-21)
(0.840479 -0.220074 5.83121e-24)
(0.714932 -0.150462 0)
(0.657787 0.0113073 -3.47862e-23)
(0.72923 0.165047 4.37127e-24)
(0.855505 0.22195 1.46811e-24)
(0.952004 0.205506 3.2736e-21)
(1.01126 0.168808 2.77887e-20)
(1.04193 0.130321 -4.12993e-23)
(1.0441 0.103138 2.26049e-19)
(1.0516 0.0760493 4.51205e-19)
(1.04717 0.0610959 1.34e-18)
(1.04284 0.0498 -4.20247e-23)
(1.03943 0.0410616 4.44461e-19)
(1.0366 0.0339478 4.46072e-19)
(1.03431 0.0279988 2.96123e-24)
(1.03252 0.0228647 2.41765e-24)
(1.03099 0.0183709 0)
(1.02964 0.0144281 0)
(1.02853 0.0108727 0)
(1.02769 0.00758835 0)
(1.02712 0.0044834 0)
(1.02683 0.00148275 0)
(1.03055 -0.00126956 0)
(1.03094 -0.00384285 0)
(1.03169 -0.00651836 0)
(1.03282 -0.00937188 0)
(1.03437 -0.0124997 0)
(1.03636 -0.0160324 0)
(1.03881 -0.0201455 0)
(1.04188 -0.0249144 -2.25417e-19)
(1.04586 -0.0304907 -6.46851e-24)
(1.05098 -0.0371614 4.47944e-19)
(1.05755 -0.045426 -8.9763e-19)
(1.06645 -0.0558561 -9.058e-19)
(1.0775 -0.0697054 0)
(1.07754 -0.0932029 1.97801e-23)
(1.09472 -0.119363 0)
(1.09552 -0.16431 -3.00351e-20)
(1.08828 -0.229898 -3.04501e-24)
(1.0459 -0.343996 -2.25724e-24)
(0.872055 -0.467112 1.15526e-23)
(0.487122 -0.464221 -2.34261e-23)
(0.190319 0.0198179 0)
(0.516467 0.47664 -5.07159e-23)
(0.888664 0.457602 0)
(1.05563 0.326702 1.81063e-21)
(1.09892 0.213985 -1.41532e-24)
(1.10239 0.140504 2.97179e-23)
(1.08567 0.103931 0)
(1.07749 0.0696452 2.94293e-23)
(1.06642 0.0559109 9.0752e-19)
(1.05765 0.0454225 3.83624e-23)
(1.05104 0.0371663 4.49102e-19)
(1.0459 0.0304978 4.49839e-19)
(1.04192 0.0249247 -5.26751e-24)
(1.03885 0.0201523 0)
(1.03639 0.0160366 0)
(1.0344 0.0125027 0)
(1.03285 0.00937427 0)
(1.03171 0.00652007 0)
(1.03096 0.00384386 0)
(1.03058 0.00126989 0)
(1.03362 -0.000987824 0)
(1.03409 -0.00299098 0)
(1.03501 -0.00507586 0)
(1.03641 -0.0073013 0)
(1.03835 -0.00973666 0)
(1.04089 -0.0124572 0)
(1.0441 -0.0154524 -4.09135e-25)
(1.04837 -0.0186634 -4.94132e-25)
(1.05416 -0.0222464 0)
(1.06179 -0.0265157 2.40121e-22)
(1.07172 -0.0317938 -1.81261e-18)
(1.08514 -0.0388409 -9.17007e-19)
(1.10183 -0.0483286 1.02446e-23)
(1.11708 -0.0688527 7.29752e-24)
(1.14911 -0.0889332 0)
(1.18225 -0.132924 0)
(1.23326 -0.206299 0)
(1.30127 -0.352182 0)
(1.04712 -0.510258 1.10385e-22)
(1.16023 0.556827 1.20295e-22)
(1.30788 0.330111 1.40766e-22)
(1.23186 0.176431 2.33424e-24)
(1.16969 0.104127 -1.27057e-19)
(1.13135 0.0771991 -2.43404e-19)
(1.10188 0.0482484 0)
(1.0852 0.0386995 9.16938e-19)
(1.07178 0.0316735 -9.0606e-19)
(1.06184 0.0264306 0)
(1.05419 0.0221899 0)
(1.0484 0.0186283 -2.26345e-19)
(1.04413 0.0154347 -2.04222e-25)
(1.04091 0.0124526 0)
(1.03838 0.00973615 0)
(1.03644 0.00730183 0)
(1.03503 0.00507648 0)
(1.03411 0.00299142 0)
(1.03365 0.00098798 0)
(1.03585 -0.000652625 0)
(1.03638 -0.00197406 0)
(1.03741 -0.00334331 0)
(1.03901 -0.00479567 0)
(1.04122 -0.00637786 0)
(1.04414 -0.00815893 0)
(1.04788 -0.0101818 -5.3828e-25)
(1.05282 -0.0123456 -6.52823e-25)
(1.05949 -0.0143953 0)
(1.06846 -0.0161592 -4.53039e-19)
(1.08014 -0.0174379 -9.09957e-19)
(1.09632 -0.0177633 -9.21575e-19)
(1.11673 -0.0171923 -7.23788e-24)
(1.13995 -0.025674 1.35573e-24)
(1.18138 -0.0274236 2.89654e-24)
(1.23743 -0.0403765 3.3403e-20)
(1.32821 -0.0575104 2.25188e-21)
(1.47197 -0.0715363 -4.87028e-24)
(0.321045 0.0588338 3.33979e-23)
(0.395719 -0.0671239 -1.53188e-23)
(1.46164 0.0733485 4.65439e-24)
(1.30598 0.0435029 1.76936e-20)
(1.20918 0.0280432 -5.57873e-25)
(1.1583 0.0268746 6.09004e-25)
(1.11676 0.017356 9.4219e-19)
(1.0963 0.0179658 9.21509e-19)
(1.08014 0.0176047 -9.09968e-19)
(1.06847 0.0162774 4.53759e-19)
(1.05951 0.0144672 0)
(1.05284 0.012381 -2.27149e-19)
(1.0479 0.0101978 5.40511e-25)
(1.04416 0.00816363 0)
(1.04125 0.00637939 0)
(1.03903 0.00479613 0)
(1.03744 0.00334345 0)
(1.0364 0.00197414 0)
(1.03588 0.000652642 0)
(1.03713 -0.000285888 0)
(1.03768 -0.000858739 0)
(1.03876 -0.00143409 0)
(1.04042 -0.0020132 0)
(1.04275 -0.00259931 0)
(1.04585 -0.0032014 0)
(1.04991 -0.00378069 -3.96987e-25)
(1.05522 -0.0041055 1.27473e-24)
(1.06211 -0.00378108 4.5586e-19)
(1.07119 -0.00231775 -4.55754e-19)
(1.08277 0.00088238 0)
(1.09793 0.00664374 9.21546e-19)
(1.11698 0.0165432 3.56838e-24)
(1.14111 0.0194706 0)
(1.17688 0.0391483 1.2452e-19)
(1.22443 0.0606721 3.2218e-24)
(1.29576 0.100292 0)
(1.37001 0.179949 -1.15509e-21)
(0.4881 0.140295 2.58713e-23)
(0.571252 -0.152286 3.02725e-23)
(1.37135 -0.16847 0)
(1.27622 -0.0951232 1.71137e-20)
(1.19892 -0.0547499 1.27345e-19)
(1.15755 -0.0277017 -5.82274e-24)
(1.11705 -0.0166688 9.3512e-19)
(1.09801 -0.0067417 0)
(1.0829 -0.00089892 0)
(1.07126 0.00228092 4.5361e-19)
(1.06217 0.00376745 0)
(1.05526 0.0041016 -2.28076e-19)
(1.04995 0.00377922 0)
(1.04588 0.0032003 0)
(1.04278 0.00259798 0)
(1.04045 0.00201175 0)
(1.03878 0.00143313 0)
(1.0377 0.00085837 0)
(1.03715 0.000285744 0)
(1.03741 8.23595e-05 0)
(1.03794 0.000261618 0)
(1.03897 0.000487999 0)
(1.04058 0.000797425 0)
(1.04281 0.00123137 0)
(1.04578 0.00184415 0)
(1.04967 0.00272689 -2.91684e-25)
(1.05472 0.00418418 -4.45995e-25)
(1.06109 0.00669937 6.83047e-19)
(1.06909 0.0108623 -4.53742e-19)
(1.07898 0.0176191 0)
(1.09077 0.0284989 4.52279e-19)
(1.10442 0.0452078 4.61399e-19)
(1.12367 0.0570867 1.17322e-19)
(1.14407 0.087795 1.19923e-19)
(1.17186 0.126209 0)
(1.20484 0.189245 -2.5089e-24)
(1.23567 0.300332 2.06022e-21)
(0.880025 0.327199 -7.4832e-22)
(0.124221 0.0976643 5.17805e-24)
(-0.178508 0.000144656 0)
(0.211276 -0.120479 1.59353e-23)
(0.976677 -0.347254 -2.29855e-24)
(1.23443 -0.282439 4.10724e-21)
(1.19251 -0.175656 -1.57774e-20)
(1.15493 -0.10971 5.79088e-24)
(1.13372 -0.0702835 0)
(1.10445 -0.0452775 0)
(1.09089 -0.0284587 4.58607e-19)
(1.07898 -0.0176874 -1.47892e-23)
(1.06915 -0.0109121 -4.49714e-24)
(1.06115 -0.0067268 -2.28183e-19)
(1.05477 -0.00418705 -1.13636e-19)
(1.04971 -0.00273255 0)
(1.04581 -0.00184848 0)
(1.04284 -0.00123502 0)
(1.0406 -0.000800036 0)
(1.039 -0.000490347 0)
(1.03796 -0.000263615 0)
(1.03743 -8.30018e-05 0)
(1.03672 0.000423003 0)
(1.03719 0.00129746 0)
(1.03811 0.00225843 0)
(1.03951 0.00337094 0)
(1.04146 0.00471372 0)
(1.04402 0.00638521 0)
(1.04733 0.00851996 0)
(1.0516 0.0113623 0)
(1.05681 0.0155265 2.27144e-19)
(1.06297 0.0217054 0)
(1.06992 0.0307552 -4.55618e-19)
(1.07721 0.0438778 -4.51448e-19)
(1.08427 0.062035 4.51233e-19)
(1.09764 0.0784781 0)
(1.1021 0.1107 0)
(1.10001 0.157207 -2.86873e-20)
(1.09675 0.214943 -2.28166e-23)
(1.0542 0.309542 -2.77821e-20)
(0.878353 0.4049 0)
(0.438246 0.295064 -1.48798e-21)
(0.234111 -0.0483963 2.00612e-22)
(0.556557 -0.352248 0)
(0.950767 -0.388919 0)
(1.06981 -0.282124 -4.07264e-23)
(1.10268 -0.195452 7.53269e-23)
(1.10211 -0.13233 1.14883e-19)
(1.10031 -0.092596 0)
(1.08428 -0.0620868 1.30501e-22)
(1.07726 -0.0439324 4.51503e-19)
(1.06995 -0.030802 -4.55511e-19)
(1.06302 -0.0217464 0)
(1.05687 -0.0155441 -2.27027e-19)
(1.05163 -0.0113863 5.6815e-20)
(1.04736 -0.00853573 0)
(1.04405 -0.00639639 0)
(1.04148 -0.00472181 0)
(1.03953 -0.00337689 0)
(1.03813 -0.00226229 0)
(1.03721 -0.00129946 0)
(1.03674 -0.000423673 0)
(1.03518 0.000708149 0)
(1.03557 0.00216168 0)
(1.0363 0.00372794 0)
(1.03741 0.00549008 0)
(1.03893 0.00754704 0)
(1.04091 0.010022 0)
(1.04338 0.013079 0)
(1.04646 0.0169451 0)
(1.05013 0.0220394 0)
(1.0541 0.0290566 0)
(1.058 0.0385287 -4.49912e-19)
(1.06098 0.0511704 0)
(1.0622 0.0682181 -4.48816e-19)
(1.0617 0.0896472 1.10628e-19)
(1.06378 0.112145 2.13259e-23)
(1.04686 0.145197 1.16814e-26)
(1.02396 0.184732 1.9632e-23)
(0.964649 0.227344 1.27118e-20)
(0.852944 0.248722 -5.70793e-21)
(0.670557 0.172646 2.2711e-21)
(0.58532 -0.0286388 0)
(0.718823 -0.206138 0)
(0.888691 -0.247995 2.61953e-23)
(0.983395 -0.217076 0)
(1.03318 -0.16436 -1.08846e-19)
(1.05716 -0.127797 -1.10667e-19)
(1.06172 -0.0896573 0)
(1.06219 -0.0683111 -4.48788e-19)
(1.061 -0.0512396 0)
(1.05802 -0.0385857 -4.49902e-19)
(1.05413 -0.0291006 0)
(1.05016 -0.0220706 5.6876e-20)
(1.04649 -0.0169683 -5.67044e-20)
(1.04341 -0.0130971 0)
(1.04093 -0.0100357 0)
(1.03896 -0.00755733 0)
(1.03743 -0.00549752 0)
(1.03632 -0.00373293 0)
(1.03558 -0.00216452 0)
(1.0352 -0.000709079 0)
(1.03296 0.0009221 0)
(1.03324 0.00280697 0)
(1.03376 0.00481378 0)
(1.03454 0.00703015 0)
(1.03557 0.00955843 0)
(1.03687 0.0125218 0)
(1.03843 0.0160746 0)
(1.04022 0.0204187 0)
(1.04222 0.0257762 -8.8279e-22)
(1.04417 0.0325898 0)
(1.04549 0.0413831 -2.25439e-19)
(1.04514 0.0524053 2.24375e-19)
(1.04222 0.0660252 -4.40554e-19)
(1.03802 0.0820896 -4.41161e-19)
(1.03389 0.099954 0)
(1.01227 0.121253 1.06988e-19)
(0.986481 0.142597 -2.59809e-20)
(0.937077 0.155962 -1.24554e-20)
(0.868189 0.146897 -1.56316e-23)
(0.789324 0.0911332 0)
(0.756777 -0.0145206 1.28002e-21)
(0.808327 -0.110832 -1.16604e-23)
(0.887637 -0.152453 1.60616e-23)
(0.951326 -0.154024 -1.23956e-23)
(0.997768 -0.131041 -1.04922e-19)
(1.02394 -0.110713 0)
(1.03817 -0.082093 -4.40937e-19)
(1.04217 -0.0660682 -4.4029e-19)
(1.04513 -0.0524564 0)
(1.04549 -0.0414308 -2.25437e-19)
(1.04418 -0.0326305 0)
(1.04224 -0.0258078 5.55586e-20)
(1.04024 -0.0204427 0)
(1.03845 -0.0160932 0)
(1.03689 -0.0125361 0)
(1.03559 -0.00956938 0)
(1.03455 -0.0070382 0)
(1.03378 -0.00481928 0)
(1.03326 -0.00281017 0)
(1.03298 -0.00092315 0)
(1.03027 0.00105958 0)
(1.03044 0.00321772 0)
(1.03074 0.00549139 0)
(1.03118 0.00796086 0)
(1.03174 0.0107172 0)
(1.03239 0.0138654 0)
(1.03309 0.0175296 0)
(1.03377 0.0218583 0)
(1.0343 0.0270345 -8.76081e-22)
(1.03448 0.0332108 -7.04572e-24)
(1.03387 0.0406807 -2.7895e-19)
(1.03155 0.0496212 3.32923e-19)
(1.02664 0.0595887 0)
(1.02006 0.0709651 -4.33938e-19)
(1.01296 0.0843192 5.39967e-20)
(0.993017 0.0957737 -1.5832e-19)
(0.970157 0.106015 3.11921e-23)
(0.934612 0.106694 -2.27676e-23)
(0.892799 0.0905043 0)
(0.855072 0.0511932 5.50763e-24)
(0.841824 -0.00785083 2.85134e-21)
(0.863231 -0.0634164 -5.83775e-21)
(0.903485 -0.0965384 0)
(0.94423 -0.107681 1.2627e-20)
(0.980339 -0.100041 2.2407e-22)
(1.00359 -0.0906386 0)
(1.02019 -0.0710201 -4.33984e-19)
(1.02659 -0.0596194 -2.2119e-19)
(1.03153 -0.0496558 0)
(1.03386 -0.0407148 -2.78928e-19)
(1.03448 -0.0332421 7.02624e-24)
(1.03431 -0.0270607 -8.76086e-22)
(1.03377 -0.0218798 0)
(1.0331 -0.0175471 0)
(1.0324 -0.0138793 0)
(1.03175 -0.0107279 0)
(1.03119 -0.00796882 0)
(1.03075 -0.00549688 0)
(1.03045 -0.00322094 0)
(1.03028 -0.00106064 0)
(1.0273 0.00112542 0)
(1.02737 0.00340997 0)
(1.02748 0.00579324 0)
(1.02762 0.00834127 0)
(1.02776 0.0111264 0)
(1.02787 0.0142277 0)
(1.02787 0.0177317 0)
(1.02766 0.0217324 0)
(1.02712 0.0263278 0)
(1.02601 0.0316124 0)
(1.02408 0.037616 -5.54756e-20)
(1.02067 0.0442514 1.06814e-19)
(1.01525 0.0513877 -5.49623e-20)
(1.00731 0.0588355 1.08851e-19)
(0.99992 0.0680586 0)
(0.983634 0.0737918 -5.28504e-20)
(0.965349 0.0778598 -8.3141e-24)
(0.940734 0.073606 -1.26362e-20)
(0.915537 0.0581712 0)
(0.89595 0.0308705 3.03287e-21)
(0.889801 -0.00458547 4.04546e-25)
(0.899869 -0.0387213 3.04398e-21)
(0.921606 -0.0631227 -1.57557e-27)
(0.94711 -0.0756853 1.27092e-20)
(0.973545 -0.0750537 5.22144e-20)
(0.992356 -0.0715699 5.33209e-20)
(1.00731 -0.0588669 1.08863e-19)
(1.01522 -0.0513751 -2.73813e-19)
(1.02065 -0.0442657 0)
(1.02407 -0.0376369 -5.5475e-20)
(1.02601 -0.0316341 0)
(1.02712 -0.0263476 0)
(1.02767 -0.0217499 0)
(1.02787 -0.0177465 0)
(1.02788 -0.0142398 0)
(1.02777 -0.0111361 0)
(1.02763 -0.00834858 0)
(1.02749 -0.00579835 0)
(1.02738 -0.00341299 0)
(1.02731 -0.00112641 0)
(1.02423 0.00113107 0)
(1.02422 0.00341981 0)
(1.02417 0.00578534 0)
(1.02407 0.00827675 0)
(1.02389 0.0109454 0)
(1.02358 0.0138431 0)
(1.02307 0.0170205 0)
(1.02226 0.0205234 0)
(1.02102 0.0243863 0)
(1.01917 0.0286192 0)
(1.01651 0.0331966 0)
(1.01269 0.0380136 -3.43045e-21)
(1.00731 0.0427731 -5.45417e-20)
(0.999312 0.047224 1.08038e-19)
(0.992707 0.0531753 0)
(0.980212 0.0555376 2.65016e-20)
(0.966444 0.0565629 0)
(0.94988 0.0508157 5.43078e-24)
(0.934605 0.0382932 0)
(0.923748 0.019565 1.56644e-21)
(0.920505 -0.002837 1.55924e-21)
(0.925861 -0.0246742 -2.55476e-24)
(0.938166 -0.0420003 1.42309e-27)
(0.954 -0.0528747 0)
(0.972667 -0.0552742 1.3158e-20)
(0.986911 -0.0548712 -2.6689e-20)
(0.999254 -0.0472264 1.07185e-19)
(1.0073 -0.0427962 -5.45419e-20)
(1.01268 -0.0380309 0)
(1.0165 -0.0332132 0)
(1.01916 -0.0286354 0)
(1.02102 -0.0244014 0)
(1.02226 -0.0205371 0)
(1.02307 -0.0170325 0)
(1.02359 -0.0138532 0)
(1.0239 -0.0109536 0)
(1.02408 -0.00828308 0)
(1.02418 -0.00578982 0)
(1.02423 -0.00342248 0)
(1.02424 -0.00113196 0)
(1.02121 0.00109065 0)
(1.02113 0.00329097 0)
(1.02097 0.00554532 0)
(1.0207 0.00788623 0)
(1.02029 0.0103456 0)
(1.0197 0.0129519 0)
(1.01886 0.0157276 0)
(1.01768 0.018684 0)
(1.01608 0.0218154 0)
(1.0139 0.0250868 0)
(1.01101 0.0284223 0)
(1.0072 0.0316806 0)
(1.00229 0.034625 0)
(0.995367 0.0368203 -6.09149e-26)
(0.987553 0.0379235 -3.34517e-21)
(0.980021 0.0404952 0)
(0.969622 0.0382537 -4.06308e-24)
(0.959413 0.0323161 -6.88004e-24)
(0.950812 0.022819 -3.21919e-21)
(0.94529 0.0103945 3.20254e-21)
(0.944121 -0.00348338 -4.79812e-21)
(0.947573 -0.0168601 0)
(0.954834 -0.0279631 -1.29257e-20)
(0.964376 -0.0357121 -3.26272e-21)
(0.974955 -0.039868 0)
(0.9875 -0.0379225 3.34499e-21)
(0.995345 -0.0368345 -8.43021e-22)
(1.00228 -0.034639 0)
(1.00719 -0.0316934 0)
(1.011 -0.0284347 0)
(1.0139 -0.0250989 0)
(1.01608 -0.0218268 0)
(1.01768 -0.0186946 0)
(1.01886 -0.015737 0)
(1.0197 -0.01296 0)
(1.0203 -0.0103523 0)
(1.02071 -0.00789147 0)
(1.02098 -0.00554907 0)
(1.02114 -0.00329322 0)
(1.02121 -0.0010914 0)
(1.01834 0.0010183 0)
(1.01822 0.00306695 0)
(1.01798 0.00514898 0)
(1.0176 0.00728271 0)
(1.01705 0.00948413 0)
(1.01629 0.011764 0)
(1.01528 0.0141249 0)
(1.01394 0.0165568 0)
(1.0122 0.0190315 0)
(1.00998 0.0214946 0)
(1.00718 0.0238579 0)
(1.0037 0.0259885 0)
(0.999468 0.0276956 0)
(0.993933 0.0286322 0)
(0.987732 0.0284533 0)
(0.981304 0.0268877 0)
(0.974703 0.023635 0)
(0.968866 0.0185855 0)
(0.964384 0.0119276 -4.93321e-27)
(0.961911 0.00412554 1.01858e-22)
(0.961907 -0.00409827 1.01834e-22)
(0.964373 -0.0119028 4.92282e-27)
(0.96885 -0.0185648 0)
(0.974684 -0.0236188 0)
(0.981282 -0.0268767 0)
(0.987706 -0.0284502 0)
(0.993914 -0.0286364 0)
(0.999454 -0.0277026 0)
(1.00369 -0.0259967 0)
(1.00717 -0.0238664 0)
(1.00997 -0.0215032 0)
(1.0122 -0.0190398 0)
(1.01394 -0.0165646 0)
(1.01528 -0.014132 0)
(1.01629 -0.0117703 0)
(1.01705 -0.0094894 0)
(1.01761 -0.00728688 0)
(1.01799 -0.005152 0)
(1.01823 -0.00306877 0)
(1.01834 -0.00101891 0)
(1.01569 0.000926623 0)
(1.01555 0.00278609 0)
(1.01527 0.00466195 0)
(1.01483 0.00656137 0)
(1.01421 0.00848851 0)
(1.01338 0.0104419 0)
(1.0123 0.0124119 0)
(1.01093 0.0143774 0)
(1.00922 0.016302 0)
(1.00712 0.0181293 0)
(1.00458 0.0197793 0)
(1.00155 0.0211449 0)
(0.998021 0.0220851 0)
(0.993725 0.0223651 0)
(0.989023 0.0217484 0)
(0.984375 0.0201073 0)
(0.979827 0.0173349 0)
(0.975943 0.0134137 0)
(0.973036 0.0085068 0)
(0.971463 0.00292329 2.25202e-36)
(0.971461 -0.00290393 -2.2371e-36)
(0.973029 -0.00848885 0)
(0.975932 -0.0133983 0)
(0.979813 -0.0173229 0)
(0.98436 -0.0200991 0)
(0.989007 -0.0217444 0)
(0.993711 -0.0223653 0)
(0.99801 -0.0220878 0)
(1.00154 -0.0211493 0)
(1.00457 -0.0197846 0)
(1.00712 -0.018135 0)
(1.00922 -0.0163078 0)
(1.01093 -0.0143831 0)
(1.0123 -0.0124172 0)
(1.01338 -0.0104466 0)
(1.01421 -0.00849253 0)
(1.01483 -0.00656459 0)
(1.01527 -0.0046643 0)
(1.01556 -0.00278752 0)
(1.0157 -0.0009271 0)
(1.01331 0.000825838 0)
(1.01316 0.00247925 0)
(1.01286 0.00413618 0)
(1.0124 0.00579576 0)
(1.01176 0.00745414 0)
(1.01093 0.00910235 0)
(1.00987 0.0107244 0)
(1.00856 0.0122951 0)
(1.00697 0.0137776 0)
(1.00507 0.0151212 0)
(1.00284 0.0162597 0)
(1.00027 0.0171101 0)
(0.997388 0.0175734 0)
(0.994076 0.0175006 0)
(0.990547 0.0167386 0)
(0.987147 0.0152208 0)
(0.983956 0.0129188 0)
(0.981296 0.00986783 0)
(0.979342 0.0062019 0)
(0.978301 0.00212117 0)
(0.978299 -0.00210698 0)
(0.979337 -0.0061886 0)
(0.981288 -0.0098562 0)
(0.983947 -0.0129094 0)
(0.987136 -0.0152141 0)
(0.990536 -0.0167347 0)
(0.994066 -0.0174992 0)
(0.997379 -0.017574 0)
(1.00026 -0.0171121 0)
(1.00284 -0.0162627 0)
(1.00506 -0.0151248 0)
(1.00696 -0.0137814 0)
(1.00855 -0.012299 0)
(1.00987 -0.0107281 0)
(1.01093 -0.00910577 0)
(1.01176 -0.0074571 0)
(1.0124 -0.00579816 0)
(1.01286 -0.00413794 0)
(1.01316 -0.00248033 0)
(1.01331 -0.0008262 0)
(1.0112 0.000723623 0)
(1.01105 0.00216942 0)
(1.01076 0.00360972 0)
(1.01031 0.00503841 0)
(1.00969 0.0064467 0)
(1.00889 0.00782163 0)
(1.0079 0.00914471 0)
(1.0067 0.0103906 0)
(1.00527 0.0115256 0)
(1.0036 0.0125069 0)
(1.0017 0.0132821 0)
(0.999565 0.0137892 0)
(0.997231 0.013961 0)
(0.994677 0.0137071 0)
(0.99203 0.0129364 0)
(0.989528 0.0116124 0)
(0.987252 0.00974023 0)
(0.985373 0.00737022 0)
(0.984016 0.00460131 0)
(0.983301 0.00156828 0)
(0.9833 -0.00155769 0)
(0.984013 -0.0045913 0)
(0.985368 -0.00736134 0)
(0.987245 -0.00973284 0)
(0.989521 -0.0116067 0)
(0.992022 -0.0129327 0)
(0.99467 -0.0137051 0)
(0.997224 -0.0139605 0)
(0.999559 -0.0137899 0)
(1.0017 -0.0132836 0)
(1.0036 -0.0125089 0)
(1.00526 -0.011528 0)
(1.00669 -0.0103931 0)
(1.0079 -0.00914725 0)
(1.00889 -0.00782401 0)
(1.00969 -0.0064488 0)
(1.01031 -0.00504014 0)
(1.01076 -0.00361101 0)
(1.01105 -0.00217021 0)
(1.0112 -0.000723888 0)
(1.00937 0.000625285 0)
(1.00922 0.00187234 0)
(1.00894 0.00310817 0)
(1.00852 0.00432358 0)
(1.00795 0.00550719 0)
(1.00721 0.00664442 0)
(1.00632 0.00771667 0)
(1.00524 0.00870046 0)
(1.004 0.00956686 0)
(1.00257 0.0102812 0)
(1.00097 0.0108035 0)
(0.999218 0.0110889 0)
(0.997342 0.0110917 0)
(0.995365 0.010759 0)
(0.993368 0.0100401 0)
(0.991514 0.00892037 0)
(0.989855 0.00741836 0)
(0.988497 0.00557664 0)
(0.987529 0.00346516 0)
(0.987024 0.00117816 1.81524e-36)
(0.987023 -0.00117013 -1.80287e-36)
(0.987527 -0.00345752 0)
(0.988494 -0.00556975 0)
(0.98985 -0.00741248 0)
(0.991508 -0.00891568 0)
(0.993363 -0.0100366 0)
(0.995359 -0.0107568 0)
(0.997336 -0.0110906 0)
(0.999213 -0.0110887 0)
(1.00097 -0.010804 0)
(1.00257 -0.0102822 0)
(1.00399 -0.00956823 0)
(1.00524 -0.00870203 0)
(1.00631 -0.00771831 0)
(1.00721 -0.006646 0)
(1.00795 -0.00550861 0)
(1.00852 -0.00432477 0)
(1.00894 -0.00310906 0)
(1.00922 -0.00187289 0)
(1.00937 -0.000625472 0)
(1.00779 0.000534144 0)
(1.00766 0.00159773 0)
(1.0074 0.00264694 0)
(1.00702 0.00367112 0)
(1.0065 0.0046579 0)
(1.00584 0.00559266 0)
(1.00505 0.00645802 0)
(1.00412 0.00723338 0)
(1.00305 0.00789481 0)
(1.00184 0.00841509 0)
(1.00052 0.00876452 0)
(0.999087 0.00891138 0)
(0.997586 0.00882488 0)
(0.996049 0.00847487 0)
(0.994531 0.00783589 0)
(0.993138 0.00690614 0)
(0.991906 0.00570587 0)
(0.990907 0.00426778 0)
(0.990201 0.00264237 0)
(0.989836 0.000896748 0)
(0.989835 -0.000890541 0)
(0.9902 -0.00263642 0)
(0.990904 -0.00426233 0)
(0.991902 -0.00570111 0)
(0.993134 -0.0069022 0)