/*--------------------------------*- C++ -*----------------------------------*\
| =========                 |                                                 |
| \\      /  F ield         | OpenFOAM: The Open Source CFD Toolbox           |
|  \\    /   O peration     | Version:  v2106                                 |
|   \\  /    A nd           | Website:  www.openfoam.com                      |
|    \\/     M anipulation  |                                                 |
\*---------------------------------------------------------------------------*/
FoamFile
{
    version     2.0;
    format      ascii;
    arch        "LSB;label=32;scalar=64";
    class       volScalarField;
    location    "149.985";
    object      p;
}
// * * * * * * * * * * * * * * * * * * * * * * * * * * * * * * * * * * * * * //

dimensions      [0 2 -2 0 0 0 0];

internalField   nonuniform List<scalar> 
11644
(
0.0285735
0.0290713
0.0300699
0.031584
0.0336337
0.0362414
0.0394294
0.0432138
0.0475939
0.0525617
0.0580898
0.0641692
0.0705042
0.0777534
0.0848866
0.0914434
0.0978319
0.103562
0.108501
0.112373
0.115113
0.116689
0.116967
0.116238
0.114435
0.112132
0.108744
0.104701
0.101328
0.0975949
0.0941291
0.0908502
0.0878479
0.0851797
0.0828726
0.0809445
0.0794025
0.0782472
0.0774775
0.0770917
0.0276962
0.0281789
0.0291488
0.0306217
0.032619
0.0351676
0.0382962
0.0420381
0.0464158
0.0514381
0.0571145
0.0634198
0.0702296
0.0771987
0.0844038
0.0919224
0.0989351
0.105251
0.110666
0.114924
0.117774
0.119201
0.119233
0.118017
0.115718
0.112263
0.108947
0.105376
0.101321
0.0974245
0.0937305
0.0903007
0.0872156
0.0844997
0.0821694
0.080235
0.0786956
0.0775473
0.0767847
0.0764034
0.0259537
0.0264035
0.0273108
0.0286948
0.0305833
0.0330141
0.0360317
0.0396843
0.0440298
0.0490982
0.0549
0.0614585
0.0686284
0.0764127
0.0845905
0.0930251
0.101194
0.108709
0.11512
0.119977
0.123079
0.124314
0.123729
0.121621
0.118424
0.114479
0.109985
0.10533
0.100893
0.0966067
0.0926347
0.0890392
0.0858573
0.0830957
0.0807557
0.0788274
0.077301
0.0761668
0.0754161
0.0750413
0.0233678
0.0237717
0.0245904
0.0258479
0.0275787
0.0298296
0.0326593
0.0361353
0.0403367
0.0453534
0.051252
0.0580887
0.0660208
0.0747231
0.0842707
0.0944933
0.10448
0.114034
0.122123
0.128134
0.131606
0.132471
0.130871
0.127298
0.122611
0.116787
0.111121
0.105581
0.100163
0.0952595
0.09087
0.0870152
0.0836982
0.0808936
0.0785621
0.0766693
0.075186
0.0740911
0.0733693
0.0730101
0.0200266
0.0203676
0.0210614
0.0221333
0.0236207
0.0255781
0.0280822
0.0312302
0.0351485
0.039986
0.0458853
0.0530036
0.0613389
0.0717615
0.0835495
0.0959874
0.108652
0.121474
0.132402
0.14018
0.144317
0.144491
0.141133
0.135135
0.127916
0.120199
0.112265
0.104763
0.0985536
0.0930301
0.0882299
0.0841489
0.0807355
0.0779054
0.075599
0.0737585
0.072338
0.0713024
0.0706262
0.0702919
0.0160268
0.0162784
0.0167954
0.0176055
0.0187524
0.0203
0.0223396
0.0249954
0.0284211
0.0328419
0.0385145
0.0456663
0.0547409
0.0656255
0.0795165
0.0965668
0.11385
0.131702
0.147202
0.158391
0.163411
0.161959
0.15517
0.145162
0.133875
0.122394
0.111934
0.103199
0.0957046
0.0894206
0.0842653
0.0801018
0.0767252
0.074001
0.071819
0.0700996
0.0687867
0.0678374
0.0672214
0.0669184
0.0115014
0.0116438
0.0119424
0.0124247
0.0131339
0.014133
0.01551
0.0173911
0.0199575
0.0234589
0.0283163
0.0349452
0.0432441
0.0552929
0.0734769
0.0943173
0.112584
0.135384
0.157144
0.174825
0.183658
0.182271
0.17264
0.158605
0.138916
0.12346
0.108697
0.098685
0.0905942
0.0839343
0.0787391
0.0746986
0.0715406
0.0690652
0.0671315
0.0656409
0.0645209
0.0637199
0.0632041
0.0629516
0.00665295
0.00666393
0.00669579
0.00676802
0.00691368
0.00718334
0.00765517
0.00844517
0.00972789
0.0117747
0.0149778
0.02027
0.0287594
0.0386274
0.0561947
0.078881
0.108811
0.144932
0.18194
0.211727
0.225021
0.218741
0.198182
0.17179
0.14675
0.123782
0.10678
0.0910776
0.0821061
0.075704
0.0711296
0.0677089
0.0650967
0.0630979
0.0615786
0.0604371
0.059599
0.0590113
0.0586384
0.0584578
0.00172541
0.00158352
0.00130348
0.000892535
0.000365055
-0.000252307
-0.000915678
-0.0015464
-0.00203198
-0.00218582
-0.00166915
0.000189165
0.00474016
0.0172754
0.0311696
0.0559094
0.0901396
0.140227
0.202789
0.258127
0.285514
0.271741
0.231084
0.186051
0.145412
0.113754
0.0954723
0.0767345
0.0692958
0.0644779
0.0612484
0.0589482
0.0572806
0.0560703
0.0551939
0.0545639
0.0541187
0.0538167
0.05363
0.0535414
-0.0030106
-0.00331741
-0.00393559
-0.00487603
-0.00615446
-0.00778735
-0.00979251
-0.0121798
-0.0149372
-0.0180586
-0.0215142
-0.0248806
-0.0274175
-0.0197619
-0.0130993
0.0079957
0.0434948
0.105703
0.207719
0.332277
0.399704
0.355927
0.258202
0.177022
0.119674
0.0830749
0.0694596
0.0544565
0.0517258
0.0500331
0.0491055
0.0485836
0.0483026
0.0481823
0.0481633
0.0481936
0.0482439
0.0482952
0.048336
0.0483587
-0.00726578
-0.00773419
-0.00868431
-0.0101491
-0.012181
-0.0148536
-0.0182658
-0.0225535
-0.0278857
-0.0344591
-0.042784
-0.0533221
-0.0649891
-0.0673515
-0.0785955
-0.0812397
-0.0724698
-0.0434927
0.0732401
0.352639
0.595984
0.408335
0.17891
0.0780673
0.0415032
0.0282746
0.0300236
0.0267184
0.0297588
0.0325828
0.035056
0.0369655
0.038483
0.039743
0.0407662
0.0415804
0.0422078
0.0426654
0.0429651
0.0431145
-0.0107277
-0.0113334
-0.0125677
-0.0144874
-0.0171835
-0.0207881
-0.0254857
-0.0315347
-0.0393126
-0.0493047
-0.0621887
-0.0799128
-0.10218
-0.114617
-0.153264
-0.187433
-0.249988
-0.3738
-0.685253
-0.374034
-0.153616
-0.0738531
-0.0380336
-0.0157924
-0.00387184
0.00597929
0.014317
0.0205134
0.0250206
0.0285446
0.03129
0.0334209
0.0350607
0.0362951
0.0371796
0.0377514
0.0380343
-0.01312
-0.0138239
-0.0152602
-0.0175028
-0.0206663
-0.0249209
-0.0305148
-0.0377822
-0.047236
-0.0596168
-0.0755846
-0.0978757
-0.126934
-0.152864
-0.208066
-0.272119
-0.382992
-0.592678
-0.836765
-0.416342
-0.282586
-0.155383
-0.0913154
-0.0543685
-0.0305957
-0.0145071
-0.00190299
0.00716024
0.014042
0.0193819
0.0234947
0.026656
0.0290685
0.0308667
0.0321447
0.032966
0.0333709
-0.0142498
-0.0149929
-0.0165063
-0.0188689
-0.0222004
-0.0266801
-0.0325686
-0.0402664
-0.0501525
-0.0633713
-0.0797659
-0.102972
-0.133003
-0.165753
-0.224501
-0.298079
-0.411023
-0.574389
-0.649421
-0.309204
-0.253966
-0.17111
-0.11308
-0.0771255
-0.0475945
-0.02883
-0.0140836
-0.0032406
0.00526629
0.0118787
0.0169952
0.0209593
0.0239902
0.0262492
0.0278534
0.0288814
0.0293873
-0.0140212
-0.0147351
-0.0161872
-0.0184503
-0.0216296
-0.0258757
-0.0313764
-0.0385153
-0.0476688
-0.0594526
-0.0743716
-0.0939791
-0.11927
-0.152537
-0.202442
-0.272638
-0.381909
-0.560278
-0.7191
-0.752704
-0.597293
-0.349493
-0.222021
-0.190167
-0.157483
-0.116653
-0.0856151
-0.0557222
-0.0367619
-0.0215592
-0.00993255
-0.000629141
0.00665429
0.0123436
0.0167838
0.0201886
0.0227408
0.0245593
0.0257284
0.0263026
-0.0124506
-0.0130758
-0.0143413
-0.0163005
-0.0190186
-0.0225991
-0.0270508
-0.0327953
-0.0399049
-0.048694
-0.0593181
-0.0728294
-0.0892127
-0.116184
-0.148633
-0.198018
-0.286236
-0.446464
-0.716874
-0.836068
-0.646432
-0.304425
-0.176291
-0.175458
-0.156792
-0.117801
-0.0878796
-0.0573114
-0.0389048
-0.0244042
-0.0128508
-0.00348331
0.00386141
0.00974161
0.0143305
0.0178771
0.0205413
0.0224427
0.0236657
0.0242651
-0.00966396
-0.0101504
-0.0111188
-0.0125963
-0.0146119
-0.0171757
-0.0202975
-0.0240366
-0.02831
-0.0331579
-0.0382878
-0.0438118
-0.0500459
-0.055055
-0.0761455
-0.0931729
-0.138322
-0.197348
-0.319266
-0.461044
-0.457244
-0.352106
-0.303346
-0.258033
-0.173085
-0.120997
-0.076487
-0.052976
-0.0364207
-0.0225299
-0.0117443
-0.00304167
0.00386541
0.00940946
0.0137785
0.0171887
0.0197645
0.0216113
0.0228014
0.0233831
-0.00586933
-0.00618924
-0.00682395
-0.00776584
-0.00899071
-0.0104473
-0.0120617
-0.0137075
-0.0151615
-0.01614
-0.0162916
-0.0148183
-0.0114194
-0.00546264
-0.00853056
-0.000161058
-0.00771549
-0.0221191
-0.099558
-0.281805
-0.436647
-0.480336
-0.429849
-0.30124
-0.174886
-0.116824
-0.0667182
-0.0463516
-0.0296543
-0.017281
-0.00752976
0.000194842
0.00633255
0.011225
0.0150924
0.0181151
0.0204084
0.0220612
0.0231309
0.0236547
-0.00137459
-0.00153922
-0.00185489
-0.00228797
-0.00278296
-0.00325173
-0.00353883
-0.00354215
-0.00279142
-0.0011051
0.00244596
0.00786164
0.0178834
0.0292729
0.0357414
0.0585505
0.066986
0.047689
-0.0837523
-0.313781
-0.480591
-0.488722
-0.379926
-0.241543
-0.141048
-0.0946886
-0.0532006
-0.0335017
-0.01963
-0.0087468
-0.000667167
0.00576891
0.0107944
0.0147924
0.0179578
0.020431
0.0223105
0.0236657
0.0245438
0.0249737
0.00348666
0.00344766
0.00338842
0.00334913
0.00339447
0.00361584
0.00419698
0.00523323
0.00727471
0.0105181
0.0157602
0.0230096
0.0339856
0.0452103
0.0550932
0.0756061
0.0806001
0.0364559
-0.0709187
-0.214914
-0.303401
-0.290573
-0.221378
-0.153799
-0.0950323
-0.0626002
-0.0304719
-0.01624
-0.00592502
0.00217024
0.00827689
0.0131221
0.0168123
0.0197303
0.0220266
0.0238235
0.0251939
0.0261871
0.0268326
0.0271485
0.00844527
0.0084877
0.0085899
0.00878686
0.0091386
0.00972845
0.0107064
0.0122238
0.0145611
0.0179094
0.0227502
0.0290306
0.0369772
0.0443483
0.0513995
0.0573183
0.0471449
-0.00776599
-0.0815819
-0.153131
-0.185131
-0.169714
-0.131082
-0.0926984
-0.0548036
-0.0352253
-0.00623944
0.00198644
0.00974498
0.0145066
0.0184932
0.021425
0.0236727
0.025453
0.0268391
0.0279177
0.0287396
0.0293384
0.0297289
0.0299199
0.0133023
0.0133852
0.0135627
0.0138574
0.0143053
0.0149513
0.015848
0.0170662
0.018676
0.020701
0.0230064
0.0274987
0.0298363
0.0340192
0.0222837
0.00721001
-0.0360459
-0.106859
-0.169197
-0.199217
-0.180644
-0.133247
-0.0835914
-0.0487159
-0.0331316
-0.0186374
0.00257621
0.0147965
0.0223867
0.0268841
0.0290407
0.0302202
0.0309926
0.031554
0.0319896
0.0323385
0.0326167
0.0328244
0.0329635
0.033031
0.0179588
0.0180542
0.0182444
0.0185307
0.0189145
0.0193945
0.0199536
0.0205559
0.0211773
0.0215857
0.0211743
0.0198175
0.0133428
-0.000775392
-0.030786
-0.116077
-0.242592
-0.308774
-0.36753
-0.353008
-0.259004
-0.16321
-0.0830993
-0.0400685
-0.0123586
0.00596526
0.0180237
0.0291007
0.0362634
0.0393127
0.0389606
0.0386797
0.0381706
0.0376321
0.0371545
0.0367895
0.0365352
0.0363711
0.0362763
0.0362317
0.0223767
0.0224673
0.0226401
0.0228824
0.0231779
0.0234912
0.023772
0.0238548
0.02363
0.0225
0.0199598
0.0146583
0.00467347
-0.0137291
-0.0455818
-0.103249
-0.187449
-0.254394
-0.298401
-0.294799
-0.235836
-0.155091
-0.0696217
-0.0277517
-0.0100748
0.0106413
0.0335098
0.0489623
0.0549226
0.055969
0.0475177
0.0465252
0.0447851
0.0432537
0.0419528
0.0409674
0.040249
0.0397593
0.0394563
0.0393129
0.0265365
0.0266295
0.0268012
0.0270315
0.0272782
0.0274662
0.0274679
0.0270403
0.0259141
0.0236204
0.0194199
0.0125372
0.00196897
-0.0146168
-0.0384198
-0.0735251
-0.120764
-0.164255
-0.19654
-0.206472
-0.182957
-0.137093
-0.0741489
-0.0317437
-0.0168581
0.0101037
0.045739
0.0670445
0.0714833
0.0667259
0.0599989
0.0549685
0.0510699
0.0481754
0.0460697
0.0445552
0.0434867
0.0427652
0.0423166
0.0421049
0.0304559
0.0305638
0.0307567
0.0310003
0.0312288
0.0313311
0.0311685
0.0304782
0.0289477
0.0261429
0.0213006
0.0137651
0.00239384
-0.0122523
-0.0310549
-0.0549338
-0.0844485
-0.112123
-0.138479
-0.154459
-0.15005
-0.128865
-0.0904124
-0.05726
-0.0342664
0.00542572
0.0493406
0.0745774
0.0790506
0.0721373
0.0653205
0.0595313
0.0549521
0.0515377
0.0490464
0.0472641
0.0460198
0.0451892
0.0446789
0.0444395
0.0341159
0.0342493
0.0344955
0.0348242
0.0351839
0.0354833
0.0355972
0.0352842
0.0342098
0.03166
0.0269466
0.0193404
0.00816071
-0.00542208
-0.0232801
-0.0437104
-0.0663291
-0.087762
-0.109349
-0.128072
-0.138336
-0.142361
-0.136193
-0.115894
-0.0762261
-0.0174062
0.0321634
0.0579559
0.0654329
0.0642419
0.0612373
0.0578129
0.0547514
0.0522831
0.0503228
0.0488344
0.0477366
0.0469748
0.0464956
0.0462675
0.0374707
0.0376612
0.0380338
0.0385795
0.0392679
0.040041
0.0407615
0.0412051
0.0409132
0.0393556
0.0349368
0.0268823
0.0148837
-0.0022511
-0.0218881
-0.0408379
-0.0576493
-0.0750808
-0.0950385
-0.117802
-0.143345
-0.172074
-0.195501
-0.186879
-0.138449
-0.0654121
-0.00919338
0.0251268
0.0427525
0.0500288
0.0524513
0.0526243
0.0519749
0.0510373
0.0501283
0.0493206
0.0486499
0.048143
0.0478038
0.0476376
0.0404677
0.0407323
0.0412602
0.0420524
0.0430961
0.0443446
0.0457133
0.0469582
0.0476675
0.046754
0.0424712
0.0308605
0.00964771
-0.0157567
-0.0354062
-0.0472429
-0.0571089
-0.0725545
-0.0916024
-0.116113
-0.149851
-0.186046
-0.219002
-0.216487
-0.179203
-0.0797879
-0.0313562
0.00463234
0.0268467
0.0383619
0.0447707
0.0477341
0.048967
0.0494775
0.0494726
0.0493225
0.0490995
0.0488941
0.0487369
0.0486548
0.0429963
0.0433067
0.0439356
0.0448935
0.0461972
0.0478505
0.0497792
0.0517961
0.053449
0.0529928
0.0490833
0.0297172
-0.00252819
-0.0327798
-0.0501195
-0.0575014
-0.0665675
-0.0826023
-0.0993997
-0.120675
-0.147709
-0.171656
-0.186082
-0.173351
-0.136215
-0.0824145
-0.0371792
-0.00365639
0.0184086
0.0319017
0.0397783
0.0444237
0.0471007
0.0485173
0.0491916
0.0494848
0.0495611
0.0495479
0.0495097
0.0494823
0.0448838
0.0452071
0.0458785
0.0469359
0.0484311
0.050447
0.053008
0.0560106
0.0589928
0.0609726
0.0551217
0.0345205
-0.00112922
-0.0355548
-0.0515105
-0.0610423
-0.0792756
-0.0963441
-0.108857
-0.126249
-0.141125
-0.149513
-0.147407
-0.128251
-0.0985646
-0.0636399
-0.0314031
-0.0051552
0.0143021
0.0279939
0.0368867
0.0426393
0.0461636
0.0481772
0.0493419
0.0499274
0.0501883
0.0502803
0.0502965
0.0502888
0.0460651
0.0463777
0.04703
0.0480599
0.0495252
0.0514834
0.0540354
0.0570935
0.0602174
0.0625894
0.0578746
0.0395454
0.00657355
-0.0288357
-0.0483118
-0.063963
-0.0845513
-0.0999572
-0.110869
-0.122426
-0.128915
-0.12857
-0.119656
-0.100054
-0.0745993
-0.0474342
-0.0223945
-0.00110343
0.0159024
0.0282023
0.0371819
0.0430454
0.0465562
0.0487905
0.0499868
0.0506391
0.0509442
0.05107
0.0511034
0.0511034
0.0466366
0.0468839
0.0473889
0.0481528
0.0491804
0.0504497
0.0518706
0.0532747
0.0539188
0.0526794
0.0456146
0.0271819
-0.00519782
-0.0435544
-0.0669172
-0.0784077
-0.0868327
-0.0944191
-0.100915
-0.106848
-0.109711
-0.10721
-0.0973985
-0.0812545
-0.0603943
-0.0370022
-0.014474
0.00568444
0.0214702
0.0326298
0.0407276
0.0458439
0.0490098
0.0506179
0.0514183
0.0517688
0.0518828
0.0518874
0.0518567
0.0518298
0.0466989
0.0468275
0.0470796
0.0474241
0.047794
0.048089
0.0480494
0.0472001
0.0445501
0.038507
0.0260006
0.00313377
-0.0312686
-0.0692136
-0.0924905
-0.0955589
-0.0898039
-0.0876175
-0.0877343
-0.0884112
-0.0891146
-0.0875959
-0.0817262
-0.0713156
-0.0572271
-0.0397662
-0.0191891
0.00275815
0.0223403
0.0363322
0.0453636
0.050001
0.0524458
0.053249
0.0534202
0.0532568
0.052997
0.0527454
0.0525576
0.0524529
0.04641
0.0464336
0.0464626
0.0464393
0.0462774
0.0457558
0.0446033
0.0421806
0.0374625
0.0286289
0.01349
-0.00930338
-0.0425481
-0.0755184
-0.097286
-0.099512
-0.0895441
-0.0831652
-0.079696
-0.07819
-0.0777491
-0.0770674
-0.0756623
-0.0718882
-0.0642867
-0.0529857
-0.0366722
-0.0146466
0.0109916
0.0330638
0.0472225
0.0536079
0.0555395
0.0558461
0.055288
0.054615
0.0539801
0.0534787
0.0531359
0.0529586
0.0460573
0.0460253
0.0459259
0.0456876
0.0451724
0.0442144
0.0423792
0.0391929
0.0339445
0.0250909
0.0111917
-0.00873032
-0.0345708
-0.0613485
-0.0816668
-0.0918
-0.0845092
-0.0851125
-0.0839236
-0.0827277
-0.0815825
-0.0799992
-0.0794071
-0.0789829
-0.0755411
-0.0669906
-0.0525967
-0.0302147
-0.0010765
0.0279128
0.0470751
0.0561663
0.0585342
0.0575685
0.0565125
0.055406
0.0544903
0.0538141
0.0533793
0.0531708
0.0458792
0.0458271
0.0456841
0.0453762
0.0447716
0.0436541
0.041777
0.0384954
0.0332051
0.0250796
0.0130235
-0.00295732
-0.0229922
-0.0449936
-0.0644783
-0.078484
-0.0861587
-0.0920552
-0.0953787
-0.096302
-0.0923482
-0.0882075
-0.0865511
-0.0858683
-0.0832487
-0.0727263
-0.0551805
-0.031545
-0.0018716
0.0289009
0.048518
0.057384
0.059587
0.0581047
0.0566847
0.055341
0.0542886
0.0535447
0.053078
0.0528566
0.0458332
0.0457957
0.0456961
0.0454676
0.0450307
0.0441384
0.0426001
0.0399476
0.0354944
0.0286186
0.018449
0.00499704
-0.0123994
-0.0329327
-0.053278
-0.0703859
-0.0835647
-0.0933263
-0.0994535
-0.101003
-0.0980472
-0.0938031
-0.0897329
-0.0858146
-0.0793192
-0.066477
-0.0477157
-0.0253898
0.000584291
0.0274849
0.0453398
0.0536858
0.0560645
0.0556775
0.0548514
0.0539
0.0531117
0.0525329
0.0521529
0.0519705
0.0457528
0.0457837
0.0458232
0.0458336
0.0457403
0.0454402
0.0445096
0.0428822
0.03966
0.0339552
0.0251155
0.0121681
-0.00481629
-0.0249264
-0.0451581
-0.0627665
-0.0766284
-0.0866614
-0.0924829
-0.0936357
-0.0912408
-0.0868094
-0.0812208
-0.0745056
-0.0653837
-0.0534134
-0.0403742
-0.0256151
-0.00664225
0.0158659
0.0333501
0.0436795
0.0485104
0.0504541
0.0511141
0.0511729
0.0510397
0.0508605
0.0507166
0.0506439
0.0455705
0.0456899
0.0459052
0.0462231
0.0465629
0.0469012
0.0468951
0.0459374
0.042973
0.0369048
0.0264402
0.0108663
-0.00784368
-0.0276917
-0.046026
-0.0609522
-0.0716951
-0.0784722
-0.0815333
-0.080858
-0.0775429
-0.0719752
-0.0645207
-0.0559372
-0.0465743
-0.0385863
-0.0337615
-0.0280156
-0.0159486
0.0029351
0.0208076
0.0334193
0.0408036
0.0448114
0.0469574
0.0480545
0.0486061
0.0488718
0.0489955
0.0490455
0.045199
0.0453703
0.0457067
0.0462307
0.0469155
0.0476604
0.0483325
0.0473913
0.0435062
0.0351958
0.0205464
0.000646139
-0.0214743
-0.0418236
-0.0577406
-0.068421
-0.0741605
-0.0762183
-0.0754582
-0.0719639
-0.0666916
-0.0589849
-0.0492607
-0.0396865
-0.031449
-0.026996
-0.025923
-0.0233157
-0.0141773
0.00105492
0.0166404
0.0284961
0.0362828
0.0410395
0.0438553
0.0455108
0.0464613
0.0470143
0.0473042
0.0474323
0.0444921
0.044663
0.0450175
0.0455503
0.0463318
0.0470354
0.0478462
0.0467322
0.0421562
0.0322623
0.0137677
-0.0102822
-0.0362156
-0.057966
-0.0723666
-0.0798201
-0.0820191
-0.0811783
-0.0782464
-0.0735295
-0.0668568
-0.0571948
-0.0462824
-0.0361887
-0.0281081
-0.0233998
-0.0203047
-0.0153669
-0.00582714
0.00670161
0.0187529
0.0283161
0.0350185
0.0394339
0.0422083
0.0439168
0.0449679
0.0455895
0.0459231
0.0460762
0.0433483
0.043472
0.0437339
0.044122
0.0446597
0.0451043
0.0452472
0.0438056
0.038727
0.0276751
0.00899785
-0.0158489
-0.0434756
-0.0674087
-0.0818555
-0.0888523
-0.0909959
-0.0904106
-0.0877583
-0.0833714
-0.076181
-0.065993
-0.0546144
-0.043383
-0.0336305
-0.0262984
-0.0186172
-0.00941642
0.00173698
0.0131946
0.0230916
0.0307193
0.0360766
0.0396047
0.0419071
0.0433163
0.0442017
0.0447037
0.0449854
0.04511
0.0417881
0.0418122
0.0418617
0.0418848
0.0418291
0.041414
0.0402363
0.0371255
0.0306631
0.0197796
0.00393622
-0.017181
-0.0416954
-0.0643594
-0.0800711
-0.0892118
-0.0940189
-0.096347
-0.0960244
-0.0924979
-0.0858018
-0.0761954
-0.0644905
-0.0521683
-0.040337
-0.0286987
-0.0167498
-0.00417
0.00863047
0.0200196
0.0286467
0.0347419
0.0387815
0.0410962
0.0425566
0.0434395
0.043936
0.0442017
0.0443475
0.0444052
0.0400262
0.0399267
0.0397105
0.0392781
0.038497
0.0370219
0.0343328
0.0294138
0.0216461
0.0114498
0.000111227
-0.0135635
-0.031355
-0.050591
-0.0667938
-0.0783909
-0.0862232
-0.0910644
-0.0929479
-0.0912741
-0.0863412
-0.0783878
-0.0679344
-0.0559733
-0.042981
-0.0289076
-0.0141266
0.000505863
0.0141294
0.0255101
0.0336201
0.0387525
0.0417577
0.0431423
0.0436805
0.0438499
0.0438458
0.0438027
0.0437624
0.0437297
0.0383223
0.0381355
0.0377333
0.0370018
0.0357816
0.0337552
0.0304662
0.0252104
0.0178345
0.00956935
0.00251448
-0.00461785
-0.0152477
-0.0295217
-0.0443867
-0.0574373
-0.067781
-0.0751531
-0.0796877
-0.0811623
-0.0794626
-0.0747248
-0.0674702
-0.0581193
-0.0465195
-0.0325818
-0.0167068
-0.000390549
0.0147227
0.0270058
0.0357001
0.0408324
0.0434201
0.0444647
0.0444304
0.0439532
0.0435507
0.0432401
0.0430341
0.0429242
0.0369046
0.0366978
0.0362696
0.0354946
0.0342407
0.0322721
0.0292866
0.0249155
0.0191972
0.0131147
0.00850306
0.00484033
-0.000480715
-0.00926981
-0.0208557
-0.033517
-0.0455676
-0.0557862
-0.0636053
-0.0690095
-0.0721044
-0.0723408
-0.0698791
-0.0649228
-0.0567216
-0.0446891
-0.0287065
-0.010016
0.00879285
0.0244022
0.0349972
0.0408047
0.0434036
0.0442259
0.0439331
0.0432593
0.042704
0.0422841
0.0420168
0.0418826
0.0358996
0.0356851
0.0354156
0.0347264
0.0336902
0.0320694
0.0296464
0.0262527
0.021795
0.016656
0.0123694
0.00935425
0.00664137
0.00213464
-0.00550123
-0.0162414
-0.0288942
-0.0416478
-0.0530802
-0.0625527
-0.0702186
-0.0754137
-0.0773089
-0.0763921
-0.0716965
-0.0619192
-0.0466832
-0.0261522
-0.00310265
0.0182241
0.0315898
0.038575
0.0414564
0.0422323
0.0420777
0.0416219
0.0411892
0.0408611
0.0406483
0.0405489
0.0353433
0.0352282
0.0349959
0.0345443
0.0338458
0.032713
0.0309542
0.028367
0.0246025
0.0197809
0.0147207
0.0107075
0.00791669
0.00455666
-0.00131076
-0.010853
-0.0236417
-0.038036
-0.0522897
-0.064995
-0.0756508
-0.0840035
-0.0887555
-0.089871
-0.0867898
-0.0781658
-0.0635262
-0.0427935
-0.0196618
0.0122851
0.0252903
0.0324756
0.0363479
0.0381814
0.0389198
0.0391
0.0390798
0.0390204
0.0389637
0.0389411
0.0350076
0.0349721
0.0348919
0.0347079
0.0344115
0.033854
0.0328406
0.0310865
0.0281207
0.0237226
0.0183425
0.0130819
0.00812239
0.00261675
-0.00470276
-0.0150855
-0.0284866
-0.0438337
-0.0593965
-0.0735122
-0.0850622
-0.0935023
-0.0990558
-0.0999709
-0.0955255
-0.0869696
-0.0718201
-0.0502518
-0.0236154
0.00114375
0.0167212
0.0247695
0.0297895
0.0330092
0.0349801
0.0360465
0.0366162
0.0369306
0.0370903
0.0371678
0.0346651
0.0347057
0.0347826
0.034867
0.0349218
0.0349216
0.0345368
0.0334373
0.031216
0.0275627
0.0224376
0.0162374
0.00891325
0.000492191
-0.00943292
-0.0214504
-0.0353479
-0.0505289
-0.0655738
-0.0791127
-0.0897387
-0.0967129
-0.100916
-0.100323
-0.0942224
-0.0842487
-0.0684521
-0.0465769
-0.021385
0.000261749
0.0139953
0.0208885
0.0256434
0.029263
0.0318074
0.0334
0.0343725
0.0349633
0.0352953
0.0354525
0.0341726
0.034266
0.0344461
0.0347224
0.0350201
0.0353914
0.0354346
0.0348076
0.03328
0.0304448
0.0255522
0.018251
0.00859968
-0.00257134
-0.0148184
-0.0277217
-0.0409131
-0.0541545
-0.0667538
-0.0774389
-0.0848075
-0.0888421
-0.089969
-0.0870754
-0.0797485
-0.0683672
-0.0520118
-0.0315571
-0.0105138
0.00640585
0.0164715
0.02141
0.0248478
0.0277965
0.0300734
0.031648
0.0326988
0.0333715
0.0337697
0.0339583
0.0334577
0.0335674
0.0337806
0.0341246
0.0345443
0.0350723
0.0354628
0.0353157
0.0343491
0.0318364
0.0259592
0.0159803
0.00284086
-0.0115206
-0.0255547
-0.0381684
-0.0490662
-0.0583404
-0.0661129
-0.071192
-0.0735539
-0.0735864
-0.0708506
-0.0648442
-0.0553589
-0.0426655
-0.0273588
-0.0114482
0.00254814
0.0126441
0.0186169
0.022126
0.0248695
0.0272926
0.0292059
0.0306041
0.0315686
0.0322062
0.0325887
0.0327706
0.0325184
0.0326063
0.0327833
0.0330716
0.0334363
0.0338705
0.0342891
0.034234
0.033138
0.0293213
0.0203713
0.00573755
-0.0119827
-0.0293284
-0.0439495
-0.0549432
-0.0622947
-0.0668375
-0.0686413
-0.0670192
-0.0634542
-0.0577755
-0.0496324
-0.0394414
-0.0275657
-0.0148697
-0.00304324
0.00605184
0.0119291
0.0153873
0.0182685
0.0213379
0.0243707
0.0269001
0.0287422
0.0300275
0.030873
0.0314314
0.0317562
0.0319112
0.0313896
0.0314271
0.0315043
0.0316159
0.0317188
0.0317619
0.0316158
0.0309073
0.0290226
0.0223805
0.00905609
-0.0106126
-0.0324624
-0.0515702
-0.0656885
-0.0746829
-0.0790235
-0.0797536
-0.0760214
-0.0685292
-0.0589647
-0.0469251
-0.0333856
-0.0195903
-0.00643797
0.00475306
0.0123786
0.0161256
0.0171636
0.0172729
0.0187688
0.0218668
0.0249179
0.0273393
0.0289301
0.029938
0.0305962
0.0310039
0.0312336
0.0313439
0.0301313
0.0301065
0.0300517
0.0299447
0.0297168
0.0292919
0.0285382
0.0270985
0.0239154
0.0151036
-0.0020458
-0.0255326
-0.0501812
-0.0701336
-0.0835564
-0.0909686
-0.0942416
-0.0928502
-0.0860839
-0.075795
-0.0622689
-0.0461335
-0.0293692
-0.0135922
-0.000153128
0.0100211
0.0161059
0.018954
0.0197504
0.0202077
0.0218087
0.024359
0.0268212
0.0286351
0.0296918
0.0302845
0.0306503
0.0308452
0.0309458
0.0309915
0.0288643
0.0287851
0.0286171
0.0283316
0.0278645
0.0271264
0.0260511
0.0243426
0.0206684
0.0111506
-0.00677351
-0.0316671
-0.0583273
-0.0792271
-0.093424
-0.0990646
-0.103821
-0.101869
-0.0943691
-0.0834973
-0.0683293
-0.0509599
-0.0334373
-0.0169801
-0.00349808
0.00691908
0.0138511
0.0182065
0.020973
0.0230811
0.0252388
0.0272238
0.0288946
0.0300049
0.0304729
0.0306783
0.030743
0.0307246
0.0307006
0.030681
0.0276673
0.0275479
0.0272995
0.0268816
0.0262514
0.0253131
0.0240421
0.0222155
0.0185992
0.0104253
-0.00491676
-0.026846
-0.0514705
-0.0724925
-0.08713
-0.0951069
-0.099091
-0.0984852
-0.0934103
-0.0844469
-0.0712809
-0.0554859
-0.0391029
-0.0237233
-0.010195
0.00112642
0.0100835
0.0168791
0.0221268
0.0258262
0.0283877
0.0297653
0.0306023
0.030994
0.0309687
0.0308525
0.0306616
0.0304788
0.0303576
0.0302885
0.0266372
0.0264873
0.0261764
0.0256497
0.0248502
0.0236663
0.0219885
0.0197449
0.0164209
0.010833
0.00122838
-0.0138407
-0.0328669
-0.0518936
-0.0674281
-0.0776756
-0.0834072
-0.0849804
-0.0827974
-0.0769724
-0.0680137
-0.0566141
-0.0438612
-0.0314115
-0.0191822
-0.00737127
0.00375
0.0136263
0.0219261
0.0277112
0.0309395
0.0322249
0.0323039
0.0316586
0.0311948
0.0307353
0.0303314
0.030024
0.0298279
0.0297251
0.0258509
0.0256941
0.0253638
0.0247964
0.0238898
0.0225193
0.0204907
0.0178435
0.0149298
0.0121912
0.00893692
0.00245734
-0.00868224
-0.0226934
-0.0369199
-0.0489357
-0.0579826
-0.0638193
-0.066758
-0.0665794
-0.0638488
-0.0591298
-0.0519143
-0.0439011
-0.0347236
-0.0236294
-0.0108609
0.0026946
0.0154386
0.0251203
0.0305915
0.0328945
0.0328651
0.03163
0.0309063
0.0301728
0.0296669
0.029301
0.0290775
0.0289662
0.0253527
0.0252299
0.0249534
0.0244803
0.023721
0.0224981
0.0207147
0.0183064
0.0162421
0.0155162
0.0161762
0.0155959
0.0113027
0.00350167
-0.00721887
-0.0192585
-0.0310668
-0.0416394
-0.0507018
-0.0577061
-0.0623505
-0.0651108
-0.0645598
-0.0612043
-0.0556458
-0.0464845
-0.0332921
-0.0166993
0.00115147
0.0161958
0.0256935
0.0301212
0.0310249
0.0302364
0.029576
0.0289803
0.0285524
0.0282534
0.0280724
0.0279855
0.0251408
0.0250735
0.0249172
0.0246384
0.024184
0.0234017
0.0222652
0.0207761
0.0196048
0.0196107
0.0215594
0.0227047
0.0215594
0.0176225
0.0104703
-0.000100212
-0.0130753
-0.0273555
-0.0417458
-0.0551008
-0.0659456
-0.0740304
-0.0786307
-0.0789259
-0.0763689
-0.069729
-0.0571504
-0.0386848
-0.0164429
0.0038524
0.0178598
0.0252328
0.027326
0.0275574
0.0273688
0.0271654
0.0270041
0.0268855
0.0268095
0.0267747
0.0250264
0.0250269
0.0250092
0.0249547
0.0248449
0.0245535
0.0241236
0.0234846
0.0229667
0.023115
0.023898
0.0246469
0.0235226
0.0207792
0.0152537
0.00591935
-0.0069374
-0.0228123
-0.0402117
-0.0578259
-0.0733741
-0.0849834
-0.0926172
-0.09529
-0.0935516
-0.0874554
-0.0748634
-0.0549881
-0.0302895
-0.00673756
0.0101101
0.0192086
0.0229224
0.0241122
0.0246414
0.0249774
0.0251953
0.0253294
0.0254061
0.0254453
0.0248929
0.0249492
0.0250476
0.0251819
0.0253491
0.0254772
0.0255545
0.0255998
0.0254888
0.0254005
0.0252102
0.0245131
0.0223228
0.018502
0.0122116
0.00254687
-0.0105341
-0.0264857
-0.0446737
-0.0628345
-0.0792856
-0.090685
-0.0981198
-0.101487
-0.0993472
-0.0927493
-0.079918
-0.0592252
-0.0337565
-0.0108862
0.0053834
0.0141956
0.0184819
0.0205559
0.021852
0.02276
0.0233698
0.0237601
0.0239889
0.0240989
0.0246087
0.0247101
0.0249015
0.0251953
0.025596
0.0260976
0.0266473
0.0273478
0.0278942
0.0277751
0.0268665
0.0246426
0.0205711
0.0147506
0.006779
-0.00367266
-0.0164275
-0.0310469
-0.0471612
-0.0631481
-0.0772805
-0.0877985
-0.0940206
-0.0958656
-0.0926431
-0.0844021
-0.0700627
-0.0494317
-0.0266929
-0.00774775
0.00471615
0.0113052
0.0151142
0.017637
0.0195334
0.0208982
0.0218203
0.0224079
0.0227551
0.0229193
0.0241267
0.0242535
0.0244902
0.0248997
0.0254636
0.0262531
0.0272112
0.0283974
0.0295145
0.0291044
0.0268022
0.0220393
0.0146699
0.00544281
-0.00484849
-0.0158433
-0.0269314
-0.038286
-0.0500793
-0.0607262
-0.0695512
-0.0754277
-0.0773976
-0.0756846
-0.0700294
-0.0601201
-0.0455072
-0.0276915
-0.0106999
0.00159721
0.00814142
0.011347
0.0138036
0.0162125
0.0182589
0.0197791
0.0208132
0.0214681
0.0218554
0.0220361
0.0234108
0.0235188
0.0237452
0.0241311
0.0247027
0.0255478
0.0265702
0.0276841
0.0282862
0.0268394
0.0219301
0.0130764
0.000975776
-0.012048
-0.0241766
-0.0343917
-0.0422692
-0.0489701
-0.0542172
-0.0574832
-0.0593745
-0.0589776
-0.0558208
-0.0500989
-0.041498
-0.0301451
-0.016912
-0.00392776
0.00635138
0.0121294
0.0137173
0.0140286
0.0149821
0.0166295
0.0183082
0.0196352
0.0204588
0.0210291
0.0213404
0.0214898
0.0224141
0.0224799
0.0226216
0.0228555
0.0231943
0.0237128
0.0243612
0.0248903
0.0241063
0.0203251
0.0114261
-0.00287981
-0.0204211
-0.0368979
-0.0496898
-0.0573736
-0.0611439
-0.0625566
-0.0609265
-0.0575051
-0.0524298
-0.0449865
-0.0357089
-0.0252296
-0.0139908
-0.00280334
0.00707379
0.0145358
0.0190805
0.0202752
0.0189682
0.0177256
0.0176249
0.0183479
0.0193292
0.0201436
0.0206632
0.0210131
0.021216
0.0213125
0.0212659
0.0212501
0.0212237
0.0211771
0.0210906
0.0209988
0.0208474
0.0202905
0.01815
0.0115229
-0.00128099
-0.0202654
-0.0419313
-0.0606982
-0.073461
-0.0794195
-0.0807643
-0.0780991
-0.0712561
-0.0618369
-0.0496452
-0.0356272
-0.0213719
-0.00770224
0.00413853
0.01342
0.0196852
0.023212
0.0248372
0.0242305
0.0222882
0.0209103
0.0203526
0.0203507
0.0206784
0.0209382
0.0210897
0.0211918
0.0212418
0.0212627
0.020052
0.0199559
0.0197561
0.0194228
0.0188887
0.0181375
0.0171122
0.0154782
0.012086
0.00405352
-0.0108161
-0.0324232
-0.0558999
-0.0756505
-0.0880576
-0.0940155
-0.0943019
-0.0890213
-0.0802075
-0.068092
-0.0527907
-0.0356314
-0.0186497
-0.0032746
0.00907062
0.0175033
0.0223037
0.0243993
0.0263518
0.0254942
0.0241086
0.023073
0.022343
0.0219205
0.0217635
0.021599
0.0214706
0.0213705
0.0212939
0.0212502
0.0189874
0.0188357
0.0185109
0.0179644
0.017103
0.0158666
0.0142593
0.012108
0.00856778
0.00109815
-0.0131304
-0.0338704
-0.057802
-0.0786077
-0.0914931
-0.100386
-0.101709
-0.094523
-0.0856628
-0.0720309
-0.0550799
-0.0368913
-0.0194068
-0.0040324
0.00816301
0.016595
0.0217489
0.0244931
0.0260437
0.0261046
0.0255454
0.0247064
0.0237537
0.0230448
0.022469
0.0219776
0.0216248
0.0213691
0.0212048
0.02112
0.0182299
0.0180463
0.0176583
0.0170134
0.0160507
0.0146938
0.012974
0.0110264
0.00841526
0.00326973