/*--------------------------------*- C++ -*----------------------------------*\
  =========                 |
  \\      /  F ield         | OpenFOAM: The Open Source CFD Toolbox
   \\    /   O peration     | Website:  https://openfoam.org
    \\  /    A nd           | Version:  6
     \\/     M anipulation  |
\*---------------------------------------------------------------------------*/
FoamFile
{
    version     2.0;
    format      ascii;
    class       volVectorField;
    location    "8500";
    object      U;
}
// * * * * * * * * * * * * * * * * * * * * * * * * * * * * * * * * * * * * * //

dimensions      [0 1 -1 0 0 0 0];

internalField   nonuniform List<vector> 
9000
(
(0.986191 0.0148694 0)
(0.966582 0.0146467 0)
(0.949066 0.00942515 0)
(0.932522 0.00506493 0)
(0.918321 0.002199 0)
(0.906739 0.000352203 0)
(0.897095 -0.0008621 0)
(0.888774 -0.00164636 0)
(0.881487 -0.00212722 0)
(0.875082 -0.0024002 0)
(0.869413 -0.00253329 0)
(0.864341 -0.00257113 0)
(0.859755 -0.00254338 0)
(0.855574 -0.00247098 0)
(0.851734 -0.0023691 0)
(0.848183 -0.00224858 0)
(0.844877 -0.00211717 0)
(0.84178 -0.0019804 0)
(0.838862 -0.00184222 0)
(0.836101 -0.00170545 0)
(0.833475 -0.00157208 0)
(0.830969 -0.00144343 0)
(0.828567 -0.00132043 0)
(0.826259 -0.00120359 0)
(0.824035 -0.00109326 0)
(0.821885 -0.000989514 0)
(0.819804 -0.000892393 0)
(0.817785 -0.00080174 0)
(0.815823 -0.000717438 0)
(0.813914 -0.000639205 0)
(0.812053 -0.000566868 0)
(0.810239 -0.000500078 0)
(0.808468 -0.000438662 0)
(0.806738 -0.000382236 0)
(0.805048 -0.00033066 0)
(0.803395 -0.000283535 0)
(0.801779 -0.000240775 0)
(0.800199 -0.000201969 0)
(0.798653 -0.000167106 0)
(0.797143 -0.000135759 0)
(0.795666 -0.000107998 0)
(0.794225 -8.33632e-05 0)
(0.792817 -6.20018e-05 0)
(0.791446 -4.32649e-05 0)
(0.790106 -2.74142e-05 0)
(0.788811 -1.22031e-05 0)
(0.787506 1.35881e-06 0)
(0.786374 2.3088e-05 0)
(0.784618 0.000106867 0)
(0.785098 -8.21321e-05 0)
(1.0054 0.00528396 0)
(1.01813 0.0101209 0)
(1.0267 0.0110369 0)
(1.03046 0.0110445 0)
(1.03152 0.0109561 0)
(1.03132 0.0106592 0)
(1.03025 0.0101524 0)
(1.02848 0.00956259 0)
(1.02622 0.00897382 0)
(1.02369 0.00840853 0)
(1.02102 0.00787039 0)
(1.01826 0.00736385 0)
(1.01547 0.00689269 0)
(1.01267 0.00645749 0)
(1.0099 0.00605669 0)
(1.00717 0.0056881 0)
(1.00449 0.00534944 0)
(1.00186 0.00503844 0)
(0.999292 0.00475281 0)
(0.996785 0.00449036 0)
(0.994338 0.00424905 0)
(0.991952 0.00402699 0)
(0.989624 0.00382244 0)
(0.987353 0.00363383 0)
(0.985136 0.0034597 0)
(0.982971 0.00329876 0)
(0.980855 0.00314979 0)
(0.978787 0.00301174 0)
(0.976763 0.0028836 0)
(0.974782 0.0027645 0)
(0.972841 0.00265359 0)
(0.970938 0.00255016 0)
(0.969072 0.00245349 0)
(0.96724 0.00236299 0)
(0.965441 0.00227803 0)
(0.963673 0.00219813 0)
(0.961935 0.00212273 0)
(0.960226 0.00205142 0)
(0.958545 0.00198369 0)
(0.95689 0.0019192 0)
(0.955261 0.00185746 0)
(0.953657 0.00179821 0)
(0.952077 0.00174097 0)
(0.950523 0.00168592 0)
(0.948991 0.00163194 0)
(0.947491 0.00158389 0)
(0.945999 0.00152898 0)
(0.944599 0.00153012 0)
(0.943117 0.00141236 0)
(0.942203 0.00184386 0)
(1.00069 0.00338716 0)
(1.00435 0.00647257 0)
(1.00832 0.00665883 0)
(1.0112 0.00618568 0)
(1.0133 0.00581556 0)
(1.01515 0.00543656 0)
(1.01681 0.00499144 0)
(1.01817 0.0045599 0)
(1.01925 0.00419511 0)
(1.02009 0.00389425 0)
(1.02074 0.0036412 0)
(1.02123 0.00342735 0)
(1.02156 0.00324828 0)
(1.02176 0.0030991 0)
(1.02185 0.0029745 0)
(1.02183 0.00286996 0)
(1.02172 0.0027819 0)
(1.02154 0.00270743 0)
(1.02129 0.00264414 0)
(1.02097 0.00259 0)
(1.0206 0.00254333 0)
(1.02018 0.00250277 0)
(1.01972 0.00246718 0)
(1.01922 0.00243561 0)
(1.01869 0.00240729 0)
(1.01813 0.00238158 0)
(1.01754 0.00235792 0)
(1.01692 0.00233588 0)
(1.01629 0.00231508 0)
(1.01564 0.0022952 0)
(1.01497 0.00227596 0)
(1.01428 0.00225715 0)
(1.01358 0.00223855 0)
(1.01287 0.00221998 0)
(1.01215 0.0022013 0)
(1.01143 0.00218234 0)
(1.01069 0.00216298 0)
(1.00995 0.00214305 0)
(1.00921 0.00212244 0)
(1.00845 0.00210098 0)
(1.0077 0.00207854 0)
(1.00695 0.00205496 0)
(1.00619 0.00203009 0)
(1.00544 0.00200397 0)
(1.00468 0.00197612 0)
(1.00393 0.00194887 0)
(1.00319 0.00191711 0)
(1.00247 0.00190158 0)
(1.00176 0.00184888 0)
(1.00113 0.00188834 0)
(1.00027 0.00199956 0)
(1.00205 0.00449164 0)
(1.00441 0.00529032 0)
(1.00629 0.0054504 0)
(1.0076 0.00555733 0)
(1.00869 0.00560553 0)
(1.00972 0.00554004 0)
(1.01064 0.00540877 0)
(1.01144 0.00526501 0)
(1.01216 0.00512272 0)
(1.01281 0.00497967 0)
(1.01342 0.00483669 0)
(1.01399 0.00469733 0)
(1.01452 0.00456377 0)
(1.01502 0.00443645 0)
(1.01549 0.00431533 0)
(1.01593 0.00420038 0)
(1.01635 0.00409153 0)
(1.01674 0.00398859 0)
(1.01711 0.00389126 0)
(1.01745 0.00379925 0)
(1.01776 0.00371224 0)
(1.01806 0.00362991 0)
(1.01833 0.00355195 0)
(1.01858 0.00347807 0)
(1.01881 0.00340796 0)
(1.01902 0.00334134 0)
(1.01921 0.00327794 0)
(1.01938 0.0032175 0)
(1.01953 0.00315977 0)
(1.01966 0.00310451 0)
(1.01977 0.00305148 0)
(1.01986 0.00300047 0)
(1.01994 0.00295124 0)
(1.02001 0.00290357 0)
(1.02006 0.00285724 0)
(1.02009 0.00281203 0)
(1.02011 0.00276769 0)
(1.02012 0.00272398 0)
(1.02012 0.00268066 0)
(1.0201 0.00263745 0)
(1.02008 0.00259407 0)
(1.02004 0.00255021 0)
(1.02 0.00250569 0)
(1.01996 0.00245993 0)
(1.0199 0.00241379 0)
(1.01985 0.00236375 0)
(1.0198 0.00231758 0)
(1.01976 0.00224464 0)
(1.01975 0.0021866 0)
(1.00015 0.00134343 0)
(1.00126 0.00344393 0)
(1.00296 0.00447714 0)
(1.00449 0.00481705 0)
(1.00562 0.00492856 0)
(1.00652 0.00493263 0)
(1.00734 0.00481919 0)
(1.00808 0.00462437 0)
(1.00872 0.00440413 0)
(1.00928 0.0041873 0)
(1.00979 0.00398067 0)
(1.01026 0.00378691 0)
(1.01071 0.00360931 0)
(1.01114 0.00344965 0)
(1.01155 0.00330766 0)
(1.01194 0.00318206 0)
(1.01233 0.00307144 0)
(1.0127 0.00297436 0)
(1.01307 0.00288939 0)
(1.01343 0.00281512 0)
(1.01378 0.00275021 0)
(1.01413 0.00269346 0)
(1.01447 0.00264378 0)
(1.01481 0.00260021 0)
(1.01514 0.00256188 0)
(1.01547 0.00252801 0)
(1.01579 0.00249793 0)
(1.01611 0.00247104 0)
(1.01642 0.0024468 0)
(1.01672 0.00242474 0)
(1.01702 0.00240443 0)
(1.01732 0.0023855 0)
(1.01761 0.00236761 0)
(1.0179 0.00235043 0)
(1.01818 0.00233367 0)
(1.01845 0.00231706 0)
(1.01872 0.00230032 0)
(1.01899 0.00228319 0)
(1.01925 0.0022654 0)
(1.01951 0.00224666 0)
(1.01976 0.00222669 0)
(1.02001 0.00220516 0)
(1.02026 0.00218173 0)
(1.0205 0.00215605 0)
(1.02075 0.00212751 0)
(1.02099 0.00209593 0)
(1.02124 0.0020588 0)
(1.02149 0.00201703 0)
(1.02175 0.00195522 0)
(1.02203 0.00188381 0)
(1.00009 0.000978774 0)
(1.00082 0.00265789 0)
(1.00204 0.0036551 0)
(1.00329 0.00407483 0)
(1.0043 0.00424773 0)
(1.00514 0.00432473 0)
(1.00591 0.00431407 0)
(1.00661 0.00423077 0)
(1.00723 0.00411429 0)
(1.00778 0.00399146 0)
(1.00827 0.00386986 0)
(1.00873 0.00375104 0)
(1.00915 0.00363728 0)
(1.00955 0.00353061 0)
(1.00993 0.00343164 0)
(1.01029 0.00334007 0)
(1.01064 0.00325541 0)
(1.01098 0.0031772 0)
(1.01131 0.00310493 0)
(1.01163 0.00303809 0)
(1.01195 0.00297615 0)
(1.01226 0.00291862 0)
(1.01257 0.00286507 0)
(1.01288 0.00281509 0)
(1.01318 0.00276831 0)
(1.01348 0.00272438 0)
(1.01378 0.002683 0)
(1.01407 0.00264388 0)
(1.01436 0.00260676 0)
(1.01466 0.00257138 0)
(1.01495 0.0025375 0)
(1.01524 0.00250491 0)
(1.01553 0.00247338 0)
(1.01582 0.0024427 0)
(1.0161 0.00241264 0)
(1.01639 0.00238299 0)
(1.01668 0.00235351 0)
(1.01697 0.00232396 0)
(1.01725 0.00229407 0)
(1.01754 0.00226357 0)
(1.01783 0.00223211 0)
(1.01812 0.00219935 0)
(1.01841 0.00216485 0)
(1.0187 0.00212813 0)
(1.019 0.00208846 0)
(1.0193 0.00204505 0)
(1.01961 0.00199578 0)
(1.01992 0.00193915 0)
(1.02025 0.00186668 0)
(1.02058 0.00177824 0)
(1.00006 0.000745448 0)
(1.00057 0.00208305 0)
(1.00146 0.00299675 0)
(1.00248 0.00347873 0)
(1.00337 0.00372192 0)
(1.00415 0.00385351 0)
(1.00486 0.00389557 0)
(1.00552 0.0038584 0)
(1.00611 0.00377226 0)
(1.00664 0.00366437 0)
(1.00713 0.00354732 0)
(1.00758 0.00342628 0)
(1.008 0.00330564 0)
(1.00839 0.00318924 0)
(1.00877 0.00307939 0)
(1.00913 0.00297698 0)
(1.00948 0.00288232 0)
(1.00981 0.00279541 0)
(1.01014 0.00271602 0)
(1.01046 0.00264377 0)
(1.01077 0.00257815 0)
(1.01108 0.0025186 0)
(1.01138 0.00246458 0)
(1.01168 0.00241554 0)
(1.01197 0.00237094 0)
(1.01226 0.00233029 0)
(1.01255 0.0022931 0)
(1.01284 0.00225894 0)
(1.01312 0.0022274 0)
(1.0134 0.00219809 0)
(1.01368 0.00217065 0)
(1.01396 0.00214474 0)
(1.01424 0.00212004 0)
(1.01452 0.00209625 0)
(1.01479 0.00207306 0)
(1.01507 0.00205018 0)
(1.01535 0.0020273 0)
(1.01563 0.00200413 0)
(1.0159 0.00198033 0)
(1.01618 0.00195557 0)
(1.01646 0.00192946 0)
(1.01675 0.00190157 0)
(1.01703 0.00187141 0)
(1.01732 0.00183836 0)
(1.01761 0.0018016 0)
(1.01791 0.00176008 0)
(1.01821 0.00171188 0)
(1.01852 0.00165488 0)
(1.01883 0.00158377 0)
(1.01915 0.00149625 0)
(1.00004 0.000585575 0)
(1.00041 0.00166594 0)
(1.00109 0.00247782 0)
(1.00191 0.00297156 0)
(1.00269 0.00324691 0)
(1.0034 0.00340227 0)
(1.00405 0.00347163 0)
(1.00467 0.00346826 0)
(1.00524 0.00341559 0)
(1.00576 0.00333777 0)
(1.00624 0.00324862 0)
(1.00669 0.00315441 0)
(1.00711 0.0030593 0)
(1.0075 0.00296678 0)
(1.00788 0.00287904 0)
(1.00825 0.002797 0)
(1.00859 0.00272089 0)
(1.00893 0.00265068 0)
(1.00926 0.00258614 0)
(1.00958 0.00252693 0)
(1.00989 0.00247261 0)
(1.0102 0.0024227 0)
(1.0105 0.00237676 0)
(1.0108 0.00233435 0)
(1.01109 0.00229505 0)
(1.01138 0.00225848 0)
(1.01166 0.00222427 0)
(1.01194 0.0021921 0)
(1.01222 0.00216166 0)
(1.0125 0.00213265 0)
(1.01278 0.00210482 0)
(1.01305 0.0020779 0)
(1.01333 0.00205165 0)
(1.0136 0.00202582 0)
(1.01387 0.00200018 0)
(1.01415 0.00197446 0)
(1.01442 0.00194841 0)
(1.01469 0.00192176 0)
(1.01496 0.00189421 0)
(1.01523 0.00186542 0)
(1.01551 0.00183501 0)
(1.01578 0.00180255 0)
(1.01606 0.00176751 0)
(1.01634 0.00172923 0)
(1.01663 0.00168686 0)
(1.01691 0.00163927 0)
(1.01721 0.00158473 0)
(1.0175 0.00152114 0)
(1.0178 0.0014449 0)
(1.01811 0.00135389 0)
(1.00003 0.000470389 0)
(1.00031 0.00135378 0)
(1.00083 0.00206024 0)
(1.00151 0.00253351 0)
(1.00219 0.00282068 0)
(1.00283 0.00299232 0)
(1.00343 0.00308388 0)
(1.00401 0.00310955 0)
(1.00456 0.00308654 0)
(1.00506 0.00303424 0)
(1.00553 0.002966 0)
(1.00597 0.0028888 0)
(1.00639 0.00280711 0)
(1.00679 0.00272458 0)
(1.00717 0.00264388 0)
(1.00753 0.00256652 0)
(1.00788 0.00249329 0)
(1.00822 0.0024246 0)
(1.00855 0.0023606 0)
(1.00887 0.00230126 0)
(1.00918 0.00224639 0)
(1.00949 0.00219574 0)
(1.00979 0.002149 0)
(1.01009 0.00210584 0)
(1.01038 0.00206592 0)
(1.01067 0.00202891 0)
(1.01096 0.00199448 0)
(1.01124 0.0019623 0)
(1.01152 0.00193207 0)
(1.0118 0.00190348 0)
(1.01207 0.00187625 0)
(1.01235 0.0018501 0)
(1.01262 0.00182475 0)
(1.01289 0.00179993 0)
(1.01316 0.00177536 0)
(1.01343 0.00175075 0)
(1.0137 0.00172582 0)
(1.01397 0.00170025 0)
(1.01424 0.0016737 0)
(1.01451 0.00164581 0)
(1.01478 0.00161614 0)
(1.01505 0.00158423 0)
(1.01533 0.0015495 0)
(1.0156 0.00151124 0)
(1.01588 0.00146858 0)
(1.01616 0.00142037 0)
(1.01645 0.00136505 0)
(1.01674 0.00130077 0)
(1.01703 0.00122491 0)
(1.01732 0.00113584 0)
(1.00003 0.000383546 0)
(1.00024 0.0011123 0)
(1.00066 0.00172031 0)
(1.00121 0.00215749 0)
(1.00181 0.00244229 0)
(1.00239 0.00262142 0)
(1.00295 0.00272577 0)
(1.00349 0.00276974 0)
(1.00401 0.00276703 0)
(1.0045 0.00273348 0)
(1.00496 0.00268165 0)
(1.00539 0.00261911 0)
(1.00581 0.00255067 0)
(1.0062 0.00248009 0)
(1.00658 0.00241015 0)
(1.00695 0.00234262 0)
(1.0073 0.00227846 0)
(1.00764 0.00221817 0)
(1.00797 0.00216198 0)
(1.00829 0.00210988 0)
(1.00861 0.00206174 0)
(1.00892 0.00201731 0)
(1.00922 0.00197628 0)
(1.00952 0.00193835 0)
(1.00981 0.00190319 0)
(1.0101 0.00187046 0)
(1.01039 0.00183985 0)
(1.01067 0.00181104 0)
(1.01095 0.00178376 0)
(1.01123 0.00175771 0)
(1.0115 0.00173262 0)
(1.01178 0.00170823 0)
(1.01205 0.00168428 0)
(1.01232 0.0016605 0)
(1.01259 0.00163665 0)
(1.01286 0.00161245 0)
(1.01312 0.00158762 0)
(1.01339 0.00156185 0)
(1.01366 0.00153481 0)
(1.01393 0.00150613 0)
(1.0142 0.0014754 0)
(1.01447 0.00144214 0)
(1.01474 0.00140576 0)
(1.01501 0.00136557 0)
(1.01528 0.00132071 0)
(1.01556 0.0012701 0)
(1.01584 0.00121237 0)
(1.01612 0.00114595 0)
(1.0164 0.00106885 0)
(1.01668 0.000979961 0)
(1.00002 0.00031556 0)
(1.00019 0.000920079 0)
(1.00053 0.00143979 0)
(1.001 0.00183347 0)
(1.00152 0.00210474 0)
(1.00205 0.00228283 0)
(1.00257 0.00239247 0)
(1.00307 0.00244754 0)
(1.00357 0.00245956 0)
(1.00404 0.00244138 0)
(1.00449 0.00240404 0)
(1.00492 0.0023549 0)
(1.00533 0.00229873 0)
(1.00573 0.00223911 0)
(1.0061 0.00217874 0)
(1.00647 0.00211944 0)
(1.00682 0.00206232 0)
(1.00716 0.00200799 0)
(1.0075 0.0019568 0)
(1.00782 0.00190886 0)
(1.00814 0.00186416 0)
(1.00845 0.00182255 0)
(1.00875 0.00178385 0)
(1.00905 0.00174781 0)
(1.00934 0.00171419 0)
(1.00963 0.00168272 0)
(1.00992 0.00165314 0)
(1.0102 0.00162519 0)
(1.01048 0.00159861 0)
(1.01076 0.00157315 0)
(1.01104 0.00154855 0)
(1.01131 0.00152457 0)
(1.01158 0.00150095 0)
(1.01185 0.00147745 0)
(1.01212 0.00145381 0)
(1.01239 0.00142976 0)
(1.01265 0.001405 0)
(1.01292 0.00137922 0)
(1.01319 0.00135209 0)
(1.01345 0.00132322 0)
(1.01372 0.00129219 0)
(1.01399 0.00125849 0)
(1.01425 0.00122156 0)
(1.01452 0.00118068 0)
(1.01479 0.00113504 0)
(1.01506 0.00108362 0)
(1.01534 0.00102522 0)
(1.01561 0.000958492 0)
(1.01588 0.000881899 0)
(1.01616 0.00079464 0)
(1.00002 0.000260641 0)
(1.00016 0.00076297 0)
(1.00044 0.00120432 0)
(1.00084 0.00155178 0)
(1.0013 0.00180203 0)
(1.00178 0.00197252 0)
(1.00226 0.00208197 0)
(1.00274 0.00214273 0)
(1.00321 0.00216462 0)
(1.00367 0.00215795 0)
(1.00411 0.00213211 0)
(1.00453 0.00209394 0)
(1.00494 0.00204808 0)
(1.00533 0.00199793 0)
(1.00571 0.00194613 0)
(1.00607 0.00189455 0)
(1.00643 0.00184436 0)
(1.00677 0.00179629 0)
(1.0071 0.00175077 0)
(1.00743 0.00170799 0)
(1.00775 0.00166799 0)
(1.00806 0.0016307 0)
(1.00836 0.00159596 0)
(1.00866 0.00156357 0)
(1.00896 0.0015333 0)
(1.00925 0.00150492 0)
(1.00954 0.00147818 0)
(1.00982 0.00145283 0)
(1.0101 0.00142862 0)
(1.01038 0.00140531 0)
(1.01065 0.00138264 0)
(1.01092 0.00136038 0)
(1.01119 0.00133829 0)
(1.01146 0.00131611 0)
(1.01173 0.00129358 0)
(1.012 0.00127044 0)
(1.01226 0.00124641 0)
(1.01253 0.00122116 0)
(1.01279 0.00119436 0)
(1.01306 0.00116563 0)
(1.01332 0.00113454 0)
(1.01359 0.0011006 0)
(1.01385 0.00106325 0)
(1.01412 0.0010218 0)
(1.01438 0.000975493 0)
(1.01465 0.000923391 0)
(1.01492 0.000864441 0)
(1.01519 0.000797512 0)
(1.01545 0.000721364 0)
(1.01572 0.00063544 0)
(1.00001 0.000215037 0)
(1.00013 0.000631354 0)
(1.00038 0.00100305 0)
(1.00072 0.00130425 0)
(1.00113 0.00152886 0)
(1.00157 0.0016868 0)
(1.00202 0.00179158 0)
(1.00247 0.00185356 0)
(1.00292 0.00188106 0)
(1.00336 0.00188242 0)
(1.00379 0.00186549 0)
(1.00421 0.0018364 0)
(1.00461 0.00179947 0)
(1.005 0.0017579 0)
(1.00538 0.00171412 0)
(1.00574 0.00166992 0)
(1.0061 0.00162647 0)
(1.00644 0.00158453 0)
(1.00678 0.00154452 0)
(1.0071 0.0015067 0)
(1.00742 0.00147112 0)
(1.00773 0.00143776 0)
(1.00804 0.00140651 0)
(1.00834 0.00137721 0)
(1.00864 0.00134968 0)
(1.00893 0.0013237 0)
(1.00922 0.00129906 0)
(1.0095 0.00127555 0)
(1.00978 0.00125294 0)
(1.01006 0.00123102 0)
(1.01033 0.00120955 0)
(1.0106 0.00118831 0)
(1.01087 0.00116708 0)
(1.01114 0.00114562 0)
(1.01141 0.00112368 0)
(1.01168 0.001101 0)
(1.01194 0.00107729 0)
(1.01221 0.00105226 0)
(1.01247 0.00102557 0)
(1.01273 0.000996832 0)
(1.01299 0.000965633 0)
(1.01326 0.000931489 0)
(1.01352 0.000893848 0)
(1.01378 0.000852071 0)
(1.01404 0.000805424 0)
(1.01431 0.00075307 0)
(1.01457 0.000694073 0)
(1.01483 0.000627472 0)
(1.01509 0.000552238 0)
(1.01535 0.000467954 0)
(1.00001 0.000176206 0)
(1.00012 0.00051852 0)
(1.00033 0.000827834 0)
(1.00064 0.00108401 0)
(1.001 0.00128033 0)
(1.00141 0.00142203 0)
(1.00183 0.00151854 0)
(1.00226 0.00157818 0)
(1.00269 0.00160788 0)
(1.00312 0.00161438 0)
(1.00354 0.00160413 0)
(1.00395 0.0015824 0)
(1.00434 0.0015531 0)
(1.00473 0.00151909 0)
(1.00511 0.0014826 0)
(1.00547 0.00144524 0)
(1.00583 0.00140814 0)
(1.00617 0.00137205 0)
(1.00651 0.0013374 0)
(1.00683 0.00130447 0)
(1.00715 0.00127334 0)
(1.00747 0.00124403 0)
(1.00777 0.00121646 0)
(1.00808 0.0011905 0)
(1.00837 0.00116601 0)
(1.00866 0.0011428 0)
(1.00895 0.00112068 0)
(1.00924 0.00109947 0)
(1.00952 0.00107895 0)
(1.00979 0.00105892 0)
(1.01007 0.00103917 0)
(1.01034 0.00101948 0)
(1.01061 0.000999641 0)
(1.01088 0.000979418 0)
(1.01115 0.00095857 0)
(1.01141 0.000936842 0)
(1.01167 0.000913956 0)
(1.01194 0.00088961 0)
(1.0122 0.000863473 0)
(1.01246 0.000835175 0)
(1.01272 0.0008043 0)
(1.01298 0.000770381 0)
(1.01324 0.000732886 0)
(1.0135 0.000691213 0)
(1.01376 0.000644676 0)
(1.01402 0.000592519 0)
(1.01428 0.000533914 0)
(1.01453 0.000468032 0)
(1.01479 0.000393999 0)
(1.01504 0.000311497 0)
(1.00001 0.000142361 0)
(1.0001 0.00041965 0)
(1.00029 0.00067248 0)
(1.00057 0.000885355 0)
(1.0009 0.00105197 0)
(1.00128 0.00117481 0)
(1.00167 0.00126027 0)
(1.00209 0.00131476 0)
(1.0025 0.00134392 0)
(1.00292 0.00135314 0)
(1.00333 0.0013476 0)
(1.00373 0.00133171 0)
(1.00413 0.00130883 0)
(1.00451 0.00128149 0)
(1.00489 0.00125161 0)
(1.00525 0.00122065 0)
(1.0056 0.00118962 0)
(1.00595 0.00115921 0)
(1.00629 0.00112985 0)
(1.00661 0.00110178 0)
(1.00694 0.00107512 0)
(1.00725 0.00104989 0)
(1.00756 0.00102603 0)
(1.00786 0.00100345 0)
(1.00816 0.000982014 0)
(1.00845 0.000961567 0)
(1.00874 0.000941945 0)
(1.00902 0.000922971 0)
(1.0093 0.000904463 0)
(1.00958 0.000886234 0)
(1.00985 0.000868092 0)
(1.01013 0.000849836 0)
(1.0104 0.000831261 0)
(1.01066 0.000812149 0)
(1.01093 0.000792271 0)
(1.01119 0.00077138 0)
(1.01146 0.000749209 0)
(1.01172 0.000725466 0)
(1.01198 0.000699827 0)
(1.01224 0.000671934 0)
(1.0125 0.000641386 0)
(1.01275 0.000607732 0)
(1.01301 0.000570467 0)
(1.01327 0.000529025 0)
(1.01352 0.000482772 0)
(1.01378 0.000431021 0)
(1.01403 0.000373037 0)
(1.01428 0.000308096 0)
(1.01453 0.000235437 0)
(1.01478 0.000154801 0)
(1.00001 0.000112198 0)
(1.00009 0.00033117 0)
(1.00026 0.00053218 0)
(1.00052 0.000703525 0)
(1.00083 0.000839811 0)
(1.00118 0.000941985 0)
(1.00156 0.00101427 0)
(1.00195 0.00106143 0)
(1.00235 0.00108788 0)
(1.00276 0.00109784 0)
(1.00316 0.00109536 0)
(1.00356 0.00108399 0)
(1.00395 0.00106652 0)
(1.00434 0.00104506 0)
(1.00471 0.00102123 0)
(1.00507 0.000996264 0)
(1.00543 0.000971028 0)
(1.00577 0.000946122 0)
(1.00611 0.000921925 0)
(1.00644 0.000898662 0)
(1.00676 0.000876444 0)
(1.00707 0.000855294 0)
(1.00738 0.000835176 0)
(1.00769 0.00081601 0)
(1.00798 0.000797687 0)
(1.00828 0.000780076 0)
(1.00856 0.000763035 0)
(1.00885 0.000746407 0)
(1.00913 0.000730032 0)
(1.00941 0.00071374 0)
(1.00968 0.000697355 0)
(1.00995 0.000680691 0)
(1.01022 0.000663557 0)
(1.01049 0.000645747 0)
(1.01075 0.000627041 0)
(1.01102 0.000607204 0)
(1.01128 0.000585977 0)
(1.01154 0.000563078 0)
(1.0118 0.000538194 0)
(1.01206 0.000510978 0)
(1.01231 0.000481045 0)
(1.01257 0.000447963 0)
(1.01282 0.000411254 0)
(1.01308 0.000370385 0)
(1.01333 0.000324775 0)
(1.01358 0.000273797 0)
(1.01383 0.000216792 0)
(1.01408 0.000153122 0)
(1.01432 8.21082e-05 0)
(1.01456 3.5338e-06 0)
(1.00001 8.47334e-05 0)
(1.00009 0.000250344 0)
(1.00024 0.000403124 0)
(1.00048 0.000534536 0)
(1.00077 0.000640313 0)
(1.00111 0.000720621 0)
(1.00147 0.000778161 0)
(1.00185 0.000816313 0)
(1.00224 0.000838371 0)
(1.00264 0.000847509 0)
(1.00304 0.00084677 0)
(1.00343 0.000838855 0)
(1.00382 0.000825945 0)
(1.0042 0.000809715 0)
(1.00457 0.000791446 0)
(1.00493 0.000772113 0)
(1.00529 0.000752423 0)
(1.00563 0.000732858 0)
(1.00597 0.000713731 0)
(1.0063 0.000695227 0)
(1.00662 0.000677437 0)
(1.00694 0.000660385 0)
(1.00725 0.000644041 0)
(1.00755 0.000628337 0)
(1.00785 0.000613183 0)
(1.00814 0.000598467 0)
(1.00843 0.000584066 0)
(1.00871 0.000569843 0)
(1.00899 0.000555657 0)
(1.00927 0.000541354 0)
(1.00955 0.000526776 0)
(1.00982 0.000511754 0)
(1.01009 0.000496107 0)
(1.01035 0.000479644 0)
(1.01062 0.000462159 0)
(1.01088 0.000443426 0)
(1.01114 0.0004232 0)
(1.0114 0.000401211 0)
(1.01166 0.000377158 0)
(1.01191 0.00035071 0)
(1.01217 0.000321497 0)
(1.01242 0.000289113 0)
(1.01267 0.000253105 0)
(1.01292 0.000212978 0)
(1.01317 0.000168194 0)
(1.01342 0.000118184 0)
(1.01366 6.23537e-05 0)
(1.01391 1.31834e-07 0)
(1.01415 -6.90929e-05 0)
(1.01439 -0.000145514 0)
(1.00001 5.91924e-05 0)
(1.00008 0.000175001 0)
(1.00023 0.000282202 0)
(1.00045 0.000374986 0)
(1.00073 0.000450286 0)
(1.00105 0.000507959 0)
(1.0014 0.000549636 0)
(1.00178 0.000577554 0)
(1.00216 0.000593982 0)
(1.00255 0.000601126 0)
(1.00295 0.000601101 0)
(1.00334 0.000595804 0)
(1.00372 0.000586792 0)
(1.0041 0.000575273 0)
(1.00447 0.000562174 0)
(1.00483 0.000548197 0)
(1.00519 0.000533856 0)
(1.00553 0.000519504 0)
(1.00587 0.000505369 0)
(1.0062 0.000491583 0)
(1.00652 0.000478211 0)
(1.00684 0.000465264 0)
(1.00715 0.000452714 0)
(1.00745 0.000440505 0)
(1.00775 0.000428559 0)
(1.00804 0.000416783 0)
(1.00833 0.00040507 0)
(1.00861 0.000393307 0)
(1.00889 0.000381368 0)
(1.00917 0.000369119 0)
(1.00944 0.000356418 0)
(1.00972 0.000343112 0)
(1.00998 0.000329038 0)
(1.01025 0.000314016 0)
(1.01051 0.000297854 0)
(1.01077 0.00028034 0)
(1.01103 0.000261242 0)
(1.01129 0.000240302 0)
(1.01155 0.000217235 0)
(1.0118 0.000191726 0)
(1.01205 0.000163424 0)
(1.01231 0.000131944 0)
(1.01256 9.68627e-05 0)
(1.0128 5.77184e-05 0)
(1.01305 1.4016e-05 0)
(1.01329 -3.4766e-05 0)
(1.01354 -8.91662e-05 0)
(1.01377 -0.0001497 0)
(1.01401 -0.000216929 0)
(1.01424 -0.000291026 0)
(1.00001 3.49405e-05 0)
(1.00008 0.000103342 0)
(1.00022 0.000166786 0)
(1.00044 0.000221895 0)
(1.00071 0.000266828 0)
(1.00102 0.0003014 0)
(1.00136 0.000326476 0)
(1.00173 0.000343323 0)
(1.00211 0.000353266 0)
(1.0025 0.0003576 0)
(1.00289 0.000357568 0)
(1.00327 0.000354294 0)
(1.00366 0.000348705 0)
(1.00404 0.000341526 0)
(1.00441 0.000333314 0)
(1.00477 0.000324488 0)
(1.00512 0.000315354 0)
(1.00547 0.000306121 0)
(1.0058 0.000296921 0)
(1.00613 0.000287824 0)
(1.00646 0.000278862 0)
(1.00677 0.000270029 0)
(1.00708 0.000261295 0)
(1.00738 0.000252609 0)
(1.00768 0.000243907 0)
(1.00797 0.000235111 0)
(1.00826 0.000226134 0)
(1.00855 0.000216879 0)
(1.00883 0.00020724 0)
(1.0091 0.000197101 0)
(1.00938 0.000186337 0)
(1.00965 0.000174812 0)
(1.00992 0.000162377 0)
(1.01018 0.000148869 0)
(1.01044 0.000134108 0)
(1.0107 0.000117899 0)
(1.01096 0.000100021 0)
(1.01122 8.02324e-05 0)
(1.01147 5.82643e-05 0)
(1.01172 3.3818e-05 0)
(1.01198 6.56373e-06 0)
(1.01222 -2.38612e-05 0)
(1.01247 -5.78522e-05 0)
(1.01272 -9.58378e-05 0)
(1.01296 -0.000138274 0)
(1.0132 -0.00018564 0)
(1.01344 -0.000238425 0)
(1.01368 -0.000297101 0)
(1.01391 -0.000362183 0)
(1.01414 -0.000433835 0)
(1.00001 1.14306e-05 0)
(1.00008 3.38076e-05 0)
(1.00022 5.456e-05 0)
(1.00043 7.25752e-05 0)
(1.00069 8.72358e-05 0)
(1.001 9.84615e-05 0)
(1.00134 0.000106518 0)
(1.0017 0.000111809 0)
(1.00208 0.000114766 0)
(1.00247 0.000115811 0)
(1.00286 0.000115347 0)
(1.00324 0.000113739 0)
(1.00363 0.000111288 0)
(1.004 0.000108228 0)
(1.00437 0.000104735 0)
(1.00473 0.000100937 0)
(1.00509 9.69264e-05 0)
(1.00543 9.27578e-05 0)
(1.00577 8.84602e-05 0)
(1.0061 8.40403e-05 0)
(1.00642 7.9488e-05 0)
(1.00674 7.47795e-05 0)
(1.00705 6.98793e-05 0)
(1.00735 6.4742e-05 0)
(1.00765 5.93137e-05 0)
(1.00794 5.35322e-05 0)
(1.00823 4.73276e-05 0)
(1.00851 4.06212e-05 0)
(1.00879 3.3326e-05 0)
(1.00907 2.53451e-05 0)
(1.00934 1.65709e-05 0)
(1.00961 6.88422e-06 0)
(1.00988 -3.84758e-06 0)
(1.01014 -1.57718e-05 0)
(1.0104 -2.90523e-05 0)
(1.01066 -4.38715e-05 0)
(1.01092 -6.04327e-05 0)
(1.01118 -7.89625e-05 0)
(1.01143 -9.97131e-05 0)
(1.01168 -0.000122965 0)
(1.01193 -0.000149026 0)
(1.01218 -0.000178236 0)
(1.01242 -0.000210964 0)
(1.01266 -0.000247607 0)
(1.0129 -0.000288585 0)
(1.01314 -0.000334337 0)
(1.01338 -0.000385313 0)
(1.01361 -0.000441944 0)
(1.01384 -0.000504713 0)
(1.01406 -0.000573769 0)
(1.00001 -1.1836e-05 0)
(1.00008 -3.50298e-05 0)
(1.00022 -5.66171e-05 0)
(1.00043 -7.54994e-05 0)
(1.00069 -9.10717e-05 0)
(1.001 -0.000103267 0)
(1.00134 -0.000112364 0)
(1.0017 -0.000118785 0)
(1.00208 -0.000122976 0)
(1.00247 -0.000125377 0)
(1.00286 -0.000126413 0)
(1.00324 -0.00012647 0)
(1.00363 -0.000125874 0)
(1.004 -0.000124886 0)
(1.00437 -0.000123713 0)
(1.00473 -0.000122518 0)
(1.00509 -0.000121429 0)
(1.00543 -0.000120545 0)
(1.00577 -0.000119943 0)
(1.0061 -0.000119683 0)
(1.00642 -0.000119817 0)
(1.00674 -0.000120387 0)
(1.00705 -0.000121436 0)
(1.00735 -0.000123004 0)
(1.00765 -0.000125135 0)
(1.00794 -0.000127875 0)
(1.00823 -0.000131277 0)
(1.00851 -0.0001354 0)
(1.00879 -0.000140313 0)
(1.00906 -0.000146094 0)
(1.00934 -0.000152832 0)
(1.00961 -0.000160628 0)
(1.00987 -0.000169598 0)
(1.01014 -0.000179874 0)
(1.0104 -0.000191603 0)
(1.01065 -0.000204952 0)
(1.01091 -0.000220109 0)
(1.01116 -0.000237283 0)
(1.01142 -0.000256709 0)
(1.01166 -0.000278647 0)
(1.01191 -0.000303387 0)
(1.01216 -0.000331242 0)
(1.0124 -0.000362557 0)
(1.01264 -0.000397696 0)
(1.01288 -0.00043705 0)
(1.01311 -0.000481021 0)
(1.01334 -0.000530023 0)
(1.01357 -0.000584452 0)
(1.0138 -0.000644761 0)
(1.01402 -0.00071109 0)
(1.00001 -3.53433e-05 0)
(1.00008 -0.000104557 0)
(1.00022 -0.000168831 0)
(1.00044 -0.000224802 0)
(1.00071 -0.000270641 0)
(1.00102 -0.000306176 0)
(1.00136 -0.000332288 0)
(1.00173 -0.000350258 0)
(1.00211 -0.000361427 0)
(1.0025 -0.00036711 0)
(1.00289 -0.00036857 0)
(1.00327 -0.000366951 0)
(1.00366 -0.000363206 0)
(1.00403 -0.000358088 0)
(1.0044 -0.000352183 0)
(1.00477 -0.000345944 0)
(1.00512 -0.000339715 0)
(1.00546 -0.000333748 0)
(1.0058 -0.000328222 0)
(1.00613 -0.000323262 0)
(1.00645 -0.000318959 0)
(1.00677 -0.000315375 0)
(1.00708 -0.000312556 0)
(1.00738 -0.000310538 0)
(1.00768 -0.000309353 0)
(1.00797 -0.00030903 0)
(1.00825 -0.000309606 0)
(1.00854 -0.000311119 0)
(1.00882 -0.00031362 0)
(1.00909 -0.000317166 0)
(1.00936 -0.000321828 0)
(1.00963 -0.000327689 0)
(1.0099 -0.000334847 0)
(1.01016 -0.000343417 0)
(1.01042 -0.00035353 0)
(1.01068 -0.000365336 0)
(1.01093 -0.000379006 0)
(1.01118 -0.000394732 0)
(1.01143 -0.000412731 0)
(1.01168 -0.000433244 0)
(1.01193 -0.000456537 0)
(1.01217 -0.000482903 0)
(1.01241 -0.000512659 0)
(1.01265 -0.000546142 0)
(1.01288 -0.000583711 0)
(1.01311 -0.000625737 0)
(1.01334 -0.000672601 0)
(1.01357 -0.000724671 0)
(1.01379 -0.000782368 0)
(1.014 -0.000845827 0)
(1.00001 -5.95902e-05 0)
(1.00008 -0.000176201 0)
(1.00023 -0.000284222 0)
(1.00045 -0.000377858 0)
(1.00073 -0.000454054 0)
(1.00105 -0.000512679 0)
(1.0014 -0.000555379 0)
(1.00178 -0.000584407 0)
(1.00216 -0.000602047 0)
(1.00255 -0.000610524 0)
(1.00294 -0.000611973 0)
(1.00333 -0.000608313 0)
(1.00372 -0.000601125 0)
(1.0041 -0.000591643 0)
(1.00447 -0.000580824 0)
(1.00483 -0.000569404 0)
(1.00518 -0.000557935 0)
(1.00553 -0.000546812 0)
(1.00587 -0.000536309 0)
(1.00619 -0.000526612 0)
(1.00652 -0.000517846 0)
(1.00683 -0.000510088 0)
(1.00714 -0.000503387 0)
(1.00744 -0.00049777 0)
(1.00774 -0.000493255 0)
(1.00803 -0.000489857 0)
(1.00831 -0.000487589 0)
(1.0086 -0.000486474 0)
(1.00888 -0.000486538 0)
(1.00915 -0.000487821 0)
(1.00942 -0.000490374 0)
(1.00969 -0.000494261 0)
(1.00995 -0.000499563 0)
(1.01021 -0.000506376 0)
(1.01047 -0.000514814 0)
(1.01073 -0.000525012 0)
(1.01098 -0.000537121 0)
(1.01123 -0.000551318 0)
(1.01148 -0.000567799 0)
(1.01173 -0.000586787 0)
(1.01197 -0.000608526 0)
(1.01221 -0.000633286 0)
(1.01245 -0.000661358 0)
(1.01269 -0.000693054 0)
(1.01292 -0.000728702 0)
(1.01315 -0.000768645 0)
(1.01337 -0.000813233 0)
(1.01359 -0.000862809 0)
(1.01381 -0.000917767 0)
(1.01402 -0.000978233 0)
(1.00001 -8.51239e-05 0)
(1.00009 -0.000251523 0)
(1.00024 -0.000405108 0)
(1.00048 -0.000537356 0)
(1.00077 -0.000644012 0)
(1.0011 -0.000725256 0)
(1.00147 -0.000783801 0)
(1.00185 -0.000823044 0)
(1.00224 -0.000846293 0)
(1.00264 -0.000856741 0)
(1.00304 -0.000857451 0)
(1.00343 -0.000851144 0)
(1.00382 -0.000840026 0)
(1.0042 -0.000825797 0)
(1.00457 -0.000809769 0)
(1.00493 -0.000792949 0)
(1.00528 -0.000776081 0)
(1.00563 -0.000759689 0)
(1.00596 -0.000744131 0)
(1.00629 -0.000729645 0)
(1.00661 -0.000716382 0)
(1.00693 -0.000704431 0)
(1.00723 -0.000693834 0)
(1.00754 -0.00068461 0)
(1.00783 -0.00067676 0)
(1.00812 -0.00067028 0)
(1.00841 -0.000665162 0)
(1.00869 -0.000661407 0)
(1.00897 -0.000659022 0)
(1.00924 -0.000658023 0)
(1.00951 -0.000658442 0)
(1.00978 -0.000660323 0)
(1.01004 -0.000663729 0)
(1.0103 -0.000668737 0)
(1.01056 -0.000675445 0)
(1.01082 -0.000683967 0)
(1.01107 -0.000694441 0)
(1.01132 -0.000707023 0)
(1.01156 -0.000721891 0)
(1.01181 -0.000739247 0)
(1.01205 -0.000759316 0)
(1.01229 -0.000782344 0)
(1.01253 -0.000808597 0)
(1.01276 -0.000838363 0)
(1.01299 -0.000871943 0)
(1.01322 -0.000909651 0)
(1.01344 -0.000951813 0)
(1.01366 -0.000998743 0)
(1.01387 -0.00105082 0)
(1.01408 -0.00110814 0)
(1.00001 -0.000112579 0)
(1.00009 -0.000332319 0)
(1.00026 -0.000534116 0)
(1.00052 -0.000706277 0)
(1.00083 -0.000843421 0)
(1.00118 -0.000946509 0)
(1.00156 -0.00101978 0)
(1.00195 -0.001068 0)
(1.00235 -0.00109561 0)
(1.00276 -0.00110685 0)
(1.00316 -0.00110579 0)
(1.00356 -0.00109599 0)
(1.00395 -0.00108027 0)
(1.00433 -0.00106076 0)
(1.0047 -0.00103913 0)
(1.00507 -0.00101661 0)
(1.00542 -0.000994129 0)
(1.00576 -0.000972321 0)
(1.0061 -0.000951611 0)
(1.00643 -0.000932273 0)
(1.00675 -0.000914476 0)
(1.00706 -0.000898308 0)
(1.00737 -0.000883805 0)
(1.00767 -0.000870969 0)
(1.00796 -0.000859782 0)
(1.00825 -0.000850218 0)
(1.00854 -0.000842248 0)
(1.00882 -0.000835848 0)
(1.0091 -0.000831005 0)
(1.00937 -0.000827714 0)
(1.00964 -0.000825984 0)
(1.0099 -0.000825843 0)
(1.01017 -0.000827331 0)
(1.01043 -0.000830509 0)
(1.01068 -0.000835456 0)
(1.01094 -0.000842269 0)
(1.01119 -0.000851066 0)
(1.01144 -0.000861987 0)
(1.01168 -0.000875189 0)
(1.01193 -0.000890855 0)
(1.01217 -0.000909187 0)
(1.0124 -0.000930409 0)
(1.01264 -0.000954765 0)