/*--------------------------------*- C++ -*----------------------------------*\
| =========                 |                                                 |
| \\      /  F ield         | OpenFOAM: The Open Source CFD Toolbox           |
|  \\    /   O peration     | Version:  v1812                                 |
|   \\  /    A nd           | Web:      www.OpenFOAM.com                      |
|    \\/     M anipulation  |                                                 |
\*---------------------------------------------------------------------------*/
FoamFile
{
    version     2.0;
    format      ascii;
    class       volScalarField;
    location    "0";
    object      Tdirect;
}
// * * * * * * * * * * * * * * * * * * * * * * * * * * * * * * * * * * * * * //

dimensions      [0 0 0 1 0 0 0];


internalField   nonuniform List<scalar> 
366300
(
300.52
300.525
300.536
300.552
300.574
300.601
300.632
300.668
300.708
300.752
300.799
300.848
300.9
300.953
301.007
301.062
301.117
301.172
301.226
301.281
301.335
301.39
301.445
301.502
301.56
301.62
301.681
301.745
301.81
301.877
301.945
302.013
302.08
302.147
302.212
302.275
302.336
302.394
302.451
302.507
302.562
302.618
302.674
302.732
302.792
302.854
302.918
302.984
303.05
303.117
303.182
303.245
303.306
303.363
303.416
303.466
303.512
303.557
303.601
303.645
303.691
303.741
303.795
303.854
303.92
303.99
304.066
304.145
304.227
304.311
304.393
304.474
304.552
304.626
304.696
304.762
304.823
304.882
304.938
304.992
305.045
305.096
305.145
305.191
305.231
305.264
305.286
305.294
305.285
305.258
305.209
305.137
305.042
304.924
304.786
304.63
304.459
304.278
304.09
303.901
303.713
303.533
303.363
303.208
303.069
302.95
302.852
302.778
302.727
302.702
300.514
300.52
300.531
300.547
300.568
300.595
300.626
300.661
300.701
300.744
300.79
300.839
300.89
300.942
300.996
301.05
301.104
301.158
301.212
301.265
301.319
301.373
301.428
301.484
301.542
301.601
301.661
301.724
301.789
301.855
301.921
301.988
302.055
302.121
302.185
302.247
302.307
302.365
302.422
302.477
302.531
302.586
302.642
302.699
302.759
302.82
302.883
302.948
303.013
303.079
303.143
303.206
303.265
303.322
303.374
303.424
303.47
303.514
303.557
303.601
303.647
303.696
303.75
303.809
303.873
303.943
304.017
304.096
304.177
304.259
304.34
304.42
304.497
304.57
304.639
304.703
304.764
304.822
304.878
304.931
304.983
305.034
305.082
305.127
305.166
305.198
305.219
305.227
305.218
305.19
305.142
305.071
304.977
304.861
304.725
304.572
304.404
304.225
304.041
303.854
303.67
303.493
303.326
303.172
303.036
302.919
302.822
302.749
302.699
302.674
300.509
300.514
300.525
300.541
300.562
300.588
300.618
300.653
300.692
300.735
300.78
300.828
300.879
300.93
300.983
301.036
301.09
301.143
301.196
301.249
301.302
301.356
301.41
301.465
301.522
301.58
301.64
301.702
301.766
301.831
301.897
301.963
302.028
302.093
302.156
302.218
302.277
302.334
302.39
302.445
302.499
302.553
302.608
302.665
302.723
302.784
302.846
302.91
302.974
303.039
303.102
303.164
303.223
303.278
303.33
303.379
303.425
303.468
303.511
303.555
303.601
303.649
303.702
303.76
303.824
303.893
303.966
304.043
304.123
304.203
304.284
304.362
304.438
304.51
304.578
304.642
304.702
304.759
304.814
304.867
304.918
304.968
305.015
305.059
305.097
305.128
305.149
305.156
305.147
305.119
305.071
305.001
304.909
304.795
304.661
304.51
304.345
304.17
303.988
303.805
303.624
303.449
303.285
303.135
303
302.885
302.79
302.718
302.669
302.645
300.503
300.508
300.519
300.534
300.555
300.581
300.611
300.645
300.683
300.725
300.77
300.817
300.867
300.918
300.97
301.022
301.075
301.127
301.18
301.232
301.284
301.337
301.391
301.445
301.501
301.559
301.618
301.679
301.742
301.806
301.87
301.935
302
302.064
302.126
302.187
302.245
302.302
302.357
302.411
302.464
302.518
302.572
302.628
302.686
302.745
302.807
302.869
302.933
302.997
303.059
303.12
303.178
303.232
303.284
303.332
303.377
303.42
303.463
303.506
303.551
303.599
303.652
303.709
303.772
303.839
303.912
303.988
304.066
304.145
304.224
304.302
304.376
304.447
304.514
304.577
304.636
304.693
304.747
304.799
304.849
304.898
304.944
304.987
305.025
305.055
305.075
305.081
305.072
305.045
304.997
304.928
304.837
304.725
304.594
304.445
304.283
304.111
303.933
303.752
303.575
303.404
303.242
303.094
302.962
302.849
302.756
302.685
302.637
302.613
300.497
300.502
300.512
300.528
300.548
300.573
300.603
300.636
300.674
300.715
300.759
300.806
300.854
300.904
300.955
301.007
301.059
301.111
301.162
301.214
301.266
301.318
301.37
301.424
301.479
301.536
301.594
301.654
301.716
301.779
301.843
301.907
301.971
302.033
302.095
302.154
302.212
302.268
302.322
302.375
302.428
302.481
302.534
302.589
302.646
302.705
302.765
302.827
302.89
302.952
303.014
303.073
303.13
303.184
303.235
303.282
303.327
303.37
303.412
303.455
303.499
303.547
303.599
303.655
303.717
303.783
303.854
303.929
304.006
304.084
304.162
304.238
304.311
304.381
304.447
304.509
304.567
304.623
304.676
304.727
304.777
304.825
304.87
304.912
304.949
304.978
304.997
305.004
304.994
304.967
304.92
304.852
304.762
304.652
304.523
304.377
304.218
304.049
303.874
303.698
303.523
303.355
303.197
303.052
302.922
302.811
302.719
302.65
302.603
302.579
300.49
300.495
300.505
300.52
300.54
300.565
300.594
300.627
300.664
300.704
300.748
300.794
300.841
300.89
300.941
300.991
301.042
301.093
301.144
301.195
301.246
301.297
301.349
301.402
301.456
301.512
301.569
301.629
301.689
301.751
301.814
301.877
301.939
302.001
302.061
302.12
302.177
302.232
302.285
302.338
302.39
302.442
302.495
302.549
302.605
302.663
302.722
302.783
302.844
302.906
302.966
303.025
303.081
303.134
303.184
303.23
303.275
303.317
303.359
303.401
303.445
303.492
303.543
303.599
303.659
303.725
303.794
303.868
303.943
304.02
304.096
304.171
304.243
304.311
304.376
304.437
304.495
304.55
304.602
304.652
304.701
304.748
304.793
304.834
304.87
304.898
304.916
304.922
304.913
304.886
304.839
304.772
304.684
304.576
304.449
304.307
304.15
303.985
303.813
303.64
303.469
303.304
303.149
303.006
302.879
302.77
302.681
302.612
302.566
302.543
300.483
300.488
300.498
300.512
300.532
300.556
300.585
300.617
300.654
300.693
300.736
300.781
300.828
300.876
300.925
300.975
301.025
301.075
301.125
301.175
301.225
301.276
301.327
301.379
301.432
301.487
301.543
301.602
301.661
301.722
301.784
301.845
301.907
301.968
302.027
302.085
302.14
302.195
302.247
302.299
302.35
302.401
302.453
302.507
302.562
302.618
302.677
302.736
302.797
302.857
302.916
302.974
303.029
303.081
303.13
303.176
303.22
303.262
303.303
303.344
303.388
303.434
303.484
303.539
303.599
303.663
303.732
303.804
303.878
303.953
304.028
304.101
304.172
304.239
304.303
304.363
304.419
304.473
304.525
304.574
304.622
304.668
304.712
304.752
304.787
304.814
304.832
304.837
304.828
304.801
304.755
304.689
304.603
304.497
304.373
304.233
304.08
303.917
303.749
303.58
303.412
303.251
303.099
302.959
302.834
302.727
302.64
302.573
302.527
302.504
300.475
300.48
300.49
300.504
300.524
300.547
300.575
300.607
300.643
300.682
300.723
300.767
300.813
300.861
300.909
300.958
301.007
301.056
301.105
301.154
301.204
301.253
301.303
301.355
301.407
301.461
301.516
301.574
301.632
301.692
301.752
301.813
301.873
301.933
301.991
302.048
302.102
302.156
302.207
302.258
302.308
302.359
302.41
302.463
302.517
302.572
302.63
302.688
302.747
302.806
302.865
302.921
302.975
303.026
303.075
303.12
303.163
303.204
303.245
303.286
303.328
303.374
303.424
303.477
303.536
303.599
303.666
303.737
303.809
303.883
303.956
304.028
304.097
304.164
304.226
304.285
304.341
304.394
304.444
304.493
304.54
304.585
304.628
304.667
304.701
304.727
304.744
304.749
304.74
304.713
304.668
304.603
304.519
304.415
304.293
304.156
304.006
303.847
303.683
303.517
303.353
303.195
303.046
302.909
302.787
302.683
302.597
302.531
302.486
302.464
300.467
300.472
300.481
300.496
300.515
300.538
300.565
300.596
300.631
300.669
300.71
300.753
300.798
300.845
300.892
300.94
300.988
301.037
301.085
301.133
301.181
301.23
301.279
301.33
301.381
301.434
301.488
301.544
301.602
301.66
301.719
301.779
301.838
301.896
301.953
302.009
302.063
302.115
302.166
302.216
302.265
302.315
302.365
302.417
302.47
302.524
302.581
302.638
302.696
302.754
302.811
302.866
302.919
302.969
303.017
303.061
303.103
303.144
303.184
303.224
303.267
303.312
303.36
303.413
303.47
303.532
303.598
303.667
303.738
303.81
303.882
303.952
304.02
304.085
304.147
304.205
304.259
304.311
304.361
304.408
304.454
304.499
304.54
304.578
304.611
304.637
304.654
304.658
304.648
304.622
304.578
304.514
304.431
304.33
304.211
304.076
303.93
303.775
303.614
303.451
303.291
303.137
302.991
302.857
302.738
302.636
302.551
302.487
302.444
302.422
300.459
300.463
300.473
300.487
300.505
300.528
300.555
300.585
300.619
300.657
300.697
300.739
300.783
300.828
300.875
300.922
300.969
301.016
301.063
301.111
301.158
301.206
301.254
301.303
301.354
301.406
301.459
301.514
301.57
301.628
301.686
301.744
301.802
301.859
301.915
301.969
302.022
302.073
302.123
302.172
302.221
302.269
302.319
302.369
302.421
302.475
302.53
302.586
302.643
302.699
302.755
302.809
302.861
302.91
302.957
303.001
303.042
303.082
303.121
303.161
303.202
303.247
303.294
303.346
303.402
303.463
303.527
303.595
303.665
303.735
303.805
303.874
303.941
304.004
304.064
304.121
304.175
304.225
304.274
304.321
304.366
304.409
304.45
304.487
304.519
304.544
304.56
304.564
304.554
304.528
304.484
304.422
304.341
304.241
304.125
303.994
303.851
303.699
303.542
303.384
303.227
303.076
302.934
302.803
302.687
302.586
302.504
302.441
302.399
302.378
300.45
300.454
300.464
300.477
300.495
300.517
300.544
300.574
300.607
300.643
300.682
300.724
300.767
300.811
300.857
300.903
300.949
300.995
301.041
301.088
301.134
301.181
301.228
301.276
301.326
301.377
301.429
301.483
301.538
301.594
301.65
301.707
301.764
301.82
301.875
301.928
301.98
302.03
302.079
302.127
302.174
302.222
302.27
302.32
302.371
302.423
302.477
302.532
302.588
302.643
302.697
302.75
302.801
302.849
302.895
302.938
302.978
303.018
303.056
303.095
303.136
303.179
303.226
303.277
303.332
303.391
303.454
303.52
303.588
303.657
303.726
303.793
303.858
303.92
303.979
304.035
304.087
304.137
304.185
304.23
304.274
304.316
304.356
304.392
304.423
304.448
304.463
304.467
304.457
304.431
304.388
304.327
304.248
304.151
304.037
303.909
303.77
303.621
303.468
303.313
303.161
303.013
302.874
302.747
302.633
302.535
302.455
302.394
302.352
302.331
300.441
300.445
300.454
300.467
300.485
300.507
300.532
300.562
300.594
300.63
300.668
300.708
300.75
300.794
300.838
300.883
300.928
300.973
301.018
301.064
301.109
301.155
301.201
301.249
301.297
301.347
301.398
301.45
301.504
301.559
301.614
301.67
301.725
301.78
301.833
301.885
301.936
301.985
302.033
302.08
302.126
302.173
302.221
302.269
302.319
302.37
302.423
302.476
302.531
302.585
302.638
302.69
302.739
302.787
302.831
302.873
302.913
302.951
302.989
303.028
303.067
303.11
303.156
303.205
303.259
303.317
303.379
303.443
303.51
303.577
303.644
303.709
303.773
303.834
303.891
303.945
303.997
304.046
304.092
304.137
304.18
304.221
304.26
304.295
304.325
304.348
304.363
304.366
304.356
304.331
304.289
304.23
304.152
304.057
303.946
303.822
303.685
303.541
303.392
303.241
303.092
302.948
302.813
302.689
302.578
302.482
302.404
302.344
302.304
302.283
300.431
300.436
300.444
300.457
300.474
300.496
300.521
300.549
300.581
300.615
300.653
300.692
300.733
300.775
300.819
300.862
300.907
300.951
300.995
301.039
301.084
301.128
301.174
301.22
301.267
301.316
301.365
301.417
301.469
301.523
301.577
301.631
301.685
301.738
301.791
301.842
301.891
301.939
301.986
302.032
302.077
302.123
302.169
302.217
302.265
302.315
302.367
302.419
302.472
302.525
302.577
302.627
302.676
302.722
302.765
302.806
302.845
302.883
302.92
302.958
302.997
303.038
303.083
303.132
303.184
303.241
303.301
303.364
303.428
303.494
303.559
303.623
303.685
303.744
303.801
303.854
303.904
303.951
303.997
304.041
304.082
304.123
304.16
304.194
304.224
304.246
304.26
304.263
304.253
304.229
304.187
304.129
304.054
303.961
303.853
303.732
303.599
303.458
303.313
303.166
303.021
302.881
302.749
302.628
302.52
302.427
302.351
302.293
302.253
302.233
300.421
300.426
300.434
300.447
300.463
300.484
300.508
300.536
300.567
300.601
300.637
300.675
300.715
300.757
300.799
300.841
300.884
300.928
300.971
301.014
301.057
301.101
301.145
301.19
301.236
301.284
301.332
301.382
301.433
301.486
301.538
301.591
301.644
301.696
301.747
301.796
301.845
301.891
301.937
301.982
302.027
302.071
302.116
302.163
302.21
302.259
302.309
302.36
302.412
302.463
302.514
302.563
302.61
302.655
302.697
302.738
302.776
302.812
302.849
302.886
302.924
302.965
303.008
303.056
303.107
303.162
303.221
303.282
303.345
303.409
303.472
303.535
303.595
303.653
303.707
303.759
303.808
303.855
303.899
303.942
303.982
304.021
304.058
304.091
304.119
304.141
304.155
304.157
304.148
304.123
304.083
304.026
303.953
303.863
303.757
303.639
303.51
303.373
303.232
303.089
302.948
302.812
302.684
302.566
302.461
302.37
302.296
302.239
302.201
302.182
300.411
300.415
300.423
300.436
300.452
300.472
300.496
300.523
300.553
300.586
300.621
300.658
300.697
300.737
300.778
300.82
300.862
300.904
300.946
300.988
301.03
301.073
301.116
301.16
301.205
301.251
301.298
301.347
301.397
301.448
301.499
301.55
301.602
301.652
301.702
301.75
301.797
301.843
301.887
301.931
301.974
302.018
302.062
302.107
302.153
302.201
302.25
302.3
302.35
302.4
302.449
302.497
302.543
302.587
302.628
302.667
302.704
302.74
302.776
302.812
302.849
302.889
302.931
302.978
303.028
303.081
303.138
303.198
303.259
303.321
303.383
303.444
303.502
303.558
303.612
303.662
303.71
303.755
303.798
303.84
303.88
303.918
303.953
303.985
304.013
304.034
304.046
304.049
304.039
304.015
303.976
303.921
303.849
303.761
303.659
303.544
303.419
303.286
303.149
303.01
302.873
302.741
302.616
302.502
302.399
302.312
302.239
302.184
302.147
302.128
300.4
300.405
300.413
300.425
300.44
300.46
300.483
300.509
300.538
300.57
300.605
300.641
300.679
300.718
300.757
300.798
300.839
300.879
300.92
300.961
301.002
301.044
301.086
301.128
301.172
301.217
301.263
301.311
301.359
301.408
301.458
301.508
301.558
301.607
301.656
301.703
301.748
301.793
301.836
301.879
301.921
301.963
302.006
302.05
302.095
302.142
302.189
302.237
302.286
302.335
302.383
302.429
302.474
302.516
302.557
302.595
302.631
302.666
302.701
302.736
302.772
302.811
302.853
302.898
302.946
302.998
303.054
303.111
303.171
303.231
303.291
303.35
303.407
303.462
303.514
303.563
303.609
303.653
303.695
303.736
303.774
303.811
303.846
303.877
303.903
303.923
303.936
303.938
303.928
303.905
303.867
303.813
303.743
303.658
303.559
303.447
303.326
303.197
303.063
302.929
302.796
302.668
302.547
302.436
302.336
302.251
302.181
302.127
302.091
302.073
300.39
300.394
300.401
300.413
300.428
300.447
300.47
300.495
300.523
300.554
300.588
300.623
300.659
300.697
300.736
300.775
300.815
300.854
300.894
300.934
300.974
301.014
301.055
301.096
301.139
301.183
301.227
301.273
301.32
301.368
301.417
301.465
301.514
301.562
301.608
301.654
301.698
301.742
301.784
301.825
301.866
301.908
301.949
301.992
302.036
302.081
302.127
302.174
302.221
302.268
302.315
302.36
302.403
302.445
302.484
302.521
302.556
302.59
302.624
302.658
302.694
302.731
302.772
302.815
302.863
302.913
302.967
303.023
303.081
303.139
303.197
303.255
303.31
303.363
303.413
303.461
303.506
303.549
303.59
303.629
303.667
303.702
303.736
303.766
303.791
303.811
303.822
303.824
303.815
303.792
303.755
303.702
303.635
303.552
303.456
303.348
303.23
303.105
302.976
302.846
302.717
302.592
302.475
302.368
302.272
302.189
302.121
302.069
302.034
302.016
300.378
300.382
300.39
300.401
300.416
300.434
300.456
300.481
300.508
300.538
300.57
300.604
300.64
300.677
300.714
300.752
300.79
300.829
300.867
300.906
300.945
300.984
301.023
301.064
301.105
301.147
301.191
301.235
301.281
301.327
301.374
301.421
301.468
301.515
301.56
301.604
301.647
301.689
301.73
301.771
301.81
301.85
301.891
301.932
301.975
302.018
302.063
302.109
302.154
302.2
302.245
302.289
302.331
302.371
302.409
302.445
302.479
302.513
302.545
302.579
302.613
302.65
302.689
302.731
302.777
302.826
302.878
302.933
302.988
303.045
303.102
303.157
303.211
303.262
303.311
303.357
303.401
303.442
303.482
303.52
303.556
303.591
303.623
303.652
303.677
303.695
303.707
303.708
303.699
303.677
303.641
303.59
303.524
303.444
303.351
303.247
303.133
303.012
302.887
302.761
302.636
302.516
302.402
302.298
302.205
302.125
302.059
302.009
301.975
301.958
300.367
300.371
300.378
300.389
300.403
300.421
300.442
300.466
300.492
300.521
300.552
300.585
300.62
300.655
300.692
300.728
300.765
300.803
300.84
300.877
300.915
300.953
300.991
301.03
301.07
301.111
301.153
301.196
301.241
301.286
301.331
301.377
301.422
301.467
301.511
301.554
301.595
301.636
301.676
301.715
301.753
301.792
301.831
301.872
301.913
301.955
301.998
302.042
302.086
302.131
302.174
302.216
302.257
302.296
302.333
302.368
302.401
302.433
302.465
302.497
302.531
302.566
302.604
302.645
302.69
302.737
302.788
302.84
302.894
302.949
303.004
303.057
303.109
303.159
303.206
303.251
303.293
303.333
303.372
303.409
303.444
303.477
303.508
303.536
303.56
303.578
303.589
303.59
303.581
303.559
303.524
303.475
303.412
303.334
303.244
303.143
303.033
302.916
302.796
302.674
302.553
302.437
302.327
302.227
302.137
302.059
301.996
301.947
301.914
301.898
300.355
300.359
300.366
300.376
300.39
300.407
300.427
300.45
300.476
300.504
300.534
300.566
300.599
300.634
300.669
300.704
300.74
300.776
300.812
300.848
300.885
300.921
300.958
300.996
301.035
301.074
301.115
301.157
301.199
301.243
301.287
301.331
301.375
301.418
301.46
301.502
301.542
301.581
301.62
301.658
301.695
301.733
301.771
301.809
301.849
301.89
301.932
301.974
302.017
302.06
302.102
302.143
302.182
302.22
302.255
302.289
302.321
302.352
302.383
302.414
302.447
302.481
302.518
302.558
302.601
302.646
302.695
302.746
302.798
302.851
302.904
302.955
303.005
303.053
303.099
303.142
303.183
303.222
303.259
303.295
303.329
303.361
303.391
303.418
303.441
303.458
303.468
303.47
303.46
303.439
303.406
303.358
303.297
303.222
303.135
303.038
302.932
302.819
302.702
302.585
302.469
302.357
302.251
302.154
302.067
301.992
301.931
301.884
301.852
301.837
300.343
300.346
300.353
300.363
300.377
300.393
300.413
300.435
300.46
300.487
300.516
300.546
300.578
300.611
300.645
300.68
300.714
300.749
300.784
300.819
300.854
300.889
300.925
300.961
300.998
301.037
301.076
301.116
301.157
301.199
301.242
301.284
301.326
301.368
301.409
301.449
301.488
301.526
301.563
301.599
301.636
301.672
301.709
301.746
301.784
301.824
301.864
301.905
301.946
301.987
302.028
302.067
302.105
302.142
302.176
302.208
302.24
302.27
302.3
302.33
302.361
302.394
302.43
302.468
302.51
302.554
302.601
302.65
302.7
302.751
302.802
302.852
302.9
302.946
302.99
303.032
303.072
303.109
303.145
303.179
303.212
303.243
303.272
303.298
303.32
303.336
303.346
303.347
303.338
303.318
303.285
303.239
303.18
303.108
303.024
302.931
302.828
302.72
302.608
302.494
302.382
302.275
302.173
302.079
301.996
301.924
301.865
301.82
301.789
301.774
300.331
300.334
300.34
300.35
300.363
300.379
300.398
300.419
300.443
300.469
300.497
300.526
300.557
300.589
300.621
300.654
300.688
300.721
300.755
300.788
300.822
300.856
300.891
300.926
300.962
300.998
301.036
301.075
301.115
301.155
301.196
301.237
301.277
301.317
301.357
301.395
301.433
301.469
301.505
301.54
301.575
301.61
301.645
301.681
301.718
301.756
301.795
301.834
301.874
301.914
301.953
301.991
302.027
302.062
302.095
302.127
302.157
302.186
302.215
302.244
302.274
302.306
302.34
302.377
302.417
302.46
302.505
302.552
302.6
302.649
302.698
302.746
302.792
302.837
302.879
302.92
302.958
302.994
303.028
303.061
303.093
303.123
303.15
303.175
303.196
303.212
303.221
303.222
303.214
303.194
303.162
303.118
303.061
302.992
302.912
302.821
302.723
302.619
302.511
302.402
302.295
302.191
302.093
302.003
301.923
301.854
301.797
301.754
301.724
301.709
300.318
300.321
300.327
300.337
300.349
300.364
300.382
300.403
300.426
300.451
300.478
300.506
300.535
300.566
300.597
300.629
300.661
300.693
300.725
300.757
300.79
300.823
300.856
300.89
300.924
300.959
300.996
301.033
301.071
301.11
301.149
301.188
301.227
301.266
301.304
301.341
301.377
301.412
301.446
301.48
301.514
301.547
301.581
301.616
301.651
301.688
301.725
301.763
301.801
301.839
301.876
301.913
301.948
301.981
302.013
302.043
302.072
302.1
302.128
302.156
302.185
302.216
302.249
302.285
302.323
302.364
302.407
302.452
302.499
302.546
302.592
302.639
302.683
302.726
302.767
302.805
302.842
302.877
302.91
302.942
302.972
303
303.027
303.051
303.071
303.086
303.095
303.096
303.087
303.068
303.038
302.995
302.941
302.874
302.797
302.711
302.616
302.516
302.413
302.308
302.205
302.106
302.012
301.926
301.849
301.782
301.728
301.686
301.658
301.644
300.305
300.308
300.314
300.323
300.335
300.35
300.367
300.386
300.408
300.432
300.458
300.485
300.513
300.543
300.573
300.603
300.634
300.664
300.695
300.726
300.757
300.789
300.82
300.853
300.886
300.92
300.955
300.99
301.027
301.064
301.102
301.139
301.177
301.214
301.25
301.285
301.32
301.354
301.386
301.419
301.451
301.483
301.516
301.549
301.583
301.618
301.654
301.69
301.727
301.763
301.799
301.834
301.867
301.9
301.93
301.959
301.987
302.014
302.04
302.067
302.095
302.125
302.156
302.19
302.227
302.266
302.308
302.351
302.395
302.44
302.485
302.529
302.572
302.613
302.652
302.689
302.724
302.758
302.79
302.82
302.849
302.876
302.902
302.924
302.944
302.958
302.966
302.967
302.959
302.941
302.911
302.871
302.818
302.755
302.681
302.598
302.508
302.412
302.313
302.213
302.114
302.019
301.929
301.847
301.773
301.709
301.657
301.617
301.591
301.577
300.292
300.295
300.301
300.309
300.32
300.334
300.351
300.37
300.391
300.413
300.438
300.464
300.491
300.519
300.548
300.577
300.606
300.635
300.665
300.694
300.724
300.754
300.785
300.816
300.847
300.88
300.913
300.947
300.982
301.018
301.053
301.089
301.125
301.16
301.195
301.229
301.262
301.294
301.326
301.357
301.388
301.418
301.45
301.481
301.514
301.547
301.581
301.616
301.651
301.686
301.72
301.753
301.786
301.816
301.846
301.873
301.9
301.925
301.951
301.977
302.003
302.032
302.062
302.095
302.13
302.167
302.207
302.248
302.291
302.334
302.377
302.419
302.46
302.499
302.536
302.572
302.605
302.637
302.667
302.696
302.724
302.75
302.775
302.796
302.815
302.828
302.836
302.837
302.829
302.811
302.783
302.744
302.694
302.634
302.563
302.484
302.398
302.306
302.212
302.116
302.022
301.931
301.845
301.766
301.696
301.635
301.586
301.548
301.522
301.509
300.279
300.281
300.287
300.295
300.306
300.319
300.335
300.353
300.373
300.394
300.418
300.442
300.468
300.495
300.522
300.55
300.578
300.606
300.634
300.662
300.691
300.719
300.748
300.778
300.808
300.839
300.871
300.903
300.936
300.97
301.004
301.039
301.073
301.107
301.14
301.172
301.204
301.234
301.264
301.294
301.323
301.353
301.382
301.413
301.444
301.476
301.508
301.541
301.574
301.608
301.64
301.672
301.703
301.732
301.76
301.786
301.812
301.836
301.86
301.885
301.911
301.938
301.966
301.998
302.031
302.067
302.104
302.144
302.184
302.225
302.266
302.306
302.345
302.383
302.418
302.452
302.484
302.515
302.544
302.571
302.598
302.623
302.646
302.666
302.684
302.697
302.704
302.705
302.697
302.68
302.654
302.617
302.569
302.511
302.444
302.368
302.286
302.199
302.109
302.018
301.929
301.842
301.76
301.685
301.618
301.56
301.513
301.476
301.452
301.44
300.265
300.268
300.273
300.281
300.291
300.303
300.318
300.335
300.354
300.375
300.397
300.421
300.445
300.471
300.496
300.523
300.549
300.576
300.603
300.63
300.657
300.684
300.711
300.739
300.768
300.798
300.828
300.859
300.89
300.922
300.955
300.988
301.02
301.052
301.083
301.114
301.144
301.173
301.202
301.23
301.258
301.286
301.314
301.343
301.373
301.403
301.434
301.465
301.497
301.528
301.559
301.59
301.619
301.647
301.673
301.698
301.722
301.746
301.769
301.792
301.816
301.842
301.87
301.899
301.931
301.965
302.001
302.038
302.077
302.116
302.154
302.193
302.23
302.265
302.299
302.331
302.362
302.391
302.418
302.444
302.469
302.493
302.515
302.535
302.551
302.563
302.57
302.571
302.564
302.548
302.522
302.487
302.442
302.387
302.323
302.251
302.173
302.091
302.005
301.919
301.834
301.751
301.674
301.602
301.539
301.484
301.439
301.404
301.381
301.369
300.251
300.254
300.259
300.266
300.276
300.288
300.302
300.318
300.336
300.355
300.376
300.399
300.422
300.446
300.47
300.495
300.521
300.546
300.571
300.597
300.622
300.648
300.674
300.701
300.728
300.756
300.784
300.814
300.844
300.874
300.905
300.936
300.966
300.997
301.027
301.056
301.084
301.112
301.139
301.165
301.192
301.218
301.245
301.273
301.3
301.329
301.358
301.388
301.418
301.448
301.477
301.506
301.534
301.56
301.585
301.609
301.632
301.654
301.676
301.698
301.721
301.745
301.772
301.8
301.83
301.862
301.896
301.931
301.968
302.005
302.041
302.077
302.113
302.146
302.178
302.209
302.238
302.265
302.291
302.316
302.34
302.362
302.383
302.401
302.417
302.429
302.435
302.436
302.429
302.414
302.39
302.356
302.313
302.261
302.201
302.133
302.059
301.981
301.9
301.818
301.737
301.66
301.586
301.518
301.458
301.406
301.363
301.331
301.309
301.298
300.237
300.239
300.244
300.251
300.26
300.272
300.285
300.3
300.317
300.335
300.355
300.376
300.398
300.421
300.444
300.468
300.491
300.515
300.539
300.563
300.587
300.612
300.636
300.661
300.687
300.713
300.74
300.768
300.796
300.825
300.854
300.883
300.912
300.941
300.969
300.996
301.023
301.049
301.075
301.1
301.125
301.15
301.175
301.201
301.228
301.255
301.282
301.31
301.339
301.367
301.395
301.422
301.448
301.473
301.496
301.519
301.54
301.561
301.582
301.603
301.625
301.648
301.672
301.699
301.727
301.757
301.79
301.823
301.857
301.892
301.927
301.961
301.994
302.026
302.056
302.085
302.112
302.138
302.163
302.186
302.208
302.23
302.249
302.267
302.281
302.292
302.298
302.299
302.292
302.278
302.255
302.224
302.183
302.134
302.077
302.013
301.943
301.87
301.793
301.716
301.64
301.567
301.497
301.433
301.377
301.328
301.287
301.257
301.236
301.225
300.223
300.225
300.229
300.236
300.245
300.255
300.268
300.282
300.298
300.315
300.334
300.354
300.374
300.396
300.417
300.44
300.462
300.484
300.507
300.529
300.552
300.575
300.598
300.622
300.646
300.671
300.696
300.722
300.749
300.776
300.803
300.83
300.857
300.884
300.911
300.937
300.962
300.986
301.01
301.034
301.057
301.081
301.105
301.129
301.154
301.179
301.205
301.232
301.258
301.285
301.311
301.336
301.361
301.384
301.406
301.428
301.448
301.467
301.487
301.507
301.527
301.549
301.572
301.597
301.623
301.652
301.682
301.714
301.746
301.779
301.811
301.843
301.874
301.904
301.933
301.96
301.985
302.01
302.033
302.055
302.076
302.096
302.114
302.131
302.144
302.155
302.16
302.161
302.155
302.141
302.12
302.09
302.052
302.006
301.952
301.892
301.827
301.757
301.686
301.613
301.542
301.473
301.407
301.348
301.294
301.248
301.21
301.181
301.162
301.152
300.522
300.527
300.539
300.555
300.577
300.604
300.636
300.672
300.713
300.757
300.804
300.854
300.907
300.96
301.015
301.071
301.126
301.181
301.236
301.291
301.346
301.401
301.456
301.513
301.572
301.632
301.694
301.758
301.824
301.892
301.96
302.029
302.097
302.164
302.23
302.293
302.355
302.414
302.471
302.527
302.582
302.638
302.695
302.753
302.813
302.876
302.94
303.007
303.074
303.141
303.208
303.272
303.333
303.39
303.444
303.494
303.541
303.585
303.629
303.673
303.719
303.769
303.823
303.883
303.948
304.02
304.096
304.177
304.26
304.344
304.428
304.51
304.589
304.664
304.734
304.8
304.862
304.921
304.977
305.031
305.085
305.136
305.186
305.233
305.274
305.308
305.331
305.341
305.333
305.306
305.257
305.185
305.089
304.97
304.83
304.671
304.498
304.314
304.123
303.93
303.74
303.557
303.385
303.227
303.087
302.966
302.867
302.791
302.74
302.715
300.517
300.522
300.533
300.55
300.571
300.598
300.629
300.665
300.705
300.748
300.795
300.845
300.896
300.949
301.003
301.058
301.112
301.167
301.221
301.275
301.33
301.384
301.439
301.495
301.553
301.612
301.674
301.737
301.802
301.869
301.936
302.004
302.071
302.138
302.203
302.265
302.326
302.384
302.441
302.496
302.551
302.606
302.662
302.72
302.779
302.841
302.905
302.97
303.037
303.103
303.168
303.232
303.292
303.349
303.402
303.451
303.498
303.542
303.585
303.629
303.674
303.724
303.777
303.837
303.901
303.972
304.047
304.127
304.209
304.292
304.375
304.455
304.533
304.607
304.676
304.741
304.802
304.86
304.916
304.97
305.022
305.073
305.122
305.168
305.209
305.241
305.264
305.273
305.265
305.238
305.189
305.118
305.023
304.906
304.768
304.612
304.442
304.26
304.073
303.883
303.696
303.516
303.347
303.192
303.053
302.934
302.837
302.763
302.712
302.687
300.511
300.517
300.527
300.543
300.565
300.591
300.622
300.657
300.696
300.739
300.785
300.834
300.885
300.937
300.99
301.044
301.098
301.152
301.205
301.259
301.312
301.366
301.421
301.476
301.533
301.592
301.652
301.715
301.779
301.845
301.911
301.978
302.044
302.11
302.174
302.236
302.295
302.353
302.409
302.464
302.518
302.572
302.628
302.685
302.743
302.804
302.867
302.932
302.997
303.063
303.127
303.189
303.249
303.305
303.357
303.406
303.452
303.496
303.538
303.582
303.627
303.676
303.729
303.788
303.852
303.921
303.995
304.073
304.154
304.236
304.317
304.397
304.474
304.546
304.615
304.679
304.739
304.797
304.852
304.905
304.956
305.006
305.055
305.099
305.139
305.171
305.193
305.201
305.193
305.166
305.118
305.047
304.954
304.839
304.703
304.55
304.382
304.204
304.019
303.833
303.65
303.473
303.306
303.153
303.017
302.9
302.805
302.731
302.682
302.657
300.505
300.511
300.521
300.537
300.558
300.584
300.614
300.649
300.688
300.73
300.775
300.823
300.873
300.924
300.977
301.03
301.083
301.136
301.189
301.242
301.294
301.347
301.401
301.456
301.512
301.57
301.63
301.691
301.754
301.819
301.885
301.95
302.016
302.08
302.143
302.204
302.263
302.32
302.375
302.429
302.483
302.537
302.591
302.648
302.706
302.766
302.828
302.891
302.956
303.02
303.083
303.145
303.203
303.258
303.31
303.358
303.404