/*--------------------------------*- C++ -*----------------------------------*\
| =========                 |                                                 |
| \\      /  F ield         | OpenFOAM: The Open Source CFD Toolbox           |
|  \\    /   O peration     | Version:  5.0                                   |
|   \\  /    A nd           | Web:      www.OpenFOAM.org                      |
|    \\/     M anipulation  |                                                 |
\*---------------------------------------------------------------------------*/
FoamFile
{
    version     2.0;
    format      ascii;
    class       volVectorField;
    location    "10000";
    object      U;
}
// * * * * * * * * * * * * * * * * * * * * * * * * * * * * * * * * * * * * * //

dimensions      [0 1 -1 0 0 0 0];

internalField   nonuniform List<vector> 
12225
(
(0.942908 0.0248357 0)
(0.865256 0.0188528 0)
(0.807638 0.00870408 0)
(0.763105 0.00357756 0)
(0.729442 0.00092824 0)
(0.705122 -0.00124485 0)
(0.68393 -0.00195974 0)
(0.664316 -0.00174589 0)
(0.646135 -0.00119988 0)
(0.629056 -0.00059696 0)
(0.613013 -6.81875e-05 0)
(0.598136 0.000324149 0)
(0.584571 0.000566337 0)
(0.572418 0.000667855 0)
(0.561806 0.000646195 0)
(0.552767 0.000452076 0)
(0.546062 0.000237554 0)
(0.53951 -0.0011041 0)
(1.01724 0.00949898 0)
(1.03991 0.0134763 0)
(1.04523 0.0128348 0)
(1.04021 0.0120764 0)
(1.03043 0.0112124 0)
(1.02034 0.010556 0)
(1.01076 0.0102287 0)
(1.00174 0.00996984 0)
(0.993155 0.00961783 0)
(0.985048 0.00917895 0)
(0.977401 0.00870506 0)
(0.970153 0.00820221 0)
(0.963272 0.00766105 0)
(0.956766 0.00707158 0)
(0.950696 0.00642349 0)
(0.945053 0.00564942 0)
(0.940124 0.00471142 0)
(0.935076 0.00318997 0)
(1.00318 0.00907793 0)
(1.01624 0.0128416 0)
(1.02625 0.0111262 0)
(1.03178 0.00967134 0)
(1.03524 0.0086819 0)
(1.03769 0.00780968 0)
(1.03932 0.00722862 0)
(1.04032 0.00689679 0)
(1.04088 0.00669443 0)
(1.04115 0.00656379 0)
(1.04117 0.00645711 0)
(1.04098 0.006326 0)
(1.0406 0.00613658 0)
(1.04007 0.00586181 0)
(1.03942 0.00547937 0)
(1.03863 0.00490815 0)
(1.03775 0.00415154 0)
(1.03632 0.00279064 0)
(1.00172 0.00717011 0)
(1.00909 0.0107529 0)
(1.0149 0.00925175 0)
(1.01765 0.00809831 0)
(1.01931 0.0076009 0)
(1.02094 0.00720414 0)
(1.02254 0.00699973 0)
(1.02408 0.00699952 0)
(1.02562 0.00707306 0)
(1.02715 0.00712553 0)
(1.02867 0.00711776 0)
(1.03015 0.00703068 0)
(1.03157 0.00685215 0)
(1.03291 0.00656894 0)
(1.03416 0.00616854 0)
(1.03529 0.00560254 0)
(1.03621 0.00487342 0)
(1.03683 0.00387026 0)
(1.0012 0.00542993 0)
(1.00683 0.0092699 0)
(1.01182 0.00865738 0)
(1.01423 0.00788302 0)
(1.01536 0.00754767 0)
(1.01632 0.00721267 0)
(1.01727 0.00692312 0)
(1.01816 0.00675145 0)
(1.01903 0.00662861 0)
(1.01994 0.0064885 0)
(1.02088 0.00631156 0)
(1.02185 0.00609054 0)
(1.02282 0.00581408 0)
(1.02378 0.00546631 0)
(1.02472 0.00503151 0)
(1.02559 0.00448054 0)
(1.02634 0.00381693 0)
(1.0269 0.00304917 0)
(1.00082 0.00415949 0)
(1.00513 0.00803449 0)
(1.00949 0.00802814 0)
(1.01193 0.00737937 0)
(1.01312 0.007037 0)
(1.01409 0.00674652 0)
(1.01503 0.00647784 0)
(1.0159 0.00630489 0)
(1.01672 0.00619737 0)
(1.01754 0.00609661 0)
(1.01836 0.00597225 0)
(1.01919 0.00580793 0)
(1.02001 0.00558744 0)
(1.0208 0.00529432 0)
(1.02155 0.00491564 0)
(1.02224 0.00443837 0)
(1.02281 0.00387211 0)
(1.02324 0.00324678 0)
(1.00056 0.00321963 0)
(1.00382 0.00683706 0)
(1.00752 0.00725374 0)
(1.00987 0.00678964 0)
(1.01112 0.00652595 0)
(1.0121 0.00635102 0)
(1.01306 0.0061674 0)
(1.01396 0.00602448 0)
(1.0148 0.00592098 0)
(1.01561 0.00581269 0)
(1.01642 0.00566874 0)
(1.01722 0.00547506 0)
(1.018 0.00522183 0)
(1.01875 0.0048999 0)
(1.01944 0.00450327 0)
(1.02007 0.00402999 0)
(1.02058 0.00349292 0)
(1.02098 0.00292386 0)
(1.00039 0.00251221 0)
(1.00284 0.00574241 0)
(1.00592 0.00647516 0)
(1.00813 0.0062403 0)
(1.00942 0.00606055 0)
(1.0104 0.00595493 0)
(1.01135 0.00581565 0)
(1.01224 0.00567316 0)
(1.01308 0.00554947 0)
(1.01387 0.00542068 0)
(1.01466 0.00526116 0)
(1.01543 0.00505891 0)
(1.01618 0.00480728 0)
(1.01688 0.00450022 0)
(1.01753 0.00413434 0)
(1.01812 0.00371166 0)
(1.0186 0.00324502 0)
(1.019 0.00276174 0)
(1.00028 0.00197604 0)
(1.00212 0.00478379 0)
(1.00465 0.00571242 0)
(1.00668 0.0056857 0)
(1.00797 0.00557627 0)
(1.00895 0.00551244 0)
(1.00988 0.00541209 0)
(1.01077 0.00528601 0)
(1.01159 0.00516262 0)
(1.01238 0.00503236 0)
(1.01314 0.00487407 0)
(1.01388 0.00467553 0)
(1.01459 0.00443106 0)
(1.01525 0.00413697 0)
(1.01586 0.00379248 0)
(1.0164 0.00340251 0)
(1.01686 0.00297939 0)
(1.01724 0.00254684 0)
(1.0002 0.00156602 0)
(1.00159 0.0039605 0)
(1.00365 0.00497398 0)
(1.00547 0.00511651 0)
(1.00674 0.00507791 0)
(1.00771 0.00505032 0)
(1.00862 0.00498745 0)
(1.00949 0.00488413 0)
(1.01031 0.00476557 0)
(1.01108 0.00463317 0)
(1.01181 0.00447278 0)
(1.01252 0.00427429 0)
(1.0132 0.00403408 0)
(1.01382 0.00375149 0)
(1.0144 0.00342848 0)
(1.0149 0.00307155 0)
(1.01534 0.00269189 0)
(1.0157 0.00230867 0)
(1.00015 0.00124732 0)
(1.0012 0.00326232 0)
(1.00287 0.00427918 0)
(1.00448 0.00454663 0)
(1.00569 0.00457493 0)
(1.00665 0.00457641 0)
(1.00754 0.00454098 0)
(1.00839 0.00445733 0)
(1.00919 0.00434502 0)
(1.00994 0.00421277 0)
(1.01066 0.00405371 0)
(1.01134 0.00386048 0)
(1.01198 0.00363078 0)
(1.01257 0.00336564 0)
(1.01311 0.00306828 0)
(1.01359 0.00274525 0)
(1.01401 0.00240584 0)
(1.01436 0.00206529 0)
(1.00011 0.00101052 0)
(1.00094 0.00270952 0)
(1.00232 0.00368064 0)
(1.00373 0.00402519 0)
(1.00489 0.00410737 0)
(1.00583 0.00413066 0)
(1.00669 0.00411336 0)
(1.00752 0.00404582 0)
(1.0083 0.00394201 0)
(1.00903 0.00381357 0)
(1.00972 0.003659 0)
(1.01038 0.00347346 0)
(1.01099 0.0032556 0)
(1.01156 0.00300737 0)
(1.01207 0.00273273 0)
(1.01253 0.00243807 0)
(1.01293 0.00213116 0)
(1.01328 0.00182464 0)
(1.00009 0.000823434 0)
(1.00075 0.00224393 0)
(1.00188 0.00313114 0)
(1.00312 0.00351207 0)
(1.0042 0.00363616 0)
(1.00511 0.00367837 0)
(1.00595 0.00367459 0)
(1.00675 0.00362108 0)
(1.00752 0.00352748 0)
(1.00823 0.00340547 0)
(1.0089 0.00325734 0)
(1.00953 0.00308098 0)
(1.01012 0.0028762 0)
(1.01066 0.00264555 0)
(1.01115 0.00239336 0)
(1.01159 0.00212568 0)
(1.01198 0.00184894 0)
(1.01232 0.00157386 0)
(1.00007 0.000648181 0)
(1.00059 0.0017886 0)
(1.0015 0.0025565 0)
(1.00256 0.00294059 0)
(1.00355 0.0030946 0)
(1.00443 0.00315307 0)
(1.00523 0.00315994 0)
(1.006 0.00311889 0)
(1.00674 0.00303692 0)
(1.00743 0.00292429 0)
(1.00807 0.0027858 0)
(1.00868 0.00262205 0)
(1.00924 0.00243399 0)
(1.00976 0.00222455 0)
(1.01023 0.00199798 0)
(1.01065 0.00175974 0)
(1.01102 0.00151491 0)
(1.01135 0.0012725 0)
(1.00005 0.000484808 0)
(1.00045 0.00135204 0)
(1.00118 0.00197312 0)
(1.00208 0.00232236 0)
(1.00297 0.00248394 0)
(1.00379 0.0025501 0)
(1.00456 0.00256268 0)
(1.00529 0.00253094 0)
(1.006 0.00246078 0)
(1.00666 0.00236036 0)
(1.00728 0.00223534 0)
(1.00785 0.00208815 0)
(1.00839 0.00192072 0)
(1.00888 0.00173605 0)
(1.00933 0.00153801 0)
(1.00973 0.00133131 0)
(1.01009 0.00111979 0)
(1.01041 0.000910985 0)
(1.00004 0.000332577 0)
(1.00035 0.000935077 0)
(1.00094 0.00138674 0)
(1.00169 0.00166274 0)
(1.00248 0.00180329 0)
(1.00324 0.0018635 0)
(1.00397 0.00187517 0)
(1.00466 0.00184884 0)
(1.00533 0.00178968 0)
(1.00596 0.0017036 0)
(1.00655 0.00159562 0)
(1.0071 0.00146884 0)
(1.00761 0.00132569 0)
(1.00807 0.00116898 0)
(1.0085 0.00100203 0)
(1.00888 0.000828634 0)
(1.00923 0.000651601 0)
(1.00955 0.000477143 0)
(1.00003 0.00018765 0)
(1.00028 0.000529508 0)
(1.00077 0.000792453 0)
(1.00141 0.000960691 0)
(1.00212 0.00105013 0)
(1.00282 0.001087 0)
(1.0035 0.0010891 0)
(1.00416 0.00106375 0)
(1.00479 0.00101438 0)
(1.00539 0.000944396 0)
(1.00595 0.000857019 0)
(1.00647 0.00075475 0)
(1.00695 0.000639731 0)
(1.00739 0.00051429 0)
(1.0078 0.000380969 0)
(1.00817 0.000242647 0)
(1.0085 0.000101242 0)
(1.00881 -3.82021e-05 0)
(1.00003 4.0846e-05 0)
(1.00025 0.000113499 0)
(1.00068 0.000167156 0)
(1.00126 0.000198053 0)
(1.00191 0.00020894 0)
(1.00258 0.000204168 0)
(1.00323 0.000186619 0)
(1.00386 0.000157243 0)
(1.00446 0.000116173 0)
(1.00503 6.36021e-05 0)
(1.00557 1.3589e-08 0)
(1.00606 -7.38335e-05 0)
(1.00652 -0.000156887 0)
(1.00694 -0.00024776 0)
(1.00732 -0.000344854 0)
(1.00768 -0.000446229 0)
(1.008 -0.000550671 0)
(1.00829 -0.000654189 0)
(1.00003 -0.000129578 0)
(1.00025 -0.000368955 0)
(1.00069 -0.000558949 0)
(1.00129 -0.000690052 0)
(1.00195 -0.000773311 0)
(1.00262 -0.000827771 0)
(1.00327 -0.000867068 0)
(1.00389 -0.000898241 0)
(1.00448 -0.00092606 0)
(1.00503 -0.000954925 0)
(1.00555 -0.000988155 0)
(1.00602 -0.00102743 0)
(1.00646 -0.00107315 0)
(1.00686 -0.00112506 0)
(1.00723 -0.00118252 0)
(1.00756 -0.0012445 0)
(1.00787 -0.00131039 0)
(1.00815 -0.00137733 0)
(1.00004 -0.000314963 0)
(1.00033 -0.000890502 0)
(1.00088 -0.00132927 0)
(1.0016 -0.00160832 0)
(1.00236 -0.00176507 0)
(1.00308 -0.00185114 0)
(1.00376 -0.00189708 0)
(1.00441 -0.00191603 0)
(1.00501 -0.00191775 0)
(1.00557 -0.00191234 0)
(1.00607 -0.00190752 0)
(1.00654 -0.00190744 0)
(1.00696 -0.00191391 0)
(1.00735 -0.0019276 0)
(1.0077 -0.00194851 0)
(1.00802 -0.00197599 0)
(1.00832 -0.00200939 0)
(1.00859 -0.00204639 0)
(1.00005 -0.000517052 0)
(1.00046 -0.00144543 0)
(1.0012 -0.00210825 0)
(1.00211 -0.00248169 0)
(1.00299 -0.00266138 0)
(1.0038 -0.00274431 0)
(1.00453 -0.0027729 0)
(1.00521 -0.00276163 0)
(1.00583 -0.00272502 0)
(1.0064 -0.00267866 0)
(1.0069 -0.00263293 0)
(1.00736 -0.0025927 0)
(1.00777 -0.00256034 0)
(1.00815 -0.0025373 0)
(1.00848 -0.00252426 0)
(1.00879 -0.00252099 0)
(1.00907 -0.00252695 0)
(1.00933 -0.00254037 0)
(1.00008 -0.000776352 0)
(1.00067 -0.00212557 0)
(1.00172 -0.00299057 0)
(1.0029 -0.00339398 0)
(1.00394 -0.00354762 0)
(1.00482 -0.0035991 0)
(1.00561 -0.00358709 0)
(1.00633 -0.00352403 0)
(1.00698 -0.0034341 0)
(1.00756 -0.00334041 0)
(1.00806 -0.0032542 0)
(1.00851 -0.00317862 0)
(1.00892 -0.00311477 0)
(1.00928 -0.00306333 0)
(1.0096 -0.00302428 0)
(1.00989 -0.00299672 0)
(1.01016 -0.00297944 0)
(1.0104 -0.00297029 0)
(1.00012 -0.00112975 0)
(1.00104 -0.00299157 0)
(1.00253 -0.00400064 0)
(1.00403 -0.00434297 0)
(1.00523 -0.00442694 0)
(1.00618 -0.00443326 0)
(1.00703 -0.004368 0)
(1.00781 -0.00423722 0)
(1.00847 -0.00407765 0)
(1.00905 -0.00391993 0)
(1.00954 -0.00377635 0)
(1.00998 -0.00365053 0)
(1.01037 -0.00354473 0)
(1.01072 -0.00346031 0)
(1.01103 -0.00339688 0)
(1.01131 -0.00335266 0)
(1.01157 -0.00332545 0)
(1.01181 -0.00331319 0)
(1.0002 -0.00163283 0)
(1.00164 -0.00410241 0)
(1.00375 -0.00513942 0)
(1.00561 -0.00530676 0)
(1.00691 -0.00527004 0)
(1.00792 -0.00520233 0)
(1.00884 -0.00506769 0)
(1.00966 -0.00487599 0)
(1.01036 -0.00467147 0)
(1.01093 -0.0044778 0)
(1.01142 -0.00429824 0)
(1.01184 -0.00413325 0)
(1.01221 -0.00398571 0)
(1.01254 -0.00385824 0)
(1.01283 -0.00375143 0)
(1.01308 -0.00366438 0)
(1.01332 -0.00359538 0)
(1.01352 -0.0035421 0)
(1.00035 -0.00237273 0)
(1.00259 -0.00547826 0)
(1.00551 -0.00636982 0)
(1.00771 -0.00631111 0)
(1.00907 -0.00615212 0)
(1.01011 -0.00595562 0)
(1.01108 -0.00566404 0)
(1.01192 -0.00533595 0)
(1.01261 -0.00503939 0)
(1.01318 -0.00479185 0)
(1.01367 -0.00458565 0)
(1.01409 -0.00441438 0)
(1.01445 -0.00427585 0)
(1.01477 -0.00416794 0)
(1.01505 -0.00408736 0)
(1.0153 -0.00403015 0)
(1.01552 -0.00399238 0)
(1.01573 -0.00397038 0)
(1.00062 -0.00350375 0)
(1.00408 -0.00707594 0)
(1.0079 -0.00748561 0)
(1.01034 -0.00719306 0)
(1.01171 -0.00705497 0)
(1.01281 -0.00686414 0)
(1.01382 -0.0065076 0)
(1.01465 -0.00607853 0)
(1.0153 -0.00566192 0)
(1.01582 -0.00528091 0)
(1.01627 -0.00493721 0)
(1.01666 -0.00463439 0)
(1.017 -0.00437623 0)
(1.01729 -0.00416281 0)
(1.01756 -0.00399121 0)
(1.01779 -0.00385762 0)
(1.01801 -0.00375834 0)
(1.0182 -0.00368257 0)
(1.00112 -0.00524533 0)
(1.00635 -0.00909782 0)
(1.01109 -0.00854232 0)
(1.01363 -0.00763398 0)
(1.0151 -0.00722691 0)
(1.01649 -0.00693543 0)
(1.01786 -0.00661351 0)
(1.01903 -0.00631266 0)
(1.02 -0.00605485 0)
(1.02083 -0.00582347 0)
(1.02158 -0.00560735 0)
(1.02224 -0.00540882 0)
(1.02283 -0.00523354 0)
(1.02335 -0.0050848 0)
(1.02383 -0.00496168 0)
(1.02426 -0.0048637 0)
(1.02467 -0.00478895 0)
(1.02505 -0.00473673 0)
(1.0022 -0.00731273 0)
(1.01192 -0.0117596 0)
(1.02002 -0.0109864 0)
(1.0248 -0.00980109 0)
(1.02817 -0.0088572 0)
(1.03121 -0.00790979 0)
(1.03384 -0.007014 0)
(1.0359 -0.00627718 0)
(1.03744 -0.00570075 0)
(1.03858 -0.00524126 0)
(1.03939 -0.00486792 0)
(1.03991 -0.00456564 0)
(1.04019 -0.00432562 0)
(1.04026 -0.00414235 0)
(1.04016 -0.00401131 0)
(1.03993 -0.00392877 0)
(1.0396 -0.00388224 0)
(1.03918 -0.00388858 0)
(1.01393 -0.00775862 0)
(1.03644 -0.0118576 0)
(1.04658 -0.0120662 0)
(1.04775 -0.0121896 0)
(1.04504 -0.0120945 0)
(1.04084 -0.0115362 0)
(1.03579 -0.0107131 0)
(1.03014 -0.00983514 0)
(1.0242 -0.00899098 0)
(1.0182 -0.00820457 0)
(1.01225 -0.00748393 0)
(1.00644 -0.00683702 0)
(1.00077 -0.00626594 0)
(0.995286 -0.00577012 0)
(0.990005 -0.00534128 0)
(0.984982 -0.00498637 0)
(0.980197 -0.0047014 0)
(0.97572 -0.00451241 0)
(0.956181 -0.027092 0)
(0.895075 -0.0231012 0)
(0.847277 -0.0125334 0)
(0.807803 -0.00639018 0)
(0.776424 -0.00337324 0)
(0.751895 -0.00178891 0)
(0.732293 -0.000853834 0)
(0.716278 -0.000249995 0)
(0.703104 0.000173882 0)
(0.69232 0.000495853 0)
(0.683501 0.000749864 0)
(0.676271 0.000953321 0)
(0.670332 0.0011146 0)
(0.665432 0.00123724 0)
(0.661349 0.00131015 0)
(0.657839 0.00133245 0)
(0.654741 0.00131423 0)
(0.652043 0.00124453 0)
(-0.00027181 0.000747045 1.08154e-19)
(-0.00128022 0.00127287 0)
(-0.00267649 0.00144816 0)
(-0.00422015 0.00133484 0)
(-0.00560279 0.000829831 0)
(-0.00617412 -5.31082e-05 0)
(-0.00516701 -0.0012372 0)
(-0.0028587 -0.00264405 0)
(0.00049994 -0.00389736 0)
(0.00456038 -0.00469523 6.86793e-20)
(0.00906994 -0.00500447 0)
(0.0137156 -0.00492635 0)
(0.0181762 -0.00457565 0)
(0.0222237 -0.00404379 0)
(0.0257313 -0.00339903 0)
(0.0286376 -0.00268939 0)
(0.0309106 -0.00194507 0)
(0.0325338 -0.00118015 0)
(0.0334904 -0.000391783 2.13392e-20)
(0.0337852 0.000439707 0)
(0.0332937 0.00130868 0)
(0.032062 0.00216848 -2.209e-20)
(0.030129 0.00295181 0)
(0.0275376 0.00358998 0)
(0.0243585 0.00401632 0)
(0.0207092 0.00416774 -3.06661e-20)
(0.0167471 0.00398791 0)
(0.0126777 0.00344735 0)
(0.00874206 0.00256665 0)
(0.0052031 0.00145345 0)
(0.00231111 0.000346857 0)
(0.000226936 -0.00041775 -1.31564e-19)
(-0.00114779 -0.000659137 0)
(-0.00203819 -0.000518248 1.21546e-19)
(-0.00259201 -0.000243089 0)
(-0.00295595 -7.26438e-05 0)
(-0.00314083 -0.000146374 0)
(-0.00287409 -0.00050946 0)
(-0.00191525 -0.00110676 0)
(-6.88646e-05 -0.00188073 0)
(0.00257353 -0.00260149 0)
(0.00577858 -0.00302938 0)
(0.00911313 -0.00300753 0)
(0.0120851 -0.00255984 0)
(0.0143131 -0.00183461 0)
(0.0155968 -0.00101173 0)
(0.0159536 -0.00026119 0)
(0.0155414 0.000211748 -8.17637e-20)
(0.0148484 0.000334796 0)
(0.0143333 0.000175013 -8.71963e-20)
(0.0143724 -0.000408736 -8.67437e-20)
(0.0148728 -0.00154009 8.40149e-20)
(0.0151524 -0.00296072 8.39698e-20)
(0.0140504 -0.00383659 -8.50014e-20)
(0.0107161 -0.00294638 9.46559e-20)
(0.00460018 8.62359e-05 1.16018e-19)
(-0.00582226 0.00385399 0)
(-0.0186338 0.00678357 0)
(-0.0326055 0.00895889 3.35716e-20)
(-0.0473719 0.0104411 0)
(-0.062433 0.0111243 0)
(-0.0773265 0.0111948 0)
(-0.0916528 0.0109219 0)
(-0.105182 0.0104341 0)
(-0.117778 0.00979888 0)
(-0.129431 0.00898877 1.17824e-20)
(-0.140066 0.00814015 0)
(-0.149756 0.00735047 0)
(-0.158563 0.0066134 0)
(-0.166577 0.00596 0)
(-0.173885 0.00538102 0)
(-0.180574 0.00487938 0)
(-0.186725 0.00444392 -9.01096e-21)
(-0.192406 0.00406847 0)
(-0.19768 0.00374265 0)
(-0.202598 0.00345962 8.46498e-21)
(-0.207202 0.00321118 8.31421e-21)
(-0.211529 0.00299164 0)
(-0.215607 0.00279537 0)
(-0.219459 0.00261836 0)
(-0.223105 0.00245694 0)
(-0.226561 0.00230846 0)
(-0.229838 0.00217057 0)
(-0.232947 0.00204156 0)
(-0.235896 0.00191992 7.3783e-21)
(-0.238692 0.00180449 -7.28011e-21)
(-0.24134 0.00169428 0)
(-0.243845 0.00158849 -1.41799e-20)
(-0.246211 0.00148636 0)
(-0.24844 0.00138727 -1.38116e-20)
(-0.250534 0.00129059 0)
(-0.252496 0.00119573 0)
(-0.254325 0.00110204 1.32723e-20)
(-0.256022 0.00100887 0)
(-0.257588 0.000915462 -1.29168e-20)
(-0.25902 0.000821018 0)
(-0.260318 0.000724694 -1.25618e-20)
(-0.261478 0.00062569 0)
(-0.262496 0.0005234 0)
(-0.263369 0.000417684 0)
(-0.264089 0.000309671 1.18482e-20)
(-0.264653 0.00020338 0)
(-0.265052 0.000106607 -1.14894e-20)
(-0.265282 2.6239e-05 1.13049e-20)
(-0.265381 -4.148e-05 0)
(-0.26536 -0.000104783 0)
(-0.265218 -0.000166504 0)
(-0.264957 -0.00022734 1.05308e-20)
(-0.264578 -0.000287518 0)
(-0.264079 -0.000347069 0)
(-0.26346 -0.00040599 0)
(-0.262722 -0.00046425 0)
(-0.261864 -0.000521818 9.47117e-21)
(-0.260887 -0.000578659 -9.24493e-21)
(-0.259789 -0.000634739 9.01348e-21)
(-0.258572 -0.000690026 -8.77662e-21)
(-0.257235 -0.00074449 -8.53415e-21)
(-0.25578 -0.0007981 0)
(-0.254206 -0.000850828 0)
(-0.252514 -0.000902647 7.77104e-21)
(-0.250705 -0.00095353 0)
(-0.248781 -0.00100347 0)
(-0.24674 -0.00105242 0)
(-0.244586 -0.0011004 0)
(-0.242319 -0.0011474 0)
(-0.239939 -0.00119339 0)
(-0.23745 -0.0012384 -5.75411e-21)
(-0.234851 -0.00128237 5.43545e-21)
(-0.232145 -0.00132497 0)
(-0.229333 -0.00136649 0)
(-0.226417 -0.00140677 0)
(-0.223399 -0.00144477 0)
(-0.220281 -0.00147922 0)
(-0.217066 -0.00150738 0)
(-0.213758 -0.00152446 0)
(-0.210365 -0.00152328 0)
(-0.206891 -0.00150213 0)
(-0.203333 -0.00150697 -3.46753e-21)
(-0.199681 -0.00154116 0)
(-0.195942 -0.00156838 0)
(-0.192121 -0.00159489 0)
(-0.18822 -0.00162015 0)
(-0.184242 -0.00164443 0)
(-0.180191 -0.00166784 0)
(-0.176068 -0.0016904 0)
(-0.171875 -0.00171229 4.21553e-21)
(-0.167617 -0.00173297 5.3264e-21)
(-0.163293 -0.00175338 0)
(-0.158908 -0.00177268 0)
(-0.154462 -0.00179177 8.90323e-21)
(-0.14996 -0.00180969 -1.01869e-20)
(-0.1454 -0.00182746 1.1518e-20)
(-0.140791 -0.001844 -1.29047e-20)
(-0.136129 -0.00186055 -1.43444e-20)
(-0.131422 -0.00187601 0)
(-0.126668 -0.00189185 0)
(-0.121873 -0.00190701 0)
(-0.117033 -0.001923 2.07528e-20)
(-0.112156 -0.00193882 0)
(-0.107236 -0.0019559 0)
(-0.102279 -0.00197328 0)
(-0.0972779 -0.00199222 0)
(-0.0922389 -0.00201182 -3.06239e-20)
(-0.0871555 -0.002033 0)
(-0.0820324 -0.00205502 -3.53499e-20)
(-0.0768646 -0.00207866 3.79217e-20)
(-0.0716559 -0.00210352 0)
(-0.0664021 -0.00213026 0)
(-0.0611052 -0.0021589 0)
(-0.0557624 -0.00218954 0)
(-0.0503735 -0.0022222 0)
(-0.0449384 -0.00225628 0)
(-0.0394591 -0.00229055 -6.16809e-20)
(-0.0339416 -0.00232255 -6.62454e-20)
(-0.0283982 -0.00234852 0)
(-0.0228578 -0.00236355 0)
(-0.0173694 -0.00235829 0)
(-0.0119931 -0.00228842 0)
(-0.00645446 -0.00216266 0)
(-0.00407897 -0.00144772 0)
(-2.50822e-05 0.00204667 1.09476e-19)
(-0.000597545 0.00367114 0)
(-0.00135005 0.00399138 -2.221e-19)
(-0.00176108 0.00339832 0)
(-0.00104755 0.00172723 0)
(0.00143752 -0.00133864 0)
(0.00492868 -0.00551193 0)
(0.00922373 -0.00946008 0)
(0.0139396 -0.0123452 -5.95455e-20)
(0.0187038 -0.013899 2.40411e-20)
(0.023219 -0.0142409 -4.09176e-20)
(0.0273208 -0.0136745 3.62938e-20)
(0.030939 -0.0125109 0)
(0.0340519 -0.0109975 0)
(0.0366677 -0.00930501 0)
(0.0388083 -0.007542 0)
(0.0405022 -0.00576813 0)
(0.0417791 -0.00401087 0)
(0.0426694 -0.00227407 -1.41861e-20)
(0.0432039 -0.000549136 0)
(0.0434731 0.00117919 0)
(0.0434408 0.00289931 -1.46967e-20)
(0.0430623 0.0045816 0)
(0.0422786 0.00618715 0)
(0.0410201 0.0076563 0)
(0.0392178 0.00890292 -1.6572e-20)
(0.0368221 0.00982014 0)
(0.0338133 0.0102919 0)
(0.0302258 0.0102131 0)
(0.0261592 0.00953166 4.66599e-20)
(0.0217842 0.00828918 0)
(0.0173403 0.00664021 3.28407e-20)
(0.0131137 0.00480178 0)
(0.00944111 0.00299117 5.22926e-20)
(0.00666258 0.00139103 0)
(0.00499262 3.34204e-05 -1.65609e-19)
(0.00449553 -0.0012812 1.88058e-19)
(0.00521691 -0.00270252 0)
(0.00684087 -0.00439239 1.25694e-19)
(0.00925281 -0.00629045 9.5515e-20)
(0.0120918 -0.00778962 -7.47373e-20)
(0.0147865 -0.0082144 0)
(0.016863 -0.00746136 0)
(0.0181487 -0.0058455 9.99907e-20)
(0.0186188 -0.00382389 0)
(0.0183493 -0.00178651 0)
(0.0174621 -0.000153057 0)
(0.0162276 0.000671876 6.16443e-20)
(0.014623 0.000563218 0)
(0.0121344 -9.1151e-05 7.42834e-20)
(0.00761992 -0.00011586 -8.67431e-20)
(-0.000551192 0.00211863 -8.28935e-20)
(-0.0136783 0.00728838 -5.34001e-20)
(-0.0290043 0.0130024 3.33914e-20)
(-0.0450962 0.0183512 -2.34476e-20)
(-0.0613614 0.0231203 -5.35053e-20)
(-0.0776421 0.0267388 0)
(-0.0933751 0.0289084 0)
(-0.10817 0.0297766 1.07873e-20)
(-0.121841 0.029561 1.93038e-20)
(-0.134242 0.0285096 0)
(-0.145305 0.0268669 0)
(-0.155068 0.0248747 0)
(-0.16363 0.0227277 0)
(-0.17113 0.0205715 1.45961e-20)
(-0.177701 0.0185325 7.10377e-21)
(-0.183527 0.0166601 0)
(-0.188745 0.0149734 0)
(-0.193466 0.013484 0)
(-0.197784 0.0121848 0)
(-0.201773 0.0110599 0)
(-0.205488 0.0100886 0)
(-0.208971 0.00924973 6.10541e-21)
(-0.212254 0.00852284 0)
(-0.21536 0.00788918 0)
(-0.218306 0.00733233 5.8359e-21)
(-0.221106 0.00683844 -5.75773e-21)
(-0.223769 0.00639597 -1.13531e-20)
(-0.226303 0.00599544 0)
(-0.228714 0.00562924 0)
(-0.231007 0.00529121 0)
(-0.233185 0.00497646 0)
(-0.235251 0.00468106 0)
(-0.237207 0.0044019 0)
(-0.239056 0.00413644 -5.18226e-21)
(-0.240798 0.00388265 5.11546e-21)
(-0.242436 0.00363886 0)
(-0.243968 0.00340367 9.96641e-21)
(-0.245397 0.00317594 0)
(-0.246723 0.00295466 9.70372e-21)
(-0.247945 0.00273898 0)
(-0.249065 0.0025281 0)
(-0.250081 0.00232133 9.30306e-21)
(-0.250994 0.00211799 0)
(-0.251804 0.00191743 -9.0404e-21)
(-0.25251 0.001719 0)
(-0.253114 0.00152202 -8.7747e-21)
(-0.253617 0.00132584 0)
(-0.254019 0.00112977 1.70072e-20)
(-0.254326 0.000933082 0)
(-0.25454 0.000735359 -8.22513e-21)
(-0.25467 0.000538174 0)
(-0.254726 0.00034713 7.94188e-21)
(-0.254715 0.000169401 -7.79485e-21)
(-0.254606 3.85655e-06 0)
(-0.254385 -0.000155718 0)
(-0.25405 -0.000311913 0)
(-0.2536 -0.00046562 -7.18247e-21)
(-0.253033 -0.000617129 1.40661e-20)
(-0.252348 -0.000766473 0)
(-0.251547 -0.000913592 -1.34195e-20)
(-0.250627 -0.00105839 1.30883e-20)
(-0.24959 -0.00120077 6.38896e-21)
(-0.248435 -0.00134062 6.19065e-21)
(-0.247162 -0.00147783 -1.80772e-20)
(-0.245771 -0.00161232 5.83788e-21)
(-0.244262 -0.00174397 1.70046e-20)
(-0.242637 -0.00187269 0)
(-0.240894 -0.0019984 0)
(-0.239036 -0.002121 -5.09552e-21)
(-0.237062 -0.0022404 0)
(-0.234974 -0.00235652 0)
(-0.232772 -0.0024693 0)
(-0.230457 -0.00257867 -8.64685e-21)
(-0.228032 -0.00268456 0)
(-0.225496 -0.00278694 0)
(-0.222851 -0.00288576 3.66721e-21)
(-0.220099 -0.00298098 3.50113e-21)
(-0.217242 -0.00307258 6.50688e-21)
(-0.214281 -0.00316053 6.05614e-21)
(-0.211217 -0.00324483 -5.59748e-21)
(-0.208053 -0.00332541 0)
(-0.204792 -0.00340232 0)
(-0.201433 -0.003476 -8.34559e-21)
(-0.19798 -0.00354753 0)
(-0.194432 -0.00361815 -6.36088e-21)
(-0.190788 -0.00368758 0)
(-0.187052 -0.00375387 2.0886e-21)
(-0.183232 -0.00381357 0)
(-0.179329 -0.00386682 0)
(-0.175346 -0.00391553 1.09473e-21)
(-0.171283 -0.00396035 0)
(-0.167145 -0.00400167 0)
(-0.162932 -0.00403966 0)
(-0.158648 -0.00407427 0)
(-0.154295 -0.0041061 2.24187e-21)
(-0.149876 -0.00413462 -2.99197e-21)
(-0.145393 -0.00416059 0)
(-0.140848 -0.00418362 0)
(-0.136242 -0.00420422 -4.86225e-21)
(-0.13158 -0.00422193 5.50809e-21)
(-0.126861 -0.0042372 -1.83318e-20)
(-0.122091 -0.00424944 6.83182e-21)
(-0.117269 -0.00425927 -7.34855e-21)
(-0.1124 -0.00426636 0)
(-0.107484 -0.00427162 0)
(-0.102526 -0.00427494 -1.90747e-20)
(-0.0975239 -0.00427731 -1.03455e-20)
(-0.0924823 -0.00427869 0)
(-0.0873985 -0.00428 0)
(-0.0822757 -0.00428121 0)
(-0.0771107 -0.004283 -2.66015e-20)
(-0.0719056 -0.00428521 1.41841e-20)
(-0.0666571 -0.00428811 0)
(-0.0613672 -0.00429139 1.58178e-20)
(-0.056033 -0.00429516 -1.66558e-20)
(-0.0506562 -0.00429953 0)
(-0.0452342 -0.00430462 0)
(-0.0397676 -0.00431094 0)
(-0.0342544 -0.00431815 0)
(-0.028694 -0.00432626 0)
(-0.0230863 -0.00433417 0)
(-0.0174324 -0.00433988 -2.28265e-20)
(-0.0117371 -0.00433954 -2.38131e-20)
(-0.00600937 -0.00432667 -4.98464e-20)
(-0.000271621 -0.00428969 0)
(0.0054566 -0.00421731 0)
(0.0110401 -0.00405259 0)
(0.0168902 -0.00378561 0)
(0.0207885 -0.00290518 1.08487e-19)
(6.05868e-05 0.0022831 -2.18912e-19)
(0.000106894 0.00420887 2.52214e-19)
(0.000428036 0.00405086 4.8761e-19)
(0.0017688 0.00180899 0)
(0.00488413 -0.0030942 0)
(0.00958202 -0.00963237 0)
(0.0149401 -0.0157633 -5.55545e-20)
(0.0201055 -0.0200922 4.29738e-20)
(0.0246284 -0.0222495 7.15079e-20)
(0.0283741 -0.0225313 -6.2562e-20)
(0.0313968 -0.0214707 5.66117e-20)
(0.0338203 -0.0195822 -2.61846e-20)
(0.0357711 -0.0172596 -2.47641e-20)
(0.0373489 -0.0147594 0)
(0.0386211 -0.012231 0)
(0.0396309 -0.00975291 2.25619e-20)
(0.0404079 -0.00735977 0)
(0.0409722 -0.00506127 -4.47604e-20)
(0.041341 -0.0028564 0)
(0.041527 -0.000738811 4.60243e-20)
(0.0415599 0.00130743 0)
(0.0414681 0.00331117 2.33373e-20)
(0.0412797 0.00529413 0)
(0.0410113 0.00725864 0)
(0.0406563 0.00918046 0)
(0.0401754 0.0110033 2.63846e-20)
(0.039496 0.0126361 0)
(0.0385164 0.0139549 0)
(0.0371194 0.0148159 6.12606e-20)
(0.0352031 0.0150801 -3.26746e-20)
(0.0327259 0.0146498 7.08231e-20)
(0.0297461 0.0135035 -7.80962e-20)
(0.0264479 0.0117037 8.7787e-20)
(0.0231314 0.00938176 -5.02813e-20)
(0.0201487 0.00670404 0)
(0.0178252 0.00380876 2.0396e-19)
(0.0164191 0.000743031 -7.82465e-20)
(0.0159182 -0.00252629 0)
(0.0163496 -0.00590253 -6.66639e-20)
(0.0172812 -0.00882055 -5.57749e-20)
(0.0178993 -0.0101979 1.39864e-19)
(0.017667 -0.00963765 -8.06585e-20)
(0.0166137 -0.00765842 7.52136e-20)
(0.0148577 -0.00490553 -7.60428e-20)
(0.0124788 -0.00205156 0)
(0.00949645 0.000653681 0)
(0.00578258 0.00314805 0)
(0.000486036 0.00519523 0)
(-0.00809444 0.0079011 -1.00808e-19)
(-0.0200169 0.012672 6.92366e-20)
(-0.0343188 0.0187954 4.92172e-20)
(-0.0501347 0.0253247 0)
(-0.0664565 0.0316045 0)
(-0.0822837 0.0370182 0)
(-0.097065 0.0412265 0)
(-0.110312 0.0441536 -8.78986e-23)
(-0.121725 0.0456381 0)
(-0.131372 0.0456843 0)
(-0.139457 0.044498 -1.40656e-20)
(-0.146241 0.0423624 -1.32488e-20)
(-0.151986 0.0395757 0)
(-0.156961 0.0364302 0)
(-0.161382 0.0331735 2.34958e-20)
(-0.165418 0.0299933 0)
(-0.169191 0.0270064 -3.29366e-20)
(-0.172783 0.0242809 -1.06196e-20)
(-0.176252 0.0218562 -2.07932e-20)
(-0.17962 0.019728 0)
(-0.182898 0.0178788 0)
(-0.18609 0.0162806 0)
(-0.189192 0.0149001 1.89775e-20)
(-0.192204 0.0137051 0)
(-0.19512 0.0126653 0)
(-0.197941 0.0117544 1.79343e-20)
(-0.200663 0.0109497 0)
(-0.203286 0.0102313 -8.67041e-21)
(-0.205809 0.00958365 0)
(-0.208233 0.00899363 8.3968e-21)
(-0.210558 0.00845087 0)
(-0.212784 0.007947 0)
(-0.214911 0.00747535 0)
(-0.216941 0.00703061 0)
(-0.218874 0.00660852 0)
(-0.220709 0.00620565 0)
(-0.222449 0.00581924 0)
(-0.224092 0.00544703 0)
(-0.22564 0.00508714 1.46434e-20)
(-0.227091 0.00473803 0)
(-0.228447 0.00439836 -1.42061e-20)
(-0.229708 0.00406702 0)
(-0.230873 0.00374302 0)
(-0.231942 0.00342552 0)
(-0.232915 0.00311376 -5.68746e-24)
(-0.233792 0.00280711 -1.31295e-20)
(-0.234573 0.00250505 1.29181e-20)
(-0.235258 0.00220719 0)
(-0.235847 0.00191332 1.24853e-20)
(-0.236341 0.00162349 1.22683e-20)
(-0.23674 0.00133804 -1.20504e-20)
(-0.237045 0.00105766 0)
(-0.237256 0.000783349 -1.16168e-20)
(-0.237374 0.00051602 -1.13962e-20)
(-0.237394 0.0002552 0)
(-0.237312 -2.34095e-06 0)
(-0.237123 -0.000258695 0)
(-0.236825 -0.00051281 -1.04693e-20)
(-0.236416 -0.000763834 2.04644e-20)
(-0.235896 -0.00101164 0)
(-0.235263 -0.0012561 9.766e-21)
(-0.234516 -0.00149709 -1.90129e-20)
(-0.233655 -0.00173445 -9.27721e-21)
(-0.23268 -0.001968 -8.99032e-21)
(-0.23159 -0.00219755 8.77752e-21)
(-0.230386 -0.00242292 0)
(-0.229067 -0.00264394 -8.26633e-21)
(-0.227633 -0.00286046 0)
(-0.226085 -0.0030723 -7.69137e-21)
(-0.224423 -0.00327933 0)
(-0.222647 -0.00348137 -1.43582e-20)
(-0.220758 -0.00367829 0)
(-0.218757 -0.00386994 0)
(-0.216643 -0.00405618 0)
(-0.214419 -0.0042369 1.21289e-20)
(-0.212085 -0.00441199 5.74305e-21)
(-0.209642 -0.00458135 -1.0975e-20)
(-0.207092 -0.00474491 1.03882e-20)
(-0.204435 -0.00490259 0)
(-0.201674 -0.0050543 -4.5582e-21)
(-0.198809 -0.00519996 -4.25371e-21)
(-0.195842 -0.00533952 4.02816e-21)
(-0.192775 -0.00547287 3.63475e-21)
(-0.18961 -0.0055998 -6.72677e-21)
(-0.186348 -0.00572007 0)
(-0.182992 -0.00583356 1.08153e-20)
(-0.179542 -0.00594033 0)
(-0.176 -0.0060407 -9.36178e-23)
(-0.172367 -0.00613572 0)
(-0.168646 -0.00622723 0)
(-0.164844 -0.00631382 0)
(-0.16096 -0.00639319 0)
(-0.156997 -0.00646585 -6.84814e-22)
(-0.152957 -0.00653228 0)
(-0.148842 -0.00659287 0)
(-0.144655 -0.00664783 -1.3048e-21)
(-0.140398 -0.0066973 0)
(-0.136073 -0.00674162 -2.83477e-21)
(-0.131682 -0.00678083 3.44731e-21)
(-0.127229 -0.00681524 0)
(-0.122715 -0.00684511 0)
(-0.118142 -0.00687044 5.63842e-21)
(-0.113512 -0.00689144 0)
(-0.108828 -0.00690783 7.23817e-21)
(-0.104091 -0.00691971 0)
(-0.0993049 -0.00692695 8.74682e-21)
(-0.09447 -0.0069301 0)
(-0.0895902 -0.00692942 -2.03187e-20)
(-0.0846662 -0.00692586 -1.08152e-20)
(-0.0797005 -0.0069198 0)
(-0.0746931 -0.00691226 -2.49679e-20)
(-0.0696457 -0.00690355 2.65292e-20)
(-0.0645575 -0.00689464 2.81046e-20)
(-0.0594293 -0.00688564 1.49582e-20)
(-0.0542595 -0.00687717 0)
(-0.0490483 -0.00686886 0)
(-0.0437943 -0.00686088 0)
(-0.0384975 -0.00685277 -3.60582e-20)
(-0.0331568 -0.00684504 0)
(-0.0277719 -0.00683756 0)
(-0.0223415 -0.006831 0)
(-0.0168646 -0.00682493 0)
(-0.0113401 -0.00681905 4.41416e-20)
(-0.00576747 -0.00681183 0)
(-0.000147388 -0.00680037 2.37225e-20)
(0.00551696 -0.0067793 7.23905e-20)
(0.0112197 -0.00674012 2.45737e-20)
(0.0169444 -0.00666828 0)
(0.0226854 -0.00654503 0)
(0.0283225 -0.00631736 0)
(0.0342362 -0.00595084 0)
(0.0389441 -0.00503264 -5.34754e-20)
(-9.40749e-05 0.0022481 4.39048e-19)
(6.42336e-05 0.0033426 -7.87176e-19)
(0.00145853 0.000902629 -2.07847e-19)
(0.00527295 -0.00583438 0)
(0.0110297 -0.0146433 0)
(0.0171917 -0.0223998 0)
(0.0225242 -0.027357 3.68273e-20)
(0.0265473 -0.0293583 -3.09024e-20)
(0.0293509 -0.0290804 -2.72172e-20)