/*--------------------------------*- C++ -*----------------------------------*\
  =========                 |
  \\      /  F ield         | OpenFOAM: The Open Source CFD Toolbox
   \\    /   O peration     | Website:  https://openfoam.org
    \\  /    A nd           | Version:  6
     \\/     M anipulation  |
\*---------------------------------------------------------------------------*/
FoamFile
{
    version     2.0;
    format      ascii;
    class       volScalarField;
    location    "850";
    object      alphat;
}
// * * * * * * * * * * * * * * * * * * * * * * * * * * * * * * * * * * * * * //

dimensions      [1 -1 -1 0 0 0 0];

internalField   nonuniform List<scalar> 
16000
(
6.0214954e-06
2.4745072e-05
2.6972338e-05
3.8413743e-05
3.3063173e-05
4.2575608e-05
4.2043672e-05
4.7456764e-05
4.9046868e-05
4.9143488e-05
4.9990642e-05
4.838132e-05
4.8578869e-05
4.7300235e-05
4.7332182e-05
4.6726718e-05
4.6922681e-05
4.6953529e-05
4.7438684e-05
4.7969547e-05
4.8802155e-05
4.9781977e-05
5.1014719e-05
5.2455219e-05
5.4157448e-05
5.6125815e-05
5.8403902e-05
6.1024177e-05
6.4039326e-05
6.7507204e-05
7.1503038e-05
7.6117347e-05
8.1462373e-05
8.7675009e-05
9.492391e-05
0.00010341604
0.0001134059
0.00012520638
0.0001392024
0.0001558671
0.00017578216
0.00019966453
0.00022839479
0.00026305269
0.00030495974
0.00035572787
0.00041731145
0.00049206486
0.00058279911
0.00069283244
0.00082602751
0.00098682951
0.0011803446
0.0012242995
0.0012255778
0.0012258156
0.0012252995
0.0012243574
0.001223208
0.0012218831
0.0012202433
0.001218331
0.0012160712
0.0012133786
0.00121019
0.0012065409
0.001202567
0.0011986434
0.0011949512
0.0011917735
0.0011887253
0.0011864727
0.0011837845
0.0011824941
0.0011797672
0.0011808926
0.001177212
0.0011846584
0.0011742639
0.0011838047
5.0151245e-06
2.448192e-05
2.4735565e-05
3.5133232e-05
3.0546463e-05
3.8400648e-05
3.8734613e-05
4.2419978e-05
4.4768109e-05
4.3803387e-05
4.5094216e-05
4.3071219e-05
4.3451704e-05
4.202839e-05
4.2135249e-05
4.1529041e-05
4.1733093e-05
4.1741222e-05
4.2181467e-05
4.2650013e-05
4.3393442e-05
4.4265771e-05
4.5363735e-05
4.6646245e-05
4.8160727e-05
4.9911359e-05
5.1936001e-05
5.4263555e-05
5.6939945e-05
6.0016056e-05
6.3557618e-05
6.7643932e-05
7.2373242e-05
7.7865213e-05
8.4267176e-05
9.1759796e-05
0.00010056497
0.00011095516
0.00012326509
0.0001379056
0.00015538043
0.00017630975
0.00020145418
0.00023174483
0.00026831998
0.00031256805
0.00036617378
0.00043117143
0.00051000136
0.00060556606
0.00072128481
0.00086114311
0.0010297753
0.001223122
0.0012246228
0.0012249988
0.0012245301
0.0012235772
0.0012224092
0.0012211035
0.0012196289
0.0012178709
0.001215762
0.00121321
0.0012101436
0.0012065649
0.0012026091
0.0011986315
0.0011949214
0.0011916583
0.001188661
0.0011862509
0.001183775
0.001182363
0.0011798363
0.001180213
0.0011771083
0.0011834479
0.001174301
0.0011834936
4.2852826e-06
2.4216747e-05
2.2983684e-05
3.2333128e-05
2.8545738e-05
3.4841807e-05
3.6225367e-05
3.7975839e-05
4.110445e-05
3.892945e-05
4.0610594e-05
3.8174208e-05
3.8704056e-05
3.7230567e-05
3.7409545e-05
3.6826925e-05
3.7037272e-05
3.7042313e-05
3.7448044e-05
3.7874696e-05
3.8548129e-05
3.9337915e-05
4.0328524e-05
4.1485427e-05
4.2849025e-05
4.4424556e-05
4.6244802e-05
4.8336232e-05
5.0739342e-05
5.3499643e-05
5.6675407e-05
6.033715e-05
6.4572098e-05
6.9486479e-05
7.5210921e-05
8.1905571e-05
8.9766854e-05
9.9035836e-05
0.0001100083
0.00012304671
0.00013859442
0.00015719667
0.00017952103
0.00020638332
0.00023877919
0.0002779221
0.00032528409
0.0003826434
0.00045213814
0.00053632163
0.00063822199
0.00076140077
0.00091002853
0.0010890005
0.0012236959
0.0012242246
0.0012238106
0.0012228429
0.0012216412
0.00122031
0.0012188362
0.0012171838
0.0012152594
0.0012128802
0.0012099655
0.0012064914
0.0012025728
0.001198566
0.0011948317
0.0011915224
0.0011885415
0.001186049
0.0011836853
0.0011821989
0.0011798612
0.0011797532
0.0011770661
0.0011824015
0.001174285
0.0011825721
3.8161281e-06
2.3860335e-05
2.1508206e-05
2.9711538e-05
2.6666485e-05
3.1588368e-05
3.378536e-05
3.3997348e-05
3.7543004e-05
3.457921e-05
3.639618e-05
3.3779437e-05
3.4372401e-05
3.2982491e-05
3.3178447e-05
3.265523e-05
3.2856072e-05
3.2874533e-05
3.3247487e-05
3.3645194e-05
3.4259299e-05
3.4981937e-05
3.5882294e-05
3.6934074e-05
3.8170589e-05
3.959866e-05
4.1246626e-05
4.3139176e-05
4.5312396e-05
4.7807493e-05
5.0676709e-05
5.3983533e-05
5.7806337e-05
6.224063e-05
6.7403714e-05
7.3439417e-05
8.0524082e-05
8.8873913e-05
9.8754285e-05
0.00011049006
0.00012447759
0.00014120428
0.00016126637
0.00018539158
0.00021446692
0.00024957334
0.00029202198
0.00034339741
0.00040560832
0.00048094086
0.00057211968
0.00068237178
0.00081549973
0.00097598952
0.0011691426
0.0012234744
0.0012231255
0.0012221415
0.0012208987
0.0012195306
0.001218029
0.0012163692
0.0012145074
0.0012123393
0.0012096139
0.0012062836
0.0012024325
0.0011984194
0.0011946695
0.0011913371
0.0011883672
0.0011858294
0.0011835404
0.0011819085
0.0011798507
0.0011794829
0.0011770389
0.0011813458
0.0011743042
0.0011820193
3.4295161e-06
2.3373303e-05
2.0320985e-05
2.7280632e-05
2.4940684e-05
2.8616183e-05
3.1487265e-05
3.039617e-05
3.4120827e-05
3.063397e-05
3.2436075e-05
2.9861234e-05
3.0436105e-05
2.9180999e-05
2.9365366e-05
2.8918983e-05
2.9104743e-05
2.9145161e-05
2.948974e-05
2.9867271e-05
3.0431942e-05
3.1099432e-05
3.1924026e-05
3.2887402e-05
3.401651e-05
3.5319743e-05
3.6821742e-05
3.8545728e-05
4.0524203e-05
4.279485e-05
4.5404957e-05
4.8412233e-05
5.1887841e-05
5.591849e-05
6.0610639e-05
6.6094889e-05
7.2531304e-05
8.0116022e-05
8.9089919e-05
9.9748017e-05
0.00011244911
0.00012763476
0.0001458449
0.00016773818
0.00019411656
0.00022595783
0.00026444813
0.00031102196
0.00036741006
0.00043569045
0.00051834925
0.00061834644
0.00073919198
0.0008850425
0.0010608397
0.0012227339
0.0012224663
0.0012214678
0.0012201787
0.0012187678
0.0012172301
0.0012155447
0.0012136791
0.0012115726
0.0012090786
0.0012059357
0.0012021877
0.0011981915
0.001194438
0.0011911009
0.0011881432
0.001185588
0.0011833502
0.0011816279
0.001179789
0.0011792157
0.0011770213
0.0011804092
0.001174321
0.0011812405
3.1018062e-06
2.021147e-05
1.9268195e-05
2.4983813e-05
2.3376651e-05
2.5870605e-05
2.9321521e-05
2.7122074e-05
3.0852198e-05
2.709192e-05
2.8759067e-05
2.6390858e-05
2.6896017e-05
2.5802707e-05
2.5958668e-05
2.559524e-05
2.5763874e-05
2.5829414e-05
2.6150128e-05
2.651322e-05
2.7037167e-05
2.7659394e-05
2.8420995e-05
2.9310617e-05
3.0349962e-05
3.1548686e-05
3.2928475e-05
3.4511315e-05
3.6326839e-05
3.840984e-05
4.0803582e-05
4.3561058e-05
4.6747569e-05
5.0442686e-05
5.4744098e-05
5.9771644e-05
6.5672319e-05
7.2626128e-05
8.0854119e-05
9.0627684e-05
0.00010227557
0.00011620264
0.00013290415
0.00015298404
0.00017717662
0.000206378
0.00024167534
0.00028438392
0.00033609295
0.00039871362
0.00047453901
0.00056631002
0.00067729225
0.00081136868
0.00097317052
0.0011682192
0.0012218185
0.0012208106
0.0012194715
0.0012180134
0.0012164349
0.0012147169
0.0012128321
0.0012107362
0.0012083427
0.0012054366
0.0012018339
0.0011978797
0.0011941368
0.0011908115
0.0011878726
0.001185321
0.0011831229
0.0011813497
0.001179677
0.0011789407
0.0011770097
0.0011796446
0.0011743626
0.0011806908
2.7955998e-06
1.9156384e-05
1.7997505e-05
2.2813017e-05
2.1961771e-05
2.3350213e-05
2.7254395e-05
2.4146374e-05
2.7734169e-05
2.3973284e-05
2.5422436e-05
2.3318571e-05
2.3724661e-05
2.2800447e-05
2.2920348e-05
2.2637359e-05
2.2789404e-05
2.2879284e-05
2.3180311e-05
2.3532279e-05
2.4022586e-05
2.4607055e-05
2.5316032e-05
2.6143694e-05
2.7107686e-05
2.8218496e-05
2.9495527e-05
3.0959675e-05
3.2638242e-05
3.456367e-05
3.6775914e-05
3.932404e-05
4.2268609e-05
4.5683328e-05
4.9658693e-05
5.4305838e-05
5.9761101e-05
6.619139e-05
7.3801641e-05
8.2844406e-05
9.3624134e-05
0.0001065162
0.00012198
0.00014057585
0.00016298392
0.00019003512
0.0002227379
0.00026231234
0.00031023473
0.00036828267
0.00043859351
0.00052372993
0.00062675621
0.00075133062
0.00090182496
0.0010834759
0.0012211681
0.0012201604
0.0012187689
0.0012172609
0.0012156384
0.0012138839
0.0012119731
0.0012098696
0.0012075115
0.0012047752
0.0012013675
0.0011974833
0.0011937666
0.0011904683
0.0011875575
0.0011850257
0.0011828621
0.0011810722
0.0011795218
0.0011786141
0.001176996
0.0011789867
0.0011744062
0.0011801464
2.5290725e-06
1.862233e-05
1.6802098e-05
2.0781013e-05
2.0658028e-05
2.101092e-05
2.5214214e-05
2.1475473e-05
2.4730253e-05
2.1204558e-05
2.2392995e-05
2.0583458e-05
2.0882409e-05
2.0123811e-05
2.0209409e-05
2.0001362e-05
2.0140864e-05
2.0253808e-05
2.0540326e-05
2.0884255e-05
2.134787e-05
2.1901513e-05
2.256737e-05
2.3343742e-05
2.4245222e-05
2.5282896e-05
2.6474364e-05
2.7839565e-05
2.9403961e-05
3.1198032e-05
3.3259108e-05
3.5632944e-05
3.8376291e-05
4.155807e-05
4.526289e-05
4.9594837e-05
5.4681603e-05
6.0679518e-05
6.7780278e-05
7.6221603e-05
8.628821e-05
9.8331691e-05
0.00011278247
0.00013016614
0.00015111908
0.0001764197
0.00020701341
0.00024404348
0.00028889533
0.00034323828
0.00040908298
0.00048884573
0.00058542403
0.00070228813
0.00084359376
0.0010143333
0.0012204843
0.0012195063
0.0012180617
0.001216502
0.0012148339
0.0012130409
0.0012111008
0.001208982
0.0012066346
0.0012039684
0.0012007861
0.0011970035
0.001193329
0.0011900726
0.0011872014
0.0011847033
0.0011825738
0.0011807927
0.0011793325
0.001178298
0.0011769741
0.0011783761
0.0011744581
0.0011796846
2.2985273e-06
1.8036005e-05
1.5688147e-05
1.8848544e-05
1.9440751e-05
1.8803866e-05
2.3158403e-05
1.9081025e-05
2.1869839e-05
1.8729637e-05
1.9650077e-05
1.813845e-05
1.8337446e-05
1.7732429e-05
1.7790786e-05
1.7650056e-05
1.7782419e-05
1.7916565e-05
1.8193656e-05
1.853218e-05
1.8975247e-05
1.9504157e-05
2.0135132e-05
2.0869492e-05
2.1719611e-05
2.2696851e-05
2.3817539e-05
2.5100719e-05
2.6570409e-05
2.825549e-05
3.0191146e-05
3.2420435e-05
3.499698e-05
3.7985832e-05
4.1466848e-05
4.5538321e-05
5.0321023e-05
5.5962819e-05
6.2644285e-05
7.0591824e-05
8.0074017e-05
9.1423279e-05
0.00010504662
0.0001214421
0.00014121054
0.00016508813
0.00019396978
0.00022893668
0.00027130117
0.00032264507
0.0003848761
0.00046029093
0.00055164982
0.00066226692
0.00079612093
0.00095799981
0.0011536575
0.0012188374
0.0012173409
0.0012157293
0.0012140153
0.0012121831
0.0012102124
0.0012080752
0.0012057299
0.0012031085
0.0012000872
0.0011964429
0.0011928268
0.0011896268
0.0011868076
0.0011843552
0.001182264
0.0011805117
0.0011791184
0.0011780144
0.001176941
0.0011778193
0.0011745249
0.0011792279
2.0987495e-06
1.7367473e-05
1.4649148e-05
1.6998977e-05
1.8292862e-05
1.6803217e-05
2.1067265e-05
1.6928839e-05
1.9216481e-05
1.6512131e-05
1.7181504e-05
1.5950727e-05
1.6065329e-05
1.5596193e-05
1.5636388e-05
1.5554228e-05
1.5684816e-05
1.5838111e-05
1.6110239e-05
1.6445636e-05
1.6873561e-05
1.7383122e-05
1.7986474e-05
1.8686973e-05
1.9495506e-05
2.0423489e-05
2.1486305e-05
2.2702233e-05
2.4094138e-05
2.5689631e-05
2.7522171e-05
2.9632577e-05
3.207198e-05
3.4902316e-05
3.8199609e-05
4.2057449e-05
4.6591137e-05
5.1941893e-05
5.8280706e-05
6.5825832e-05
7.483265e-05
8.5618136e-05
9.8570255e-05
0.00011416578
0.00013297654
0.00015570462
0.00018320485
0.00021650812
0.00025686831
0.00030579652
0.00036511714
0.0004370295
0.0005241814
0.00062975831
0.00075759258
0.00091230199
0.0010994494
0.0012181431
0.0012165975
0.001214935
0.001213176
0.0012113056
0.0012093047
0.0012071482
0.0012048003
0.0012022053
0.0011992674
0.001195806
0.0011922641
0.0011891345
0.0011863799
0.0011839845
0.0011819383
0.0011802291
0.0011788866
0.0011777613
0.0011768961
0.0011773286
0.0011746081
0.0011787807
1.9253583e-06
1.6587953e-05
1.3683047e-05
1.5218216e-05
1.7184545e-05
1.499031e-05
1.8931396e-05
1.4987931e-05
1.678025e-05
1.4521002e-05
1.4971257e-05
1.3991869e-05
1.4041653e-05
1.3688787e-05
1.3720258e-05
1.3688181e-05
1.3821866e-05
1.3992483e-05
1.4202947e-05
1.4527575e-05
1.4937735e-05
1.5426827e-05
1.6003601e-05
1.6672213e-05
1.7442142e-05
1.8324481e-05
1.9333644e-05
2.0487031e-05
2.1806337e-05
2.3317969e-05
2.5053829e-05
2.7052559e-05
2.9363072e-05
3.2044481e-05
3.516939e-05
3.8827195e-05
4.3128331e-05
4.8208705e-05
5.4592379e-05
6.1813002e-05
7.0437296e-05
8.0770049e-05
9.3183429e-05
0.00010813853
0.00012618348
0.00014799284
0.00017439033
0.00020636595
0.00024512746
0.0002921294
0.00034912923
0.00041824795
0.00050204248
0.00060359393
0.0007266153
0.00087558548
0.0010559102
0.0012174127
0.0012158234
0.0012141123
0.0012123105
0.0012104038
0.0012083744
0.0012061995
0.0012038481
0.0012012743
0.001198403
0.0011950989
0.001191646
0.0011886003
0.0011859227
0.0011835944
0.0011816022
0.0011799463
0.0011786444
0.0011775346
0.0011768375
0.0011769159
0.0011747076
0.0011783845
1.7747581e-06
1.5682296e-05
1.2779789e-05
1.3495229e-05
1.607144e-05
1.3342964e-05
1.6771014e-05
1.3230662e-05
1.4564687e-05
1.2729173e-05
1.3000668e-05
1.2237608e-05
1.2243133e-05
1.19877e-05
1.1961502e-05
1.1950575e-05
1.207923e-05
1.2259101e-05
1.2526806e-05
1.2859737e-05
1.3268921e-05
1.3751752e-05
1.4315682e-05
1.4965988e-05
1.5711617e-05
1.6563713e-05
1.753622e-05
1.8646062e-05
1.9914206e-05
2.1366294e-05
2.3033304e-05
2.4952195e-05
2.7170407e-05
2.9745115e-05
3.2746494e-05
3.626088e-05
4.0395117e-05
4.5282415e-05
5.1082007e-05
5.7991047e-05
6.6250616e-05
7.6155158e-05
8.8747397e-05
0.00010319885
0.00012064234
0.00014172997
0.00016726248
0.00019819636
0.00023570398
0.00028119524
0.00033637468
0.00040330128
0.00048445976
0.00058284819
0.00070208467
0.00084653794
0.0010214889
0.001216636
0.0012150111
0.0012132549
0.0012114137
0.001209474
0.0012074189
0.0012052279
0.0012028737
0.0012003185
0.0011975036
0.0011943294
0.0011909792
0.0011880298
0.0011854407
0.0011831892
0.0011812605
0.0011796649
0.0011783988
0.00117733
0.0011767625
0.0011765827
0.0011748201
0.0011780647
1.644701e-06
1.4646985e-05
1.193979e-05
1.1929245e-05
1.4915426e-05
1.1840906e-05
1.4686018e-05
1.1634769e-05
1.2570253e-05
1.1115278e-05
1.1251143e-05
1.0668646e-05
1.0564655e-05
1.0362935e-05
1.0387229e-05
1.0430227e-05
1.058192e-05
1.0786143e-05
1.1065199e-05
1.1405774e-05
1.1815504e-05
1.2294349e-05
1.2849085e-05
1.3485755e-05
1.4212902e-05
1.5041697e-05
1.5985741e-05
1.7061538e-05
1.828946e-05
1.9694561e-05
2.1307286e-05
2.3163051e-05
2.5308277e-05
2.7798684e-05
3.0702661e-05
3.4104165e-05
3.8106747e-05
4.2841765e-05
4.8464067e-05
5.5166207e-05
6.3183605e-05
7.2804312e-05
8.438251e-05
9.8342932e-05
0.00011520652
0.00013673092
0.00016160332
0.00019174107
0.00022829072
0.00027262787
0.00032641621
0.00039166685
0.00047080873
0.00056677572
0.00068311284
0.00082410543
0.00099494066
0.001201888
0.0012141547
0.0012123578
0.0012104815
0.0012085129
0.0012064362
0.0012042324
0.0012018776
0.00119934
0.001196574
0.0011935067
0.001190271
0.0011874291
0.0011849388
0.001182773
0.0011809174
0.0011793862
0.0011781553
0.0011771442
0.0011766687
0.0011763146
0.00117494
0.0011777974
1.5327199e-06
1.3485376e-05
1.1154904e-05
1.0508241e-05
1.367727e-05
1.0470625e-05
1.2713046e-05
1.0185723e-05
1.0794717e-05
9.6642772e-06
9.6106124e-06
9.1300531e-06
9.0780427e-06
8.9673554e-06
9.0214661e-06
9.1077683e-06
9.2806837e-06
9.5054828e-06
9.7955861e-06
1.0143673e-05
1.0555513e-05
1.103265e-05
1.1581557e-05
1.2208867e-05
1.2922769e-05
1.3734457e-05
1.465729e-05
1.5707428e-05
1.6904728e-05
1.827376e-05
1.9768111e-05
2.1560694e-05
2.363285e-05
2.6038874e-05
2.8845509e-05
3.2134609e-05
3.621342e-05
4.0832786e-05
4.6321025e-05
5.2867453e-05
6.0703259e-05
7.0110352e-05
8.1439105e-05
9.510492e-05
0.00011161988
0.0001316094
0.0001558253
0.00018678434
0.00022263169
0.00026612276
0.00031889086
0.00038291173
0.00046057306
0.00055476123
0.00066896746
0.00080741765
0.00097523254
0.0011786106
0.0012132495
0.0012114172
0.0012095112
0.0012075188
0.0012054253
0.0012032131
0.0012008609
0.0011983418
0.0011956196
0.0011926411
0.00118953
0.0011868048
0.0011844218
0.0011823501
0.0011805764
0.0011791121
0.0011779189
0.0011769764
0.0011765528
0.0011760377
0.0011750614
0.0011775795
1.4375033e-06
1.2212345e-05
1.0415654e-05
9.2165526e-06
1.2319247e-05
9.2164969e-06
1.0880206e-05
8.8674139e-06
9.2282999e-06
8.217502e-06
8.144943e-06
7.8219781e-06
7.7975479e-06
7.7580417e-06
7.8404627e-06
7.9620496e-06
8.1546837e-06
8.3974242e-06
8.6984875e-06
9.0543343e-06
9.4698564e-06
9.9475202e-06
1.0493683e-05
1.108851e-05
1.1786995e-05
1.2579864e-05
1.3479993e-05
1.4502979e-05
1.5667948e-05
1.6998555e-05
1.8523634e-05
2.0278595e-05
2.2306973e-05
2.4662381e-05
2.741085e-05
3.0633746e-05
3.4431272e-05
3.8926832e-05
4.4272238e-05
5.0653963e-05
5.8299711e-05
6.7997753e-05
7.9152584e-05
9.2613624e-05
0.00010888492
0.00012858681
0.00015246045
0.00018141267
0.00021850659
0.00026141826
0.00031348736
0.00037666528
0.00045331142
0.00054627966
0.00065902471
0.00079573375
0.00096148532
0.0011624348
0.0012122926
0.0012104312
0.0012085012
0.0012064908
0.001204386
0.0012021707
0.0011998255
0.0011973273
0.0011946467
0.0011917439
0.0011887653
0.0011861638
0.0011838947
0.0011819243
0.00118024
0.0011788446
0.0011776938
0.0011768219
0.0011764215
0.0011758065
0.0011751699
0.0011773822
1.358834e-06
1.0841865e-05
9.7137861e-06
8.0433781e-06
1.0883729e-05
8.0665955e-06
9.222694e-06
7.6080839e-06
7.6496393e-06
6.9649772e-06
6.8953076e-06
6.6927751e-06
6.69808e-06
6.7145422e-06
6.8236658e-06
6.9746986e-06
7.1858051e-06
7.4447525e-06
7.7569049e-06
8.1210223e-06
8.5214839e-06
8.996272e-06
9.5372096e-06
1.01509e-05
1.0845824e-05
1.1632344e-05
1.252331e-05
1.3534194e-05
1.4683815e-05
1.5995628e-05
1.7498176e-05
1.9226535e-05
2.1223885e-05
2.3543433e-05
2.625077e-05
2.9426724e-05
3.3170823e-05
3.7605585e-05
4.2881739e-05
4.9184814e-05
5.6742763e-05
6.5831194e-05
7.6787097e-05
9.0018119e-05
0.00010689936
0.00012642513
0.00015008751
0.0001787908
0.00021361778
0.0002582821
0.00030992936
0.00037259849
0.00044863229
0.00054086553
0.00065273177
0.00078839795
0.00095292284
0.001152445
0.0012112834
0.0012093992
0.0012074516
0.0012054294
0.0012033196
0.001201107
0.0011987743
0.0011963007
0.0011936617
0.0011908268
0.001187986
0.0011855129
0.0011833619
0.0011814983
0.0011799089
0.0011785846
0.001177484
0.0011766802
0.0011762766
0.0011756102
0.0011752517
0.0011771887
1.2979181e-06
9.3847263e-06
9.0259648e-06
6.9760187e-06
9.4117853e-06
6.9841761e-06
8.3634296e-06
6.4030724e-06
6.3422323e-06
5.8857213e-06
5.8335948e-06
5.7214927e-06
5.7574986e-06
5.8191042e-06
5.9533153e-06
6.1297238e-06
6.3583852e-06
6.6324618e-06
6.9371186e-06
7.3055935e-06
7.7284829e-06
8.2095789e-06
8.7544182e-06
9.3698542e-06
1.0064445e-05
1.084853e-05
1.1734959e-05
1.2739192e-05
1.3879709e-05
1.517991e-05
1.6668182e-05
1.837945e-05
2.0356765e-05
2.2653227e-05
2.5334336e-05
2.848084e-05
3.2192149e-05
3.659047e-05
4.1825927e-05
4.8083187e-05
5.559131e-05
6.4624669e-05
7.5520723e-05
8.8686531e-05
0.00010461747
0.00012391527
0.00014857578
0.0001771642
0.0002118578
0.00025396192
0.00030795955
0.00037040483
0.00044617054
0.00053808471
0.00064957264
0.00078479787
0.00094881923
0.0011477826
0.0012102227
0.0012083227
0.0012063641
0.0012043366
0.0012022281
0.0012000247
0.0011977104
0.0011952665
0.0011926718
0.0011899013
0.0011872013
0.0011848583
0.0011828273
0.0011810739
0.0011795821
0.0011783308
0.0011772892
0.0011765489
0.0011761215
0.0011754363
0.0011753049
0.0011769948
1.2603304e-06
7.8674726e-06
8.3155209e-06
6.0173188e-06
7.9753817e-06
6.7113971e-06
6.4841993e-06
5.3153302e-06
5.2644779e-06
4.9556342e-06
4.9334246e-06
4.8919981e-06
4.9580184e-06
5.0573e-06
5.2150396e-06
5.4138267e-06
5.6428149e-06
5.9271063e-06
6.2586569e-06
6.6387484e-06
7.0708417e-06
7.559247e-06
8.1096904e-06
8.7291771e-06
9.4263534e-06
1.0211445e-05
1.1097329e-05
1.2072719e-05
1.3201857e-05
1.4487394e-05
1.5957362e-05
1.7646338e-05
1.9597052e-05
2.1862301e-05
2.4507329e-05
2.7612648e-05
3.1277455e-05
3.5623634e-05
4.0800506e-05
4.7301511e-05
5.4793489e-05
6.3810895e-05
7.4693816e-05
8.7848977e-05
0.0001037715
0.00012306384
0.00014645648
0.00017638239
0.00021107639
0.00025318646
0.00030428815
0.00036978196
0.00044556529
0.00053750804
0.00064903685
0.0007843266
0.00094845369
0.0011475924
0.0012091141
0.001207205
0.0012052421
0.0012032157
0.0012011149
0.0011989272
0.0011966377
0.0011942297
0.0011916837
0.0011889783
0.0011864198
0.0011842061
0.0011822942
0.0011806514
0.0011792569
0.0011780807
0.0011771063
0.0011764222
0.0011759598
0.0011752882
0.0011753403
0.0011767814
1.2490665e-06
7.329048e-06
7.5898587e-06
6.2626361e-06
7.6392125e-06
5.0456294e-06
5.0655841e-06
4.4083628e-06
4.3598225e-06
4.1720217e-06
4.1771308e-06
4.1927381e-06
4.2866877e-06
4.4174608e-06
4.5843462e-06
4.79809e-06
5.0560181e-06
5.3564008e-06
5.7011376e-06
6.0924777e-06
6.5341905e-06
7.0309317e-06
7.5885629e-06
8.2141453e-06
8.9026563e-06
9.6873454e-06
1.0570701e-05
1.1567816e-05
1.2697196e-05
1.39816e-05
1.5449114e-05
1.7134436e-05
1.9080513e-05
2.1340466e-05
2.3979999e-05
2.708023e-05
3.0741153e-05
3.5085733e-05
4.0264831e-05
4.6463109e-05
5.3906063e-05
6.3328269e-05
7.4235829e-05
8.7425898e-05
0.00010339389
0.0001227441
0.00014620942
0.00017467844
0.00021109005
0.00025333548
0.00030459978
0.00036681015
0.00044644208
0.00053868955
0.00065059294
0.00078635073
0.00095107189
0.0011509763
0.0012079632
0.0012060518
0.0012040908
0.0012020718
0.0011999849
0.0011978188
0.0011955606
0.0011931949
0.0011907039
0.0011880674
0.0011856488
0.0011835615
0.0011817654
0.0011802297
0.0011789296
0.00117783
0.001176926
0.0011762878
0.0011757961
0.0011751736
0.0011753362
0.0011765347
1.2600843e-06
7.5192207e-06
6.8051981e-06
6.7207408e-06
6.6410844e-06
4.0311656e-06
4.1108257e-06
3.6439286e-06
3.6092897e-06
3.5157817e-06
3.5494449e-06
3.6104194e-06
3.7305663e-06
3.8749749e-06
4.0700289e-06
4.3045355e-06
4.5791241e-06
4.8938591e-06
5.2510357e-06
5.653541e-06
6.1053933e-06
6.6114654e-06
7.1694117e-06
7.7999621e-06
8.5057869e-06
9.2970177e-06
1.0185979e-05
1.1187739e-05
1.2320804e-05
1.3607993e-05
1.5077531e-05
1.6764362e-05
1.8711777e-05
2.0973391e-05
2.3615541e-05
2.6720151e-05
3.0388192e-05
3.4743817e-05
3.9939252e-05
4.6160705e-05
5.3635854e-05
6.2642431e-05
7.4072383e-05
8.7331073e-05
0.00010338439
0.00012283949
0.0001464325
0.00017505577
0.00021170051
0.00025417482
0.00030571327
0.0003682528
0.00044839423
0.00054114356
0.00065366117
0.00079017784
0.00095584639
0.0011569452
0.0012067771
0.0012048699
0.0012029171
0.0012009112
0.0011988434
0.0011967043
0.0011944826
0.0011921652
0.0011897363
0.0011871762
0.001184894
0.0011829287
0.0011812428
0.001179808
0.0011785965
0.0011775725
0.0011767375
0.0011761397
0.0011756427
0.0011750768
0.0011752693
0.0011762353
1.0191582e-06
8.0422478e-06
5.9012053e-06
4.2372752e-06
4.2718296e-06
3.346566e-06
3.283682e-06
3.0259206e-06
2.9984199e-06
2.9751216e-06
3.0368497e-06
3.1333184e-06
3.2659861e-06
3.4418676e-06
3.6573701e-06
3.9093076e-06
4.1986537e-06
4.5266065e-06
4.8958209e-06
5.3095857e-06
5.7720817e-06
6.2823973e-06
6.8561076e-06
7.4961155e-06
8.2107652e-06
9.0101446e-06
9.9065354e-06
1.0914995e-05
1.2054072e-05
1.3346704e-05
1.4821321e-05
1.6513196e-05
1.8466078e-05
2.0734184e-05
2.3384606e-05
2.6500197e-05
3.0183065e-05
3.4558736e-05
3.9781014e-05
4.6037449e-05
5.3557412e-05
6.3086246e-05
7.4122488e-05
8.7470027e-05
0.00010363249
0.0001232207
0.00014697503
0.00017579286
0.00021268524
0.00025544074
0.00030731687
0.00037026297
0.0004509622
0.00054432102
0.00065758473
0.00079502196
0.00096183587
0.0011643713
0.0012055649
0.001203668
0.0012017292
0.0011997415
0.0011976977
0.0011955893
0.0011934075
0.001191142
0.0011887808
0.0011863098
0.001184159
0.0011823102
0.0011807284
0.0011793863
0.0011782551
0.0011773019
0.0011765336
0.0011759756
0.0011754749
0.0011749299
0.0011751313
0.0011758707
7.9887949e-07
5.9478652e-06
4.6071134e-06
3.2452198e-06
3.3116525e-06
2.7125942e-06
2.6461913e-06
2.5014514e-06
2.5042761e-06
2.5311757e-06
2.6216796e-06
2.7394587e-06
2.9013909e-06
3.0990253e-06
3.3319343e-06
3.5990686e-06
3.901885e-06
4.2423159e-06
4.6232886e-06
5.0483288e-06
5.5182477e-06
6.0435276e-06
6.6277025e-06
7.2777028e-06
8.0018179e-06
8.8100839e-06
9.7147534e-06
1.0730892e-05
1.1877122e-05
1.3176541e-05
1.465784e-05
1.6356668e-05
1.8317291e-05
2.0594579e-05
2.3256414e-05
2.6386586e-05
3.0088325e-05
3.44886e-05
3.9743375e-05
4.6041264e-05
5.398404e-05
6.31856e-05
7.4298376e-05
8.7739956e-05
0.00010401716
0.00012374465
0.00014766748
0.00017668814
0.00021379595
0.00025683737
0.00030905747
0.00037241878
0.00045362822
0.00054760211
0.00066162077
0.0007999917
0.00096796964
0.0011719668
0.0012043369
0.0012024563
0.001200537
0.0011985727
0.0011965567
0.001194482
0.0011923411
0.0011901256
0.0011878268
0.0011854714
0.0011834446
0.0011817059
0.0011802218
0.0011789652
0.0011779059
0.0011770163
0.0011763065
0.0011757797
0.0011752847
0.0011747886
0.0011749571
0.001175465
6.2418974e-07
3.3563321e-06
3.6604257e-06
2.6371399e-06
2.5581536e-06
2.1934174e-06
2.1444139e-06
2.0792941e-06
2.1121946e-06
2.17855e-06
2.294435e-06
2.4370337e-06
2.6198337e-06
2.8350975e-06
3.0828254e-06
3.3633508e-06
3.6785281e-06
4.0307242e-06
4.423014e-06
4.8590151e-06
5.3429938e-06
5.8767925e-06
6.4712477e-06
7.1310855e-06
7.8645376e-06
8.6815948e-06
9.5944943e-06
1.0618332e-05
1.1771824e-05
1.3078243e-05
1.4566555e-05
1.6272805e-05
1.8241772e-05
2.0528982e-05
2.3203076e-05
2.6348679e-05
3.0069818e-05
3.4683397e-05
4.0009663e-05
4.6394871e-05
5.4073298e-05
6.3329911e-05
7.4510714e-05
8.8035188e-05
0.00010441266
0.00012426102
0.00014833015
0.00017908506
0.00021476205
0.00025803996
0.00031054492
0.00037425139
0.0004558118
0.00055028894
0.0006649295
0.00080407547
0.00097302765
0.0011782587
0.0012031046
0.0012012462
0.0011993518
0.0011974159
0.0011954324
0.001193395
0.001191297
0.0011891311
0.0011868897
0.0011846619
0.001182749
0.0011811117
0.001179718
0.0011785398
0.001177547
0.001176717
0.0011760581
0.001175555
0.0011750775
0.0011746471
0.0011747759
0.001175097
5.0496838e-07
2.6017274e-06
2.7999748e-06
2.0839795e-06
1.9938962e-06
1.7817474e-06
1.754835e-06
1.7466893e-06
1.8079114e-06
1.9056557e-06
2.043868e-06
2.2093072e-06
2.4092329e-06
2.6392859e-06
2.9000107e-06
3.1925643e-06
3.5190642e-06
3.8821004e-06
4.2848086e-06
4.7308267e-06
5.2243857e-06
5.7704118e-06
6.3746942e-06
7.0441154e-06
7.7869593e-06
8.6133062e-06
9.5355334e-06
1.0568942e-05
1.1732531e-05
1.304995e-05
1.4550645e-05
1.6271261e-05
1.8257315e-05
2.0565215e-05
2.3264663e-05
2.6441562e-05
3.020144e-05
3.4673694e-05
4.0016514e-05
4.6422968e-05
5.4128268e-05
6.3418586e-05
7.4641797e-05
8.8217506e-05
0.00010465571
0.00012562712
0.0001499572
0.0001794572
0.00021523461
0.00025863248
0.0003112818
0.00037870703
0.00045678111
0.00055150747
0.00066646636
0.00080602352
0.00097551259
0.0011814499
0.0012018787
0.001200048
0.001198184
0.0011962815
0.0011943354
0.0011923399
0.0011902891
0.0011881769
0.0011859964
0.0011838818
0.0011820696
0.0011805222
0.0011792083
0.0011780993
0.0011771661
0.0011763904
0.0011757751
0.0011752923
0.001174839
0.00117447
0.0011745514
0.0011747154
3.874038e-07
2.0225752e-06
2.1022519e-06
1.6545956e-06
1.5626008e-06
1.4521276e-06
1.4497762e-06
1.4839787e-06
1.5708346e-06
1.6935451e-06
1.8502682e-06
2.0345121e-06
2.247767e-06
2.4894644e-06
2.7605988e-06
3.0627963e-06
3.3983262e-06
3.7698885e-06
4.1806383e-06
4.6342072e-06
5.1347977e-06
5.6873013e-06
6.2974543e-06
6.9720678e-06
7.7193492e-06
8.5493077e-06
9.474261e-06
1.0509473e-05
1.1673932e-05
1.2991311e-05
1.4491122e-05
1.6210107e-05
1.819392e-05
2.0499134e-05
2.3195689e-05
2.6369841e-05
3.0127163e-05
3.4597167e-05
3.9938069e-05
4.6342777e-05
5.4045978e-05
6.3800508e-05
7.5105657e-05
8.877613e-05
0.00010532366
0.00012536888
0.00014966418
0.00017912211
0.00021484994
0.00025818764
0.00031359821
0.000377842
0.00045578232
0.00055036093
0.00066516172
0.00080455744
0.00097389264
0.0011797004
0.0012006725
0.0011988741
0.0011970449
0.0011951802
0.0011932752
0.0011913251
0.0011893245
0.0011872682
0.0011851505
0.0011831316
0.0011814048
0.0011799336
0.0011786869
0.0011776362
0.001176754
0.0011760245
0.0011754444
0.001174979
0.0011745538
0.0011742366
0.0011742698
0.0011743141
2.4374735e-07
1.6061217e-06
1.5292591e-06
1.3240646e-06
1.2411945e-06
1.1992906e-06
1.2245012e-06
1.2931975e-06
1.4044937e-06
1.5487496e-06
1.7221253e-06
1.9218878e-06
2.1477755e-06
2.4005627e-06
2.6817579e-06
2.992682e-06
3.3368421e-06
3.7164994e-06
4.1348088e-06
4.5954033e-06
5.102498e-06
5.6609969e-06
6.2765907e-06
6.9559924e-06
7.707325e-06
8.5405126e-06
9.4677878e-06
1.0504337e-05
1.1669076e-05
1.2985612e-05
1.4483386e-05
1.6199061e-05
1.8178161e-05
2.0477057e-05
2.3253446e-05
2.6438646e-05
3.020862e-05
3.4692994e-05
4.005003e-05
4.6472627e-05
5.4195398e-05
6.3503349e-05
7.4742468e-05
8.8332574e-05
0.00010478098
0.00012470365
0.0001488473
0.00017970786
0.00021546396
0.00025882051
0.00031140429
0.00037519225
0.00045258917
0.00054652295
0.0006605624
0.00079906359
0.00096735312
0.0011719439
0.0011994944
0.0011977324
0.0011959417
0.0011941181
0.0011922573
0.0011903549
0.0011884063
0.0011864068
0.0011843514
0.0011824086
0.0011807496
0.0011793387
0.0011781451
0.0011771402
0.0011762987
0.0011756057
0.0011750517
0.0011746006
0.0011742021
0.0011739225
0.0011739052
0.0011738591
3.4705072e-07
1.2869695e-06
1.1248548e-06
1.0586151e-06
1.0139502e-06
1.0124791e-06
1.061043e-06
1.1523848e-06
1.279127e-06
1.434785e-06
1.6158554e-06
1.8211491e-06
2.0509724e-06
2.3064781e-06
2.5893541e-06
2.9016759e-06
3.2458539e-06
3.624692e-06
4.0413984e-06
4.4996555e-06
5.0036686e-06
5.5582143e-06
6.1685891e-06
6.8412025e-06
7.5842658e-06
8.4076516e-06
9.3235209e-06
1.0346939e-05
1.1496665e-05
1.2796096e-05
1.4274412e-05
1.5967941e-05
1.7921808e-05
2.0191899e-05
2.2847138e-05
2.5972005e-05
2.9670203e-05
3.4069023e-05
3.9323844e-05
4.5623907e-05
5.3199427e-05
6.2329962e-05
7.3924511e-05
8.7358909e-05
0.00010361619
0.00012330502
0.00014716365
0.00017608776
0.00021116453
0.00025371431
0.0003053416
0.00036799784
0.00044405828
0.00053641676
0.00064860265
0.00078492647
0.0009506611
0.0011522567
0.0011983372
0.0011966173
0.0011948701
0.001193092
0.0011912791
0.0011894275
0.0011875333
0.0011855924
0.0011836007
0.0011817119
0.001180101
0.0011787327
0.0011775761
0.001176603
0.0011757896
0.001175121
0.0011745825
0.0011741397
0.001173763
0.0011735137