/*--------------------------------*- C++ -*----------------------------------*\
  =========                 |
  \\      /  F ield         | OpenFOAM: The Open Source CFD Toolbox
   \\    /   O peration     | Website:  https://openfoam.org
    \\  /    A nd           | Version:  6
     \\/     M anipulation  |
\*---------------------------------------------------------------------------*/
FoamFile
{
    version     2.0;
    format      ascii;
    class       volScalarField;
    location    "850";
    object      k;
}
// * * * * * * * * * * * * * * * * * * * * * * * * * * * * * * * * * * * * * //

dimensions      [0 2 -2 0 0 0 0];

internalField   nonuniform List<scalar> 
16000
(
0.12667174
0.031808109
0.021299123
0.017652757
0.01520496
0.014340541
0.013322393
0.012990809
0.012520628
0.012304005
0.012049753
0.011884669
0.011723552
0.011597328
0.011484863
0.01139116
0.011312782
0.011246792
0.011190577
0.011142355
0.011100655
0.011064367
0.011032586
0.011004602
0.010979834
0.010957812
0.010938143
0.010920505
0.010904622
0.010890266
0.010877239
0.010865372
0.010854519
0.010844548
0.010835341
0.010826793
0.010818804
0.010811283
0.010804143
0.010797301
0.010790678
0.0107842
0.010777793
0.010771386
0.010764909
0.010758293
0.010751469
0.010744368
0.010736921
0.010729058
0.010720708
0.010711797
0.010702247
0.010691979
0.010680894
0.010668869
0.01065574
0.010641296
0.010625224
0.010606818
0.010583857
0.010557001
0.010525116
0.010486885
0.010441422
0.010389232
0.010332646
0.010277093
0.010226
0.010182476
0.010142878
0.010113411
0.010082309
0.010065329
0.010041136
0.0100536
0.01003321
0.010120628
0.010036494
0.010121222
0.10722099
0.032315537
0.020791721
0.017530576
0.01501815
0.014262088
0.013223527
0.012923334
0.012449141
0.012238815
0.011986471
0.011821892
0.0116637
0.011537341
0.011430673
0.011343084
0.011269811
0.011208129
0.011155585
0.011110514
0.011071539
0.011037619
0.011007908
0.010981736
0.010958559
0.010937935
0.010919496
0.010902936
0.010887998
0.010874465
0.010862149
0.010850893
0.010840557
0.010831017
0.010822163
0.010813895
0.010806119
0.01079875
0.010791705
0.010784908
0.010778285
0.010771765
0.01076528
0.010758763
0.01075215
0.010745375
0.010738375
0.010731083
0.010723436
0.010715367
0.010706806
0.010697684
0.010687924
0.010677448
0.010666166
0.010653965
0.010640698
0.010626179
0.010610191
0.010592448
0.010572383
0.010548229
0.010518958
0.010483163
0.010439797
0.010388919
0.010332732
0.010276599
0.010225203
0.010180791
0.010141577
0.01011063
0.010081663
0.010064901
0.010040708
0.010046139
0.010028763
0.010106671
0.01003466
0.010119826
0.09272211
0.032770255
0.020265872
0.01738439
0.014825464
0.014167769
0.013120705
0.012845417
0.012374326
0.012166484
0.011919851
0.011753957
0.011600681
0.011479325
0.011379829
0.011298137
0.011229796
0.011172274
0.011123278
0.011081251
0.011044906
0.011013271
0.010985553
0.010961123
0.010939473
0.010920186
0.010902917
0.01088738
0.010873331
0.010860565
0.010848907
0.010838207
0.010828334
0.010819171
0.010810614
0.010802569
0.01079495
0.010787674
0.010780667
0.010773857
0.010767173
0.010760551
0.010753928
0.010747241
0.010740431
0.010733437
0.0107262
0.010718658
0.010710751
0.010702415
0.010693586
0.010684195
0.01067417
0.010663433
0.010651897
0.01063946
0.010625985
0.010611299
0.010595201
0.010577465
0.010557787
0.010535614
0.010509513
0.010476679
0.01043591
0.010386886
0.010331461
0.010275103
0.01022344
0.010178598
0.010139536
0.010107878
0.010080004
0.010063565
0.010040279
0.010041301
0.01002618
0.010094779
0.010032542
0.010109805
0.083200336
0.032958778
0.019741911
0.017214369
0.014631406
0.014055978
0.013016622
0.012755462
0.012296899
0.012085886
0.011849809
0.011680407
0.011537812
0.011424893
0.011332313
0.011256296
0.011192712
0.011139197
0.011093621
0.011054525
0.011020711
0.01099127
0.010965462
0.010942698
0.010922501
0.010904482
0.010888317
0.010873737
0.010860513
0.010848453
0.01083739
0.010827185
0.010817713
0.010808866
0.010800545
0.010792663
0.010785139
0.010777898
0.010770868
0.010763984
0.010757182
0.0107504
0.010743582
0.01073667
0.010729609
0.010722342
0.010714815
0.010706972
0.010698754
0.010690103
0.010680957
0.010671251
0.010660916
0.010649874
0.010638042
0.010625323
0.010611591
0.010596682
0.010580404
0.010562546
0.010542854
0.010520952
0.01049617
0.010466916
0.010429353
0.0103828
0.010328629
0.010272386
0.01022063
0.010175641
0.01013677
0.010104746
0.010077688
0.010059892
0.010039701
0.010038856
0.01002418
0.010081883
0.010030743
0.010103099
0.074854175
0.032769897
0.019230795
0.017018764
0.014437288
0.013925816
0.012911655
0.012652918
0.012216774
0.011996718
0.011776186
0.01161131
0.011478985
0.011374151
0.011288226
0.011217664
0.011158659
0.011109
0.011066712
0.011030431
0.010999045
0.010971705
0.01094772
0.010926541
0.01090772
0.010890895
0.010875761
0.010862066
0.010849597
0.010838172
0.010827635
0.010817854
0.010808713
0.010800111
0.010791956
0.010784168
0.01077667
0.010769394
0.010762274
0.01075525
0.010748264
0.010741259
0.010734184
0.010726986
0.010719614
0.010712018
0.010704147
0.010695948
0.010687369
0.010678354
0.010668843
0.010658776
0.010648084
0.010636695
0.010624525
0.010611481
0.010597447
0.01058227
0.010565761
0.010547721
0.010527915
0.010506026
0.010481562
0.010453601
0.01041991
0.010376515
0.010324167
0.010268401
0.010216764
0.010171887
0.01013329
0.010101224
0.010074821
0.010056225
0.01003854
0.010036284
0.010022673
0.010070153
0.010029077
0.010092626
0.067537044
0.03204577
0.018744528
0.016795739
0.014244839
0.013776052
0.012806419
0.012536982
0.012133825
0.011903373
0.01169945
0.011546753
0.011424276
0.011327178
0.01124764
0.011182311
0.011127702
0.011081739
0.011042603
0.011009017
0.010979949
0.010954609
0.010932353
0.010912669
0.010895138
0.010879422
0.010865237
0.010852347
0.010840551
0.01082968
0.010819588
0.010810151
0.010801262
0.010792826
0.01078476
0.010776987
0.010769439
0.010762054
0.010754772
0.010747538
0.0107403
0.010733007
0.010725612
0.010718068
0.01071033
0.010702351
0.010694084
0.010685482
0.010676495
0.01066707
0.010657153
0.010646684
0.010635598
0.010623824
0.010611282
0.01059788
0.010583507
0.010568022
0.010551243
0.010532977
0.010513005
0.010491039
0.010466669
0.010439227
0.010407405
0.010367938
0.010318068
0.010263166
0.010211875
0.010167344
0.010129146
0.01009729
0.010071456
0.010052442
0.010036721
0.010033339
0.010021402
0.010060555
0.010027642
0.010084985
0.061124691
0.030973136
0.018286573
0.016542899
0.014055979
0.013605653
0.012701467
0.012407144
0.012047386
0.011816033
0.01162796
0.011486839
0.011373779
0.011284072
0.011210648
0.011150328
0.011099925
0.011057497
0.01102137
0.01099035
0.010963484
0.010940035
0.010919405
0.010901117
0.010884781
0.010870081
0.010856752
0.010844573
0.010833359
0.01082295
0.010813212
0.010804028
0.010795301
0.010786942
0.010778876
0.010771033
0.010763352
0.010755777
0.010748255
0.010740738
0.010733177
0.010725529
0.010717752
0.010709803
0.010701643
0.010693228
0.010684518
0.010675467
0.01066603
0.010656157
0.010645796
0.01063489
0.010623377
0.010611187
0.010598242
0.010584453
0.010569714
0.01055389
0.01053681
0.010518285
0.010498108
0.010476012
0.010451637
0.010424438
0.010393487
0.010356919
0.010310296
0.010256685
0.01020598
0.01016202
0.01012437
0.010092931
0.010067636
0.010048577
0.010034289
0.010029249
0.010020166
0.010052296
0.010026147
0.010076749
0.055504842
0.02992825
0.01784082
0.016258858
0.013872498
0.013414256
0.012597132
0.012278699
0.01195556
0.01173476
0.011561768
0.011431645
0.011327566
0.011244912
0.011177326
0.011121789
0.011075399
0.011036339
0.011003071
0.010974483
0.010949693
0.010928017
0.010908901
0.010891899
0.01087665
0.010862859
0.010850279
0.010838706
0.010827968
0.010817917
0.010808428
0.010799395
0.010790728
0.010782348
0.010774185
0.010766179
0.010758277
0.010750427
0.010742584
0.010734707
0.010726753
0.010718684
0.010710463
0.010702055
0.010693421
0.010684524
0.010675327
0.010665788
0.010655865
0.010645511
0.010634676
0.010623305
0.010611339
0.010598709
0.010585339
0.010571143
0.010556015
0.010539831
0.010522427
0.010503619
0.01048321
0.010460953
0.010436519
0.010409441
0.010378977
0.010343772
0.010300855
0.010249014
0.010199134
0.01015596
0.010119025
0.010088185
0.010063442
0.010044618
0.010031423
0.010025101
0.010018811
0.010044442
0.010024416
0.01006921
0.050572027
0.028967211
0.017408201
0.015943343
0.013695601
0.013201622
0.012491901
0.012158423
0.011862792
0.011659636
0.011500943
0.011381263
0.011285728
0.01120979
0.011147764
0.01109678
0.011054204
0.011018337
0.01098777
0.010961469
0.010938619
0.010918586
0.010900856
0.010885016
0.010870731
0.010857726
0.010845774
0.010834686
0.010824303
0.01081449
0.010805133
0.010796135
0.010787416
0.010778905
0.010770542
0.010762274
0.010754055
0.010745843
0.010737598
0.010729285
0.010720869
0.010712317
0.010703597
0.010694677
0.010685524
0.010676105
0.010666386
0.010656327
0.01064589
0.01063503
0.010623698
0.010611843
0.010599404
0.010586318
0.010572508
0.010557889
0.010542362
0.010525803
0.010508061
0.010488956
0.0104683
0.010445861
0.010421338
0.010394322
0.010364198
0.010329956
0.010289745
0.010240224
0.010191404
0.010149223
0.010113177
0.010083097
0.010058965
0.010040595
0.010028231
0.010021239
0.010017305
0.010037098
0.010022538
0.010061507
0.046234139
0.028069214
0.016990225
0.015595139
0.013526197
0.012999884
0.01238315
0.012047069
0.011777277
0.011590736
0.01144556
0.011335787
0.011248356
0.011178801
0.011122049
0.011075384
0.011036415
0.011003557
0.010975521
0.010951347
0.010930286
0.010911748
0.01089526
0.01088044
0.010866976
0.010854617
0.010843153
0.010832411
0.010822245
0.010812535
0.010803177
0.010794087
0.010785193
0.010776435
0.010767762
0.010759129
0.010750499
0.010741836
0.01073311
0.01072429
0.010715348
0.010706256
0.010696986
0.010687512
0.010677804
0.010667832
0.010657563
0.010646963
0.010635993
0.01062461
0.010612768
0.010600417
0.010587497
0.010573946
0.010559689
0.010544642
0.010528709
0.010511771
0.010493685
0.010474277
0.010453368
0.010430739
0.010406113
0.010379125
0.010349251
0.010315671
0.010276961
0.010230423
0.010182886
0.010141892
0.010106908
0.010077732
0.0100543
0.010036537
0.010024817
0.010017661
0.010015647
0.010030441
0.01002058
0.010053773
0.042411587
0.027213328
0.016588369
0.015212904
0.013362898
0.012811548
0.012267626
0.011944612
0.011699013
0.011528128
0.011395696
0.011295311
0.011215546
0.011152041
0.011100273
0.011057682
0.011022101
0.010992053
0.010966362
0.010944139
0.010924695
0.010907483
0.010892071
0.010878105
0.010865299
0.010853423
0.010842285
0.010831729
0.010821626
0.010811867
0.010802365
0.010793044
0.010783845
0.010774718
0.010765622
0.010756521
0.010747387
0.010738192
0.01072891
0.01071952
0.010709997
0.010700318
0.010690461
0.010680401
0.010670111
0.010659565
0.010648732
0.010637577
0.010626065
0.010614154
0.010601799
0.010588949
0.010575547
0.010561531
0.010546828
0.010531357
0.01051502
0.010497707
0.01047928
0.010459573
0.010438413
0.010415596
0.010390864
0.010363892
0.010334229
0.010301204
0.010263712
0.010219744
0.010173693
0.010134069
0.010100309
0.01007217
0.010049543
0.010032495
0.010021294
0.010014342
0.010013861
0.010024702
0.01001876
0.010046933
0.039035214
0.026377727
0.016204453
0.014795445
0.013203556
0.012637361
0.012146226
0.011851021
0.011628008
0.011471883
0.011351436
0.011259935
0.011187396
0.011129603
0.011082518
0.011043745
0.011011317
0.010983863
0.010960305
0.010939832
0.010921807
0.010905727
0.010891197
0.010877893
0.010865553
0.010853972
0.010842976
0.010832428
0.010822214
0.010812244
0.010802441
0.010792744
0.010783107
0.01077349
0.010763861
0.010754196
0.010744472
0.01073467
0.010724772
0.010714759
0.010704613
0.010694315
0.010683845
0.01067318
0.010662297
0.010651169
0.010639767
0.010628059
0.010616008
0.010603573
0.010590711
0.01057737
0.010563495
0.010549023
0.010533884
0.010517997
0.010501269
0.010483592
0.010464834
0.010444839
0.010423442
0.010400448
0.01037562
0.010348663
0.010319191
0.010286652
0.010250194
0.010208346
0.010163962
0.010125869
0.01009348
0.010066497
0.010044786
0.010028522
0.010017774
0.010011256
0.010011931
0.010019972
0.010017031
0.010041176
0.036044362
0.025538842
0.015840334
0.01441183
0.01304488
0.012478149
0.012035565
0.011766246
0.011564274
0.011422065
0.011312866
0.01122975
0.011163999
0.011111571
0.011068856
0.011033623
0.011004088
0.010978983
0.010957326
0.010938369
0.010921532
0.010906355
0.010892478
0.010879612
0.01086752
0.010856019
0.01084496
0.010834222
0.010823713
0.010813356
0.010803093
0.010792875
0.010782669
0.010772447
0.010762187
0.010751872
0.010741487
0.010731022
0.01072046
0.01070979
0.010698997
0.010688063
0.01067697
0.010665698
0.010654223
0.01064252
0.01063056
0.01061831
0.010605734
0.010592791
0.010579438
0.010565623
0.010551292
0.010536383
0.010520825
0.010504541
0.01048744
0.010469417
0.010450348
0.010430085
0.01040847
0.01038532
0.010360415
0.010333487
0.0103042
0.010272099
0.010236524
0.010196413
0.010153847
0.010117422
0.010086529
0.01006081
0.01004012
0.010024675
0.010014351
0.010008376
0.010009781
0.010016035
0.010015427
0.010036215
0.033387255
0.024671999
0.015495185
0.014062321
0.012882172
0.012333479
0.011935443
0.011690267
0.011507857
0.011378759
0.011280082
0.011204856
0.011145442
0.011098015
0.011059339
0.011027342
0.011000406
0.010977367
0.01095733
0.010939614
0.010923691
0.010909147
0.010895661
0.010882974
0.010870881
0.010859223
0.010847876
0.010836741
0.010825744
0.010814827
0.010803948
0.010793074
0.010782182
0.010771257
0.010760284
0.010749255
0.010738161
0.010726994
0.010715745
0.010704404
0.010692958
0.01068139
0.010669684
0.010657819
0.01064577
0.010633513
0.010621017
0.01060825
0.010595174
0.01058175
0.010567932
0.010553669
0.010538908
0.010523586
0.010507636
0.01049098
0.010473531
0.010455189
0.010435835
0.01041533
0.010393525
0.010370248
0.010345294
0.01031842
0.010289327
0.010257636
0.010222833
0.010184147
0.010143518
0.010108868
0.010079568
0.010055206
0.01003563
0.010021018
0.010011114
0.010005728
0.010007391
0.010011754
0.010013873
0.010032074
0.031018999
0.02374968
0.015167777
0.013745186
0.012708763
0.012202901
0.01184568
0.011623059
0.011458807
0.011342037
0.011253173
0.011185327
0.011131803
0.011088984
0.011053974
0.011024859
0.01100018
0.010978869
0.010960121
0.010943317
0.010927989
0.010913766
0.010900367
0.010887571
0.010875204
0.010863138
0.010851271
0.010839529
0.010827858
0.01081622
0.010804587
0.010792942
0.010781272
0.010769571
0.010757832
0.010746052
0.010734226
0.01072235
0.010710415
0.010698413
0.010686331
0.010674153
0.010661861
0.010649432
0.010636843
0.010624066
0.01061107
0.010597822
0.010584283
0.010570412
0.010556163
0.010541487
0.010526329
0.010510628
0.010494317
0.010477321
0.010459556
0.010440926
0.01042132
0.010400607
0.010378646
0.010355278
0.010330312
0.010303524
0.01027465
0.010243365
0.010209257
0.010171763
0.010133153
0.010100351
0.010072711
0.010049779
0.010031393
0.010017628
0.010008165
0.010003328
0.010004973
0.010008017
0.010012219
0.010028454
0.028901136
0.022741946
0.01485611
0.013459736
0.012543097
0.012085979
0.01176613
0.011564597
0.011417178
0.011311958
0.011232225
0.011171238
0.011123106
0.011084447
0.011052671
0.011026023
0.01100319
0.010983207
0.010965354
0.010949081
0.010933976
0.010919721
0.010906076
0.010892861
0.010879939
0.010867209
0.010854599
0.010842058
0.010829552
0.01081706
0.010804569
0.010792073
0.010779569
0.010767055
0.010754532
0.010741998
0.01072945
0.010716884
0.010704292
0.010691664
0.010678986
0.010666241
0.010653408
0.010640463
0.010627379
0.010614129
0.01060068
0.010586996
0.010573038
0.010558763
0.010544127
0.010529078
0.010513563
0.010497521
0.010480887
0.010463588
0.010445545
0.010426665
0.010406844
0.010385961
0.010363884
0.010340466
0.010315531
0.010288875
0.010260256
0.010229392
0.010195943
0.010159479
0.010122935
0.010092016
0.010066069
0.010044615
0.010027467
0.010014566
0.010005595
0.010001219
0.010002557
0.01000469
0.010010292
0.010025165
0.027001478
0.021616832
0.01455701
0.013204598
0.012394825
0.011982427
0.011696728
0.011514802
0.011382974
0.011288594
0.011217285
0.011162575
0.011119274
0.011084252
0.011055198
0.011030518
0.011009043
0.010989912
0.010972495
0.010956315
0.010941021
0.010926352
0.010912117
0.010898175
0.010884426
0.010870802
0.010857257
0.010843763
0.010830303
0.01081687
0.010803464
0.010790084
0.010776734
0.010763416
0.010750131
0.010736877
0.010723651
0.010710445
0.01069725
0.010684053
0.010670839
0.010657587
0.010644273
0.010630871
0.010617353
0.010603687
0.010589838
0.010575771
0.010561445
0.010546817
0.01053184
0.010516465
0.010500637
0.010484299
0.010467385
0.010449826
0.010431546
0.010412457
0.010392464
0.010371452
0.010349304
0.010325882
0.010301026
0.01027455
0.010246235
0.010215828
0.010183035
0.010147514
0.010113045
0.010084004
0.010059746
0.010039787
0.010023891
0.010011866
0.010003456
0.0099994632
0.01000028
0.010001705
0.010008179
0.010022153
0.025294145
0.020341766
0.014263599
0.01297811
0.012263265
0.011891947
0.011637504
0.011473754
0.011356327
0.011271996
0.011208329
0.011159216
0.011120081
0.011088063
0.01106111
0.011037797
0.011017101
0.010998272
0.010980773
0.01096421
0.010948299
0.010932837
0.01091768
0.010902733
0.010887931
0.010873234
0.010858621
0.010844081
0.010829611
0.010815213
0.010800893
0.010786653
0.010772498
0.010758429
0.010744444
0.010730541
0.010716711
0.010702943
0.010689224
0.010675536
0.010661862
0.010648176
0.010634453
0.010620664
0.010606776
0.010592757
0.010578571
0.01056418
0.010549542
0.010534614
0.010519349
0.010503698
0.010487606
0.010471018
0.010453871
0.010436099
0.010417627
0.010398376
0.010378254
0.01035716
0.010334985
0.010311606
0.010286879
0.010260636
0.01023268
0.010202782
0.010170677
0.010136072
0.010103653
0.01007645
0.010053841
0.010035351
0.010020688
0.010009545
0.010001759
0.0099980855
0.0099982901
0.0099992047
0.010006224
0.010019213
0.02376011
0.019090414
0.013962917
0.012778745
0.012147604
0.011814041
0.011587801
0.011441458
0.011337248
0.011262055
0.01120513
0.011160792
0.011125015
0.011095229
0.011069634
0.011046986
0.011026409
0.011007282
0.010989164
0.010971744
0.01095481
0.010938217
0.01092187
0.010905712
0.01088971
0.010873847
0.010858116
0.01084252
0.010827061
0.010811744
0.010796575
0.010781555
0.010766685
0.010751961
0.010737377
0.010722925
0.01070859
0.010694359
0.010680211
0.010666125
0.010652078
0.010638042
0.010623989
0.010609887
0.010595702
0.010581398
0.010566939
0.010552285
0.010537394
0.010522223
0.010506724
0.01049085
0.010474547
0.01045776
0.01044043
0.010422492
0.010403877
0.010384511
0.01036431
0.01034318
0.010321024
0.010297734
0.010273183
0.010247224
0.010219684
0.010190357
0.010159
0.010125337
0.010094915
0.010069478
0.010048441
0.01003135
0.010017861
0.010007596
0.010000454
0.009997024
0.0099966811
0.009997343
0.010004277
0.010016188
0.022382712
0.018031071
0.013646897
0.012605716
0.012047714
0.011747867
0.011548072
0.011417938
0.01132558
0.011258395
0.011207115
0.011166534
0.011133141
0.011104671
0.011079582
0.011056828
0.011035687
0.011015664
0.010996422
0.010977735
0.010959458
0.010941499
0.010923804
0.010906344
0.010889108
0.010872091
0.010855295
0.010838723
0.010822377
0.010806258
0.010790365
0.010774695
0.01075924
0.01074399
0.010728934
0.010714054
0.010699332
0.010684747
0.010670274
0.010655889
0.010641562
0.010627264
0.010612963
0.010598626
0.010584216
0.010569696
0.010555029
0.010540175
0.010525091
0.010509734
0.010494058
0.010478015
0.010461554
0.010444621
0.010427159
0.010409108
0.010390402
0.010370971
0.010350739
0.010329622
0.010307532
0.010284375
0.010260042
0.010234409
0.01020733
0.010178632
0.010148098
0.01011546
0.010086956
0.010063193
0.010043625
0.010027822
0.010015411
0.010005986
0.00999946
0.0099962123
0.0099955069
0.0099960723
0.01000219
0.010012868
0.021139218
0.017124859
0.013365608
0.012453268
0.01196167
0.011693433
0.011518045
0.011402577
0.011320541
0.011260034
0.011213105
0.011175088
0.011142965
0.011114801
0.011089332
0.011065708
0.011043369
0.011021944
0.011001196
0.010980974
0.010961188
0.010941784
0.010922733
0.010904024
0.01088565
0.010867609
0.010849897
0.010832512
0.010815449
0.0107987
0.010782254
0.010766099
0.010750218
0.010734593
0.010719205
0.010704031
0.010689045
0.010674221
0.010659532
0.010644946
0.010630433
0.01061596
0.010601493
0.010586996
0.010572433
0.010557766
0.010542956
0.010527963
0.010512746
0.010497262
0.010481464
0.010465308
0.010448742
0.010431717
0.010414178
0.010396067
0.010377323
0.010357881
0.01033767
0.010316614
0.010294637
0.010271654
0.010247573
0.010222292
0.010195696
0.010167652
0.010138004
0.010106559
0.010079873
0.010057684
0.010039473
0.010024829
0.010013367
0.010004698
0.009998747
0.0099956712
0.0099945901
0.0099946917
0.0099999051
0.010008915
0.020010206
0.016324834
0.013115852
0.012316033
0.011888117
0.011650927
0.011497137
0.011394503
0.011320891
0.011265416
0.011221299
0.011184478
0.011152425
0.011123568
0.011096901
0.011071773
0.011047773
0.011024643
0.011002222
0.010980413
0.010959157
0.010938417
0.010918172
0.010898409
0.010879114
0.010860275
0.010841878
0.010823907
0.010806346
0.010789174
0.010772371
0.010755913
0.010739776
0.010723933
0.010708358
0.010693022
0.010677895
0.010662945
0.010648143
0.010633453
0.010618843
0.010604278
0.010589722
0.010575139
0.010560492
0.010545743
0.010530854
0.010515784
0.010500492
0.010484937
0.010469075
0.01045286
0.010436246
0.010419184
0.010401621
0.010383505
0.010364778
0.010345379
0.010325244
0.010304303
0.010282487
0.010259722
0.010235926
0.010211014
0.01018489
0.010157452
0.010128585
0.010098719
0.010073725
0.010052999
0.010036043
0.010022445
0.010011813
0.010003794
0.009998327
0.0099953821
0.0099940323
0.0099938611
0.0099980604
0.010005069
0.01898593
0.015600274
0.012897659
0.012198069
0.011828291
0.011619317
0.011483909
0.011391769
0.011324331
0.011271975
0.011229006
0.011192017
0.011158961
0.011128604
0.01110018
0.01107321
0.011047398
0.01102256
0.010998579
0.010975378
0.010952905
0.01093112
0.010909988
0.01088948
0.010869569
0.010850225
0.010831418
0.010813119
0.010795298
0.010777922
0.010760961
0.010744383
0.010728155
0.010712246
0.010696621
0.010681248
0.010666093
0.010651123
0.010636304
0.0106216
0.010606976
0.010592396
0.010577824
0.010563224
0.010548559
0.010533792
0.010518883
0.010503794
0.010488486
0.010472917
0.010457045
0.010440828
0.01042422
0.010407176
0.010389646
0.010371581
0.010352926
0.010333628
0.010313625
0.010292854
0.010271254
0.010248758
0.010225292
0.010200781
0.010175142
0.010148284
0.01012011
0.010091996
0.010068531
0.010049132
0.010033312
0.01002066
0.010010779
0.010003349
0.0099982922
0.0099954384
0.0099939616
0.0099937745
0.0099971837
0.010002748
0.018060765
0.014936586
0.01270828
0.012098883
0.011779911
0.011595762
0.011475263
0.011390907
0.011327283
0.011276155
0.011232857
0.011194633
0.011159881
0.011127645
0.011097345
0.011068614
0.011041218
0.011014999
0.010989846
0.010965671
0.010942406
0.01091999
0.010898368
0.010877489
0.010857306
0.010837771
0.01081884
0.010800471
0.010782621
0.01076525
0.010748319
0.010731789
0.010715623
0.010699783
0.010684233
0.010668937
0.010653859
0.010638963
0.010624214
0.010609577
0.010595014
0.010580492
0.010565973
0.010551422
0.010536802
0.010522076
0.010507207
0.010492158
0.010476889
0.010461362
0.010445537
0.010429373
0.010412827
0.010395856
0.010378415
0.010360457
0.010341932
0.01032279
0.010302976
0.010282433
0.010261105
0.010238933
0.010215853
0.010191797
0.010166694
0.010140466
0.010113031
0.010086441
0.010064305
0.010046058
0.010031225
0.01001939
0.010010164
0.010003256
0.0099985481
0.0099957724
0.0099942465
0.0099940829
0.0099968447
0.010001138
0.017234208
0.014375618
0.012546113
0.01201544
0.011739849
0.01157616
0.01146667
0.01138723
0.011325214
0.011273794
0.011229224
0.011189314
0.0111528
0.011118907
0.011087145
0.011057186
0.011028797
0.011001807
0.010976078
0.010951497
0.010927966
0.0109054
0.010883721
0.010862858
0.010842748
0.010823329
0.010804545
0.010786346
0.010768681
0.010751504
0.01073477
0.010718439
0.010702468
0.010686819
0.010671454
0.010656335
0.010641426
0.01062669
0.010612091
0.010597595
0.010583166
0.010568768
0.010554367
0.010539927
0.010525412
0.010510787
0.010496016
0.010481063
0.010465891
0.010450462
0.010434739
0.010418683
0.010402255
0.010385413
0.010368115
0.010350318
0.010331978
0.010313046
0.010293475
0.010273212
0.010252207
0.010230408
0.010207758
0.010184199
0.01015967
0.010134104
0.010107432
0.010082105
0.01006107
0.010043777
0.010029758
0.010018594
0.010009912
0.010003436
0.009999005
0.0099963007
0.0099947934
0.0099946807
0.0099969308
0.010000247
0.016522042
0.013922053
0.01240879
0.011942916
0.01170205
0.01155402
0.011451911
0.01137519
0.011313548
0.011261393
0.011215661
0.011174551
0.011136985
0.011102271
0.011069925
0.011039594
0.011011016
0.010983984
0.01095833
0.010933914
0.010910617
0.010888333
0.010866972
0.010846451
0.010826696
0.010807637
0.010789214
0.01077137
0.010754051
0.01073721
0.010720801
0.010704779
0.010689105
0.010673738
0.010658641
0.010643776
0.010629107
0.010614598
0.010600215
0.010585922
0.010571685
0.010557471
0.010543243
0.01052897
0.010514615
0.010500146
0.010485527
0.010470724
0.010455703
0.010440427
0.01042486
0.010408967
0.010392709
0.010376049
0.010358948
0.010341366
0.010323261
0.01030459
0.010285309
0.010265373
0.010244734
0.010223348
0.010201165
0.010178133
0.010154198
0.010129304
0.010103389
0.010079031
0.01005884
0.010042275
0.010028871
0.010018216
0.010009946
0.010003795
0.0099995599
0.0099969043
0.0099954283
0.0099953232
0.0099971127
0.0099996434
0.015817772
0.013517806
0.012271159
0.011862402
0.01165043
0.011516172
0.011420847
0.0113474
0.011287299
0.011235864
0.011190467
0.011149516
0.011112012
0.011077546
0.011045626
0.011015847
0.010987898
0.010961539
0.010936578
0.010912857
0.010890247
0.010868639
0.010847939
0.010828061
0.010808926
0.010790462
0.010772607
0.010755303
0.010738498
0.010722143
0.010706194
0.010690608
0.010675345
0.010660367
0.010645639
0.010631123
0.010616785
0.01060259
0.010588505
0.010574496
0.010560531
0.010546576
0.010532598
0.010518566
0.010504445
0.010490204
0.010475809
0.010461227
0.010446425
0.01043137
0.010416027
0.010400362
0.010384341
0.010367926
0.010351083
0.010333774
0.01031596
0.010297603
0.010278662
0.010259095
0.010238863
0.010217924
0.010196235
0.010173752
0.01015043
0.01012622
0.010101074
0.010077344
0.010057698
0.010041602
0.010028589
0.01001825
0.010010236
0.010004278
0.010000139
0.0099974934
0.0099960572
0.009995996
0.009997497
0.0099995127
0.01448063
0.012847502
0.01201562
0.011701676
0.011530707
0.011419242
0.011338289
0.011274902
0.011222574
0.01117767
0.011138078
0.011102479
0.011070012
0.011039822
0.011011484
0.010984725
0.010959333
0.010935145
0.010912024
0.01088986
0.010868556
0.010848032
0.010828279
0.010809295
0.010791
0.010773322
0.010756202
0.010739582
0.010723415
0.010707654
0.010692257
0.010677186
0.010662404
0.010647876
0.010633568
0.010619447
0.010605481
0.010591641
0.010577894
0.01056421
0.010550557
0.010536903
0.010523217
0.010509468
0.010495625
0.010481657
0.010467532
0.010453219
0.010438685
0.010423899
0.010408829
0.010393442
0.010377704
0.010361581
0.01034504
0.010328046
0.010310561
0.010292551
0.010273976
0.010254799
0.010234982
0.010214487
0.010193275
0.010171307
0.01014854
0.010124934
0.010100445
0.010077016
0.010057627
0.010041742
0.010028891
0.010018667
0.010010724
0.010004782
0.01000058
0.0099978289
0.0099963318
0.0099961258
0.0099971179
0.0099985859
0.014031379
0.012626473
0.011865232
0.011587492
0.011436717
0.01133877
0.011267309
0.011211057
0.011164187
0.011123568
0.011087389
0.011054549
0.011024338
0.010996277
0.010970039
0.010945377
0.010922098
0.010900042
0.010879073
0.010859074
0.010839944
0.010821588
0.010803868
0.010786656
0.010769915
0.010753608
0.010737701
0.010722162
0.010706958
0.010692061
0.01067744
0.010663069
0.01064892
0.010634965
0.010621179
0.010607534
0.010594006
0.010580599
0.010567279
0.010554015
0.010540774
0.010527525
0.010514238
0.010500883
0.010487427
0.010473843
0.010460098
0.010446164
0.010432008
0.010417601
0.010402912
0.010387908
0.010372558
0.01035683
0.010340691
0.010324107
0.010307043
0.010289466
0.010271338
0.010252623
0.010233285
0.010213287
0.010192593
0.010171165
0.010148964
0.010125949
0.01010208
0.010078384
0.010058783
0.01004274
0.010029769
0.010019449
0.010011424
0.010005391
0.010001076
0.0099982207
0.0099966486
0.0099962798
0.009996931
0.0099982039
0.013586756
0.012398964
0.011681943
0.011443502
0.011316048
0.011235789
0.01117741
0.011131439
0.01109278
0.011058895
0.011028337
0.011000272
0.010974176
0.010949698
0.010926592
0.010904669
0.010883785
0.010863822
0.010844682
0.010826286
0.010808563
0.010791456
0.010774909
0.010758877
0.01074332
0.010728202
0.010713486
0.010699139
0.010685127
0.010671418
0.010657981
0.010644784
0.010631799
0.010618995
0.010606344
0.010593816
0.010581384
0.010568987
0.010556601
0.010544203
0.010531771
0.010519281
0.010506708
0.010494028
0.010481216
0.010468245
0.010455091
0.010441725
0.010428121
0.010414252
0.010400089
0.010385604
0.010370767
0.010355548
0.010339916
0.010323841
0.010307289
0.010290227
0.010272622
0.010254438
0.010235639
0.010216192
0.010196061
0.010175209
0.010153598
0.010131191
0.010107946
0.010083824
0.010063382
0.010046622
0.010033038
0.010022192
0.010013711
0.010007271
0.010002588
0.0099994155
0.0099975607
0.009996866
0.009997145
0.009998205
55.660846
101.08307
60.612199
41.090307
28.530745
19.933384
14.085973
10.084478
7.2802566
5.2751847
3.8204069
2.76398
1.9907931
1.4311254
1.0195759
0.72240891
0.50728419
0.35381307
0.24585265
0.17037195
0.11802534
0.082105112
0.057748521
0.041435201
0.030659367
0.023636782
0.019126677
0.016267087
0.01447463
0.013361149
0.01267232
0.01224477
0.011975622
0.011801321
0.011683401
0.011599037
0.011534937
0.011483476
0.011440308
0.011402965
0.011369987
0.011340479
0.01131386
0.011289681
0.011267573
0.011247133
0.011227381
0.011203295
0.011168937
0.011124444
0.011073862
0.011021654
0.010970739
0.010923065
0.010878853
0.010838409
0.010802171
0.010771145
0.010743242
0.010718255
0.010691269
0.010665309
0.010631053
0.010598662