/*--------------------------------*- C++ -*----------------------------------*\
  =========                 |
  \\      /  F ield         | OpenFOAM: The Open Source CFD Toolbox
   \\    /   O peration     | Website:  https://openfoam.org
    \\  /    A nd           | Version:  6
     \\/     M anipulation  |
\*---------------------------------------------------------------------------*/
FoamFile
{
    version     2.0;
    format      ascii;
    class       volScalarField;
    location    "850";
    object      nut;
}
// * * * * * * * * * * * * * * * * * * * * * * * * * * * * * * * * * * * * * //

dimensions      [0 2 -1 0 0 0 0];

internalField   nonuniform List<scalar> 
16000
(
5.2050801e-06
2.1294932e-05
2.324285e-05
3.3065814e-05
2.8470313e-05
3.663899e-05
3.6181898e-05
4.0822697e-05
4.2184755e-05
4.2252839e-05
4.2971771e-05
4.1574868e-05
4.1733449e-05
4.0622049e-05
4.0637394e-05
4.0104637e-05
4.0260052e-05
4.0273214e-05
4.0675864e-05
4.1117116e-05
4.1816509e-05
4.2641332e-05
4.3682052e-05
4.489978e-05
4.6340564e-05
4.800797e-05
4.9939078e-05
5.2161421e-05
5.4719785e-05
5.7663326e-05
6.105599e-05
6.497472e-05
6.9514926e-05
7.4792973e-05
8.0952221e-05
8.8168585e-05
9.6658378e-05
0.00010668754
0.00011858321
0.00013274749
0.00014967474
0.00016997428
0.0001943945
0.0002238531
0.00025947329
0.0003026252
0.00035497016
0.00041850971
0.00049563383
0.00058916416
0.00070238578
0.00083907993
0.001003591
0.0010409479
0.0010420342
0.0010422506
0.0010418403
0.0010410815
0.0010401598
0.0010391015
0.0010377877
0.0010362535
0.0010344353
0.0010322588
0.0010296725
0.0010267011
0.0010234703
0.0010202799
0.0010173211
0.0010147679
0.0010124168
0.0010106143
0.0010086995
0.001007553
0.0010059729
0.0010064158
0.0010049687
0.0010094982
0.0010043148
0.0010084014
4.3332547e-06
2.1059103e-05
2.1307116e-05
3.0228664e-05
2.6291969e-05
3.3030701e-05
3.3318576e-05
3.6471812e-05
3.8485057e-05
3.764144e-05
3.8741585e-05
3.6990755e-05
3.7306872e-05
3.6072638e-05
3.6152926e-05
3.5620631e-05
3.5783641e-05
3.577815e-05
3.6142897e-05
3.6531382e-05
3.7154882e-05
3.7888134e-05
3.8813866e-05
3.9896732e-05
4.1177166e-05
4.2658561e-05
4.437311e-05
4.634531e-05
4.8614178e-05
5.1222928e-05
5.4227403e-05
5.7694979e-05
6.1709129e-05
6.6371529e-05
7.1807358e-05
7.8170114e-05
8.5648325e-05
9.4473478e-05
0.00010492996
0.00011736681
0.00013221202
0.00014999252
0.00017135458
0.00019708937
0.00022816421
0.00026575902
0.00031130572
0.0003665335
0.00043351697
0.00051472405
0.00061306252
0.00073192236
0.00087524635
0.0010395896
0.0010408899
0.0010412478
0.0010409007
0.0010401545
0.0010392371
0.0010382141
0.0010370582
0.0010356715
0.0010339962
0.0010319532
0.0010294822
0.0010265833
0.0010233748
0.0010201523
0.0010171765
0.0010145736
0.0010122438
0.0010103581
0.0010085626
0.0010074278
0.0010058471
0.0010058942
0.0010046145
0.0010086094
0.0010041006
0.0010082015
3.7004915e-06
2.0818927e-05
1.9787215e-05
2.7802743e-05
2.4555311e-05
2.9950652e-05
3.1140325e-05
3.2629147e-05
3.5311583e-05
3.3429669e-05
3.4864474e-05
3.2760801e-05
3.3205376e-05
3.1929808e-05
3.2072542e-05
3.1561684e-05
3.1730719e-05
3.1723436e-05
3.2059183e-05
3.2412404e-05
3.2976443e-05
3.3639488e-05
3.4473709e-05
3.5449426e-05
3.6601049e-05
3.7932902e-05
3.9472836e-05
4.124328e-05
4.3278619e-05
4.5617482e-05
4.8309354e-05
5.1414113e-05
5.5005836e-05
5.9174736e-05
6.4031751e-05
6.9712885e-05
7.6384956e-05
8.4252693e-05
9.3567304e-05
0.00010463662
0.00011783722
0.0001336322
0.00015258866
0.00017539962
0.00020291101
0.00023615388
0.00027637918
0.00032509824
0.00038412854
0.00045564087
0.00054221017
0.00064686557
0.00077315501
0.00092524383
0.0010397372
0.0010402513
0.001039976
0.001039241
0.0010383174
0.0010372935
0.0010361575
0.0010348783
0.0010333763
0.0010314953
0.0010291668
0.0010263698
0.0010232032
0.0010199679
0.0010169769
0.0010143495
0.0010120278
0.0010101018
0.0010083669
0.0010072494
0.0010057191
0.0010055174
0.0010043629
0.0010078347
0.0010038707
0.0010075238
3.2929119e-06
2.0497584e-05
1.8503702e-05
2.5528825e-05
2.2921216e-05
2.7132126e-05
2.9019222e-05
2.9186199e-05
3.2224338e-05
2.9667768e-05
3.1218103e-05
2.8962373e-05
2.9461142e-05
2.8259126e-05
2.8416881e-05
2.7958135e-05
2.8119575e-05
2.812457e-05
2.843274e-05
2.8761713e-05
2.9275358e-05
2.9881302e-05
3.0638583e-05
3.152461e-05
3.2567719e-05
3.3773605e-05
3.5166321e-05
3.6766787e-05
3.8605621e-05
4.0717784e-05
4.3147611e-05
4.5948989e-05
4.9188439e-05
5.2947029e-05
5.732433e-05
6.2442433e-05
6.845103e-05
7.5533662e-05
8.3915618e-05
9.3872709e-05
0.00010574146
0.00011993574
0.0001369619
0.00015743799
0.00018211747
0.00021191864
0.00024795552
0.00029157468
0.00034439839
0.00040837014
0.0004858066
0.00057945218
0.00069254155
0.00082889156
0.00099301395
0.0010392558
0.0010390643
0.0010383423
0.0010374087
0.0010363766
0.0010352383
0.0010339725
0.0010325415
0.0010308563
0.0010287034
0.0010260421
0.0010229442
0.0010197146
0.0010167176
0.0010140814
0.0010117695
0.0010098223
0.0010081324
0.0010069381
0.0010055805
0.001005273
0.0010041424
0.0010070029
0.0010036597
0.0010070402
2.9566417e-06
2.0061739e-05
1.7466929e-05
2.3418165e-05
2.1417695e-05
2.4555189e-05
2.7018478e-05
2.6067937e-05
2.9256377e-05
2.6254743e-05
2.7790937e-05
2.5574277e-05
2.6057466e-05
2.4972908e-05
2.5121154e-05
2.4729381e-05
2.4878419e-05
2.4902941e-05
2.5187273e-05
2.5499454e-05
2.5971147e-05
2.6530223e-05
2.7222937e-05
2.8033552e-05
2.8984957e-05
3.0084205e-05
3.1352191e-05
3.2808585e-05
3.4480949e-05
3.6401236e-05
3.8609554e-05
4.1154858e-05
4.4097514e-05
4.7511085e-05
5.148589e-05
5.6132736e-05
6.1587438e-05
6.8016425e-05
7.5624108e-05
8.4660867e-05
9.5431243e-05
0.00010831005
0.00012375571
0.00014232747
0.00016470639
0.00019172299
0.00022438491
0.00026391104
0.00031177224
0.00036973486
0.0004399126
0.00052482259
0.00062745035
0.00075133225
0.00090067353
0.0010382524
0.0010381605
0.0010374549
0.0010365088
0.0010354649
0.0010343187
0.0010330519
0.0010316365
0.0010300209
0.00102808
0.0010255919
0.0010225939
0.0010193897
0.0010163983
0.0010137673
0.0010114698
0.0010095192
0.0010078652
0.001006625
0.0010054074
0.0010050198
0.0010039482
0.0010062359
0.0010034579
0.0010063545
2.6712243e-06
1.7329681e-05
1.6544252e-05
2.1422323e-05
2.0051849e-05
2.2173187e-05
2.5130131e-05
2.3231609e-05
2.6420747e-05
2.3189456e-05
2.460846e-05
2.2572158e-05
2.2995551e-05
2.2051433e-05
2.2175778e-05
2.1856089e-05
2.1990961e-05
2.2037624e-05
2.2301947e-05
2.2602181e-05
2.3039336e-05
2.3559954e-05
2.4198988e-05
2.494668e-05
2.5821438e-05
2.6831398e-05
2.7994935e-05
2.9330666e-05
3.0863706e-05
3.2623541e-05
3.4646846e-05
3.6978546e-05
3.9674007e-05
4.2800698e-05
4.6441452e-05
5.0697896e-05
5.5694695e-05
6.1584522e-05
6.8554883e-05
7.6836016e-05
8.6706863e-05
9.8510992e-05
0.00011266876
0.00012969284
0.00015020672
0.00017497138
0.00020491028
0.0002411408
0.00028501341
0.00033815248
0.00040250742
0.0004804089
0.00057463438
0.0006884872
0.00082590813
0.00099159644
0.0010372597
0.0010365763
0.0010356157
0.0010345577
0.0010334004
0.0010321275
0.0010307154
0.0010291263
0.0010272867
0.0010250139
0.0010221517
0.0010189941
0.0010160206
0.0010134077
0.0010111313
0.0010091913
0.0010075682
0.0010063038
0.0010051955
0.0010047442
0.0010037664
0.0010055884
0.0010032715
0.0010058347
2.4044734e-06
1.6404187e-05
1.5433638e-05
1.9535073e-05
1.8813109e-05
1.9985513e-05
2.3325891e-05
2.0653212e-05
2.3715987e-05
2.0489582e-05
2.172045e-05
1.9913707e-05
2.02523e-05
1.9454622e-05
1.954856e-05
1.9298636e-05
1.9419795e-05
1.9487832e-05
1.9735689e-05
2.0026751e-05
2.0435395e-05
2.0923932e-05
2.1518124e-05
2.2212952e-05
2.3023359e-05
2.3958198e-05
2.5033897e-05
2.6268143e-05
2.7684062e-05
2.9309132e-05
3.1177205e-05
3.3329851e-05
3.5818388e-05
3.8705277e-05
4.2067214e-05
4.5998392e-05
5.0614384e-05
5.6056691e-05
6.249908e-05
7.0155724e-05
7.928486e-05
9.020494e-05
0.00010330576
0.00011906288
0.00013805369
0.00016098366
0.00018870927
0.00022226689
0.00026291088
0.00031215196
0.00037180698
0.0004440549
0.00053150177
0.00063725957
0.00076504806
0.00091932389
0.0010363558
0.0010357036
0.0010347273
0.0010336531
0.0010324826
0.0010312004
0.0010297859
0.0010282081
0.0010264143
0.0010242998
0.0010216156
0.001018528
0.0010155856
0.001013003
0.0010107559
0.0010088381
0.0010072441
0.0010059763
0.0010049479
0.0010044033
0.0010035862
0.0010050165
0.0010030847
0.0010052888
2.1720889e-06
1.592352e-05
1.4387492e-05
1.7767979e-05
1.7669128e-05
1.7954916e-05
2.1545126e-05
1.8338561e-05
2.111189e-05
1.8092314e-05
1.9098919e-05
1.7546933e-05
1.7794038e-05
1.7139495e-05
1.720459e-05
1.7019547e-05
1.7130439e-05
1.7218656e-05
1.7454438e-05
1.7738902e-05
1.8124937e-05
1.8587277e-05
1.9144719e-05
1.9795772e-05
2.0552779e-05
2.1425105e-05
2.2427641e-05
2.3577259e-05
2.4895513e-05
2.6408205e-05
2.8146943e-05
3.0150473e-05
3.2466854e-05
3.515446e-05
3.8284959e-05
4.1946526e-05
4.6247352e-05
5.1319913e-05
5.7326681e-05
6.4469178e-05
7.2988822e-05
8.3183803e-05
9.5419245e-05
0.00011014113
0.00012788955
0.00014932532
0.00017525123
0.00020663833
0.00024466363
0.00029074566
0.00034659349
0.00041426145
0.00049621359
0.00059540175
0.00071536165
0.00086034175
0.00103543
0.0010348341
0.0010338415
0.0010327496
0.0010315642
0.0010302709
0.0010288509
0.0010272774
0.0010255082
0.0010234667
0.0010209859
0.0010179946
0.0010150963
0.0010125559
0.0010103473
0.0010084618
0.0010068977
0.0010056423
0.0010046749
0.0010040586
0.0010033994
0.0010044687
0.001002888
0.0010047885
1.9708614e-06
1.5396532e-05
1.3411287e-05
1.6087851e-05
1.6598907e-05
1.6040034e-05
1.9752284e-05
1.6263468e-05
1.8634448e-05
1.5949695e-05
1.6726422e-05
1.5431641e-05
1.5593651e-05
1.5071602e-05
1.5113944e-05
1.4987082e-05
1.5092303e-05
1.5199011e-05
1.5427017e-05
1.5707073e-05
1.6075708e-05
1.6517019e-05
1.7044719e-05
1.7659897e-05
1.8373009e-05
1.9193656e-05
2.0135645e-05
2.1215084e-05
2.2452291e-05
2.3871705e-05
2.5503098e-05
2.7382912e-05
2.9556532e-05
3.2079022e-05
3.5017991e-05
3.8456666e-05
4.2497324e-05
4.7265217e-05
5.2913334e-05
5.9633526e-05
6.7653466e-05
7.7254998e-05
8.8783304e-05
0.00010266089
0.00011939761
0.00013961834
0.00016408286
0.00019370939
0.00022961274
0.000273137
0.00032590362
0.00038986509
0.00046736861
0.00056123308
0.00067484338
0.0008122738
0.00097842162
0.0010339651
0.0010329563
0.0010318459
0.0010306446
0.001029339
0.0010279117
0.0010263392
0.0010245863
0.0010225956
0.0010202624
0.0010173978
0.0010145565
0.0010120697
0.0010099093
0.0010080651
0.0010065343
0.0010053037
0.0010043828
0.0010037297
0.0010032047
0.0010039512
0.0010026868
0.001004285
1.7962575e-06
1.4798076e-05
1.2499542e-05
1.4480909e-05
1.5587951e-05
1.4304408e-05
1.7931576e-05
1.439869e-05
1.6338428e-05
1.4030601e-05
1.4592598e-05
1.3539766e-05
1.3630214e-05
1.3225193e-05
1.3252571e-05
1.3176248e-05
1.3280344e-05
1.3403695e-05
1.3627689e-05
1.3905226e-05
1.4261036e-05
1.4685875e-05
1.5190001e-05
1.5776239e-05
1.6453784e-05
1.7232281e-05
1.8124734e-05
1.9146598e-05
2.0317206e-05
2.1659908e-05
2.3203003e-05
2.4981019e-05
2.7037207e-05
2.9423969e-05
3.2205634e-05
3.546141e-05
3.9288899e-05
4.3807672e-05
4.9162549e-05
5.5538406e-05
6.3151666e-05
7.2271016e-05
8.3225413e-05
9.6419226e-05
0.00011233762
0.00013157644
0.00015486136
0.0001830678
0.00021726079
0.00025872426
0.00030900871
0.00036998379
0.00044390095
0.00053346948
0.00064194959
0.00077327053
0.00093216667
0.001033094
0.0010320703
0.0010309409
0.0010297233
0.0010284047
0.0010269692
0.0010253957
0.001023654
0.0010216973
0.0010194448
0.0010167437
0.0010139717
0.0010115494
0.0010094468
0.0010076519
0.0010061594
0.0010049625
0.001004078
0.0010034169
0.0010030025
0.0010034746
0.0010024851
0.0010037855
1.6444468e-06
1.4104229e-05
1.1650559e-05
1.293561e-05
1.461101e-05
1.2732099e-05
1.6076217e-05
1.271774e-05
1.4232654e-05
1.2308479e-05
1.2683687e-05
1.1846981e-05
1.1882766e-05
1.157772e-05
1.1598191e-05
1.1565009e-05
1.1672086e-05
1.1810437e-05
1.1982565e-05
1.2251125e-05
1.259193e-05
1.2999393e-05
1.3480891e-05
1.4039931e-05
1.4684521e-05
1.5424032e-05
1.6270645e-05
1.7239065e-05
1.8347629e-05
1.9618655e-05
2.1079114e-05
2.2761676e-05
2.4707694e-05
2.6967154e-05
2.9601462e-05
3.2686245e-05
3.6314943e-05
4.0602581e-05
4.599135e-05
5.2089373e-05
5.9375195e-05
6.8107112e-05
7.860063e-05
9.1246736e-05
0.00010651044
0.00012496416
0.00014730707
0.00017437981
0.00020720816
0.0002470279
0.00029533258
0.00035392519
0.00042497977
0.00051111675
0.00061549465
0.00074192438
0.00089500638
0.0010322184
0.0010311823
0.0010300341
0.0010288002
0.0010274687
0.0010260247
0.0010244494
0.0010227167
0.0010207881
0.0010186005
0.0010160398
0.0010133485
0.0010110007
0.001008965
0.001007227
0.0010057789
0.001004622
0.0010037673
0.0010031195
0.0010027948
0.0010030521
0.0010022955
0.0010033413
1.5123275e-06
1.3303074e-05
1.0855855e-05
1.144313e-05
1.3630714e-05
1.1304169e-05
1.4204713e-05
1.1197003e-05
1.2320168e-05
1.0760153e-05
1.0983566e-05
1.033247e-05
1.0331248e-05
1.010984e-05
1.0082204e-05
1.0067602e-05
1.0170831e-05
1.0317334e-05
1.0537933e-05
1.0813565e-05
1.1153504e-05
1.155556e-05
1.2026015e-05
1.256933e-05
1.3193066e-05
1.3906635e-05
1.4721818e-05
1.5652914e-05
1.6717635e-05
1.7937644e-05
1.9339115e-05
2.0953283e-05
2.2820234e-05
2.4988294e-05
2.7516789e-05
3.0478728e-05
3.3964477e-05
3.8086734e-05
4.2980278e-05
4.8812032e-05
5.5786186e-05
6.415222e-05
7.4790625e-05
8.7005751e-05
0.00010175499
0.00011959165
0.00014119534
0.0001673782
0.00019913589
0.00023766622
0.00028441769
0.00034114049
0.00040994722
0.00049338757
0.00059453926
0.00071711926
0.00086562158
0.0010313359
0.0010302918
0.0010291252
0.0010278756
0.0010265317
0.0010250798
0.0010235026
0.0010217777
0.0010198733
0.0010177404
0.0010152952
0.0010126945
0.0010104303
0.0010084699
0.0010067956
0.0010053984
0.0010042856
0.0010034574
0.0010028363
0.001002581
0.0010026894
0.0010021153
0.0010029625
1.397923e-06
1.2392616e-05
1.0115705e-05
1.0087856e-05
1.2615261e-05
1.0003265e-05
1.2402772e-05
9.8174415e-06
1.0601166e-05
9.3672992e-06
9.4761022e-06
8.979622e-06
8.8867578e-06
8.7118576e-06
8.7273776e-06
8.7588058e-06
8.8817653e-06
9.0490136e-06
9.2792703e-06
9.5613517e-06
9.9016753e-06
1.0300229e-05
1.0762729e-05
1.1294286e-05
1.1902122e-05
1.2595671e-05
1.338642e-05
1.4288311e-05
1.5318543e-05
1.6498276e-05
1.7853216e-05
1.9413289e-05
2.1217697e-05
2.3313519e-05
2.5758546e-05
2.862375e-05
3.1996691e-05
3.5988454e-05
4.0730078e-05
4.6384557e-05
5.3151247e-05
6.1274171e-05
7.1053475e-05
8.2849278e-05
9.7103402e-05
0.0001153013
0.00013634062
0.00016184318
0.00019278268
0.00023032774
0.00027589212
0.00033118527
0.00039827233
0.00047964831
0.00057832866
0.00069795932
0.00084295438
0.00101865
0.0010293988
0.0010282148
0.0010269506
0.0010255954
0.0010241365
0.0010225581
0.0010208407
0.0010189578
0.0010168714
0.0010145203
0.0010120187
0.001009846
0.0010079679
0.0010063635
0.0010050233
0.0010039569
0.0010031541
0.0010025666
0.0010023575
0.0010023747
0.0010019467
0.0010026329
1.2990627e-06
1.1376978e-05
9.4231566e-06
8.8594376e-06
1.1532402e-05
8.8178297e-06
1.070196e-05
8.5666123e-06
9.0733928e-06
8.1169676e-06
8.0666776e-06
7.6580845e-06
7.6097095e-06
7.5123562e-06
7.5534494e-06
7.6217295e-06
7.7627738e-06
7.9474729e-06
8.1870646e-06
8.4754353e-06
8.8174397e-06
9.2144091e-06
9.6718083e-06
1.0195247e-05
1.079165e-05
1.1470471e-05
1.224299e-05
1.3122852e-05
1.4126818e-05
1.5275627e-05
1.6530701e-05
1.8036897e-05
1.9778987e-05
2.1802827e-05
2.41648e-05
2.6934076e-05
3.0368995e-05
3.4261599e-05
3.8888276e-05
4.4409253e-05
5.1020277e-05
5.8960145e-05
6.8525734e-05
8.0069236e-05
9.4024937e-05
0.00011092342
0.00013140278
0.00015759124
0.00018793086
0.0002247536
0.00026944741
0.00032369166
0.0003895164
0.00046937623
0.00056624078
0.00068370534
0.00082612735
0.0009987823
0.0010285041
0.0010273042
0.0010260268
0.0010246619
0.0010231975
0.0010216193
0.0010199099
0.0010180471
0.0010160008
0.0010137267
0.001011331
0.0010092558
0.0010074656
0.0010059366
0.0010046589
0.0010036402
0.001002863
0.0010023122
0.0010021237
0.0010020446
0.0010017854
0.0010023534
1.2145573e-06
1.0270161e-05
8.7701603e-06
7.7444573e-06
1.0351754e-05
7.7345594e-06
9.1262674e-06
7.4307558e-06
7.7280614e-06
6.8760255e-06
6.8106329e-06
6.5359823e-06
6.5114359e-06
6.4745549e-06
6.539809e-06
6.638013e-06
6.7957751e-06
6.9956194e-06
7.2444201e-06
7.539258e-06
7.8842577e-06
8.2815343e-06
8.7364582e-06
9.2326068e-06
9.8158723e-06
1.0478663e-05
1.1231851e-05
1.2088603e-05
1.306506e-05
1.4181184e-05
1.5461306e-05
1.6935307e-05
1.8639936e-05
2.0620456e-05
2.293263e-05
2.5645197e-05
2.8842843e-05
3.2629903e-05
3.7134784e-05
4.2515282e-05
4.8964172e-05
5.7145755e-05
6.656224e-05
7.7930288e-05
9.1677371e-05
0.00010832974
0.00012851644
0.00015300735
0.00018439327
0.00022072157
0.00026481925
0.00031834501
0.00038330484
0.00046212571
0.0005577462
0.00067372862
0.00081439444
0.0009849824
0.0010276093
0.0010263952
0.0010251065
0.0010237338
0.001022266
0.00102069
0.00101899
0.001017147
0.0010151369
0.0010129266
0.0010106416
0.0010086683
0.00100697
0.0010055208
0.0010043102
0.0010033402
0.0010025902
0.0010020746
0.0010018918
0.0010017492
0.0010016231
0.0010021071
1.1441231e-06
9.0854484e-06
8.1497238e-06
6.7336183e-06
9.110686e-06
6.7433255e-06
7.7052306e-06
6.3497652e-06
6.379824e-06
5.8039451e-06
5.7417869e-06
5.569208e-06
5.57015e-06
5.5806709e-06
5.6685966e-06
5.7916749e-06
5.9650211e-06
6.1784866e-06
6.4365683e-06
6.7382878e-06
7.0707531e-06
7.4655595e-06
7.9160191e-06
8.4277241e-06
9.0078433e-06
9.6651323e-06
1.0410436e-05
1.1256812e-05
1.2220139e-05
1.3320201e-05
1.4581077e-05
1.6032357e-05
1.7710477e-05
1.9660349e-05
2.1937351e-05
2.4609756e-05
2.7761669e-05
3.1496663e-05
3.5942221e-05
4.1255327e-05
4.7628952e-05
5.5296536e-05
6.4543633e-05
7.5715839e-05
8.9973727e-05
0.00010647547
0.0001264817
0.00015076015
0.00018023044
0.0002180346
0.00026177326
0.00031486629
0.00037930563
0.00045750207
0.00055237623
0.00066747324
0.00080709772
0.00097647404
0.0010267169
0.0010254907
0.001024193
0.0010228148
0.001021346
0.0010197745
0.001018086
0.0010162639
0.0010142879
0.0010121329
0.0010099614
0.001008092
0.0010064878
0.0010051214
0.0010039808
0.0010030611
0.0010023417
0.0010018566
0.0010016639
0.0010014812
0.0010014501
0.0010018829
1.0886537e-06
7.8336145e-06
7.5423009e-06
5.8159978e-06
7.8450413e-06
5.8132209e-06
6.9565461e-06
5.3203013e-06
5.2656203e-06
4.8824252e-06
4.8357011e-06
4.7395483e-06
4.7666173e-06
4.8152312e-06
4.9243473e-06
5.0687727e-06
5.2568647e-06
5.4830036e-06
5.7349876e-06
6.0403636e-06
6.391445e-06
6.7914675e-06
7.2451259e-06
7.7582219e-06
8.3379889e-06
8.9931593e-06
9.7345756e-06
1.057528e-05
1.1530865e-05
1.2621058e-05
1.38698e-05
1.5306549e-05
1.6967624e-05
1.8897837e-05
2.1152485e-05
2.3799764e-05
2.6923673e-05
3.0627523e-05
3.5038286e-05
4.0312221e-05
4.6643225e-05
5.4263709e-05
6.3459629e-05
7.45761e-05
8.8033278e-05
0.00010434173
0.00012518767
0.00014936866
0.000178726
0.00021436872
0.00026009139
0.00031299581
0.00037720951
0.00045513763
0.00054969389
0.00066442059
0.0008036225
0.00097253027
0.0010258303
0.0010245944
0.0010232899
0.0010219089
0.0010204418
0.0010188777
0.0010172035
0.0010154043
0.0010134627
0.0010113581
0.0010093009
0.0010075355
0.0010060255
0.001004743
0.0010036737
0.0010028051
0.0010021207
0.0010016624
0.0010014481
0.001001237
0.0010012712
0.0010016778
1.0526351e-06
6.5386516e-06
6.9175096e-06
4.9936979e-06
6.6162743e-06
5.5594641e-06
5.3671052e-06
4.3947766e-06
4.3492066e-06
4.0906117e-06
4.0694847e-06
4.0328515e-06
4.08531e-06
4.1655835e-06
4.2944788e-06
4.4576613e-06
4.6462568e-06
4.8809906e-06
5.1553191e-06
5.4703877e-06
5.8291527e-06
6.2352839e-06
6.693635e-06
7.2101341e-06
7.7920861e-06
8.4481272e-06
9.1891199e-06
1.0005933e-05
1.0952056e-05
1.2030027e-05
1.3263484e-05
1.4681585e-05
1.6320374e-05
1.8224401e-05
2.0448741e-05
2.3061391e-05
2.6146166e-05
2.9806104e-05
3.4167508e-05
3.9645435e-05
4.5962824e-05
5.3569909e-05
6.2754886e-05
7.3862628e-05
8.7313123e-05
0.00010361761
0.00012339616
0.00014870539
0.00017806483
0.00021371489
0.00025699471
0.00031247769
0.00037671104
0.0004546692
0.00054926718
0.00066405711
0.00080335887
0.00097242747
0.0010249539
0.0010237108
0.0010224023
0.0010210211
0.0010195586
0.0010180049
0.0010163483
0.0010145751
0.0010126697
0.0010106144
0.0010086704
0.001007007
0.0010055891
0.0010043895
0.0010033907
0.0010025741
0.0010019285
0.0010014936
0.0010012531
0.0010010248
0.0010011056
0.00100148
1.0381556e-06
6.061232e-06
6.2817275e-06
5.1705364e-06
6.304019e-06
4.1574612e-06
4.1703517e-06
3.6252563e-06
3.5824558e-06
3.4254806e-06
3.427644e-06
3.4388306e-06
3.5147946e-06
3.621427e-06
3.7582023e-06
3.9339667e-06
4.1466011e-06
4.3947678e-06
4.680122e-06
5.0046167e-06
5.3714672e-06
5.784631e-06
6.249075e-06
6.7707729e-06
7.3457498e-06
8.0016221e-06
8.7406817e-06
9.5756588e-06
1.0522154e-05
1.1599356e-05
1.2830943e-05
1.4246175e-05
1.5881276e-05
1.7781071e-05
2.0001024e-05
2.2609646e-05
2.5691432e-05
2.9350345e-05
3.3714e-05
3.8938689e-05
4.5215363e-05
5.3162814e-05
6.2369525e-05
7.3507921e-05
8.6998319e-05
0.00010335357
0.00012319592
0.00014728
0.00017809162
0.00021386072
0.00025728367
0.00030999902
0.00037749349
0.00045571954
0.00055064657
0.00066584702
0.00080566878
0.00097540585
0.0010240934
0.0010228459
0.001021536
0.0010201572
0.0010187021
0.0010171618
0.001015526
0.0010137825
0.0010119169
0.0010099126
0.0010080791
0.001006514
0.0010051843
0.001004064
0.0010031327
0.0010023681
0.0010017628
0.0010013475
0.0010010844
0.0010008532
0.0010009449
0.0010012804
1.0416216e-06
6.1847298e-06
5.6008707e-06
5.5176732e-06
5.4482233e-06
3.3017919e-06
3.364203e-06
2.979026e-06
2.9485994e-06
2.8704311e-06
2.8967463e-06
2.9458146e-06
3.0437128e-06
3.1619554e-06
3.3221398e-06
3.5152004e-06
3.7417438e-06
4.0019219e-06
4.2977224e-06
4.6316276e-06
5.00706e-06
5.428157e-06
5.8931393e-06
6.4192044e-06
7.0087464e-06
7.6703198e-06
8.4143227e-06
9.2534621e-06
1.020334e-05
1.1283196e-05
1.2516824e-05
1.3933691e-05
1.5570315e-05
1.747194e-05
1.9694572e-05
2.2307413e-05
2.5395797e-05
2.9064709e-05
3.3442944e-05
3.8688133e-05
4.4993112e-05
5.2593227e-05
6.224049e-05
7.3438925e-05
8.7003955e-05
0.00010345095
0.00012340501
0.00014762411
0.00017863865
0.00021460815
0.00025827122
0.00031127491
0.00037921289
0.00045787788
0.00055334171
0.00066920469
0.00080985235
0.00098062901
0.0010232555
0.0010220062
0.0010206976
0.0010193239
0.0010178786
0.0010163542
0.0010147421
0.0010130317
0.0010112104
0.001009262
0.0010075349
0.0010060634
0.0010048163
0.0010037693
0.0010029005
0.001002186
0.0010016196
0.0010012206
0.0010009454
0.0010007199
0.0010007807
0.0010010673
8.3743335e-07
6.5755302e-06
4.8261842e-06
3.4561963e-06
3.4819115e-06
2.7236271e-06
2.6701925e-06
2.4584615e-06
2.434826e-06
2.4150517e-06
2.4649152e-06
2.5435051e-06
2.6520818e-06
2.7963815e-06
2.9735801e-06
3.1811802e-06
3.4200809e-06
3.6913704e-06
3.9973344e-06
4.3407869e-06
4.7252841e-06
5.1502222e-06
5.6285217e-06
6.1627499e-06
6.759959e-06
7.4286665e-06
8.1792353e-06
9.0243639e-06
9.9796922e-06
1.1064558e-05
1.2302932e-05
1.3724563e-05
1.536636e-05
1.7274083e-05
1.9504387e-05
2.2127273e-05
2.5229059e-05
2.8915917e-05
3.3318009e-05
3.8594149e-05
4.4938659e-05
5.297966e-05
6.2299199e-05
7.3575666e-05
8.7236505e-05
0.00010380032
0.00012389596
0.00014828581
0.00017951768
0.00021573408
0.00025969364
0.00031305424
0.00038148049
0.00046067971
0.00055679692
0.00067346506
0.00081511307
0.00098714238
0.0010224478
0.0010211997
0.001019895
0.0010185288
0.0010170954
0.0010155887
0.0010140016
0.0010123261
0.0010105527
0.0010086699
0.0010070441
0.0010056607
0.0010044903
0.0010035097
0.0010026963
0.0010020275
0.0010014978
0.0010011145
0.0010008263
0.0010005856
0.0010006098
0.0010008214
6.5192545e-07
4.8295797e-06
3.7411265e-06
2.628558e-06
2.6801611e-06
2.1924331e-06
2.1373581e-06
2.0193319e-06
2.0212619e-06
2.0431145e-06
2.1169219e-06
2.2133418e-06
2.3461003e-06
2.5084504e-06
2.7001561e-06
2.9204756e-06
3.1707073e-06
3.4525418e-06
3.7684886e-06
4.1215561e-06
4.5125457e-06
4.9501763e-06
5.4375134e-06
5.9804218e-06
6.5859083e-06
7.2624486e-06
8.0203826e-06
8.872418e-06
9.8342589e-06
1.0925381e-05
1.216998e-05
1.3598128e-05
1.5247178e-05
1.7163454e-05
1.9404297e-05
2.204052e-05
2.5159417e-05
2.8868413e-05
3.329954e-05
3.8612568e-05
4.5314494e-05
5.3083927e-05
6.2471343e-05
7.3831121e-05
8.7593539e-05
0.00010428061
0.00012452529
0.00014909453
0.0001805186
0.00021698811
0.00026125207
0.0003149799
0.00038385795
0.00046360028
0.00056038319
0.00067787334
0.00082054425
0.00099385549
0.0010216788
0.001020435
0.0010191373
0.0010177812
0.0010163618
0.0010148738
0.0010133114
0.0010116682
0.0010099374
0.0010081421
0.0010066107
0.0010053095
0.0010042104
0.0010032899
0.0010025255
0.0010018966
0.0010013985
0.0010010286
0.0010007333
0.0010004874
0.0010004678
0.0010005843
5.0528722e-07
2.704356e-06
2.9488613e-06
2.1196083e-06
2.0547705e-06
1.7601584e-06
1.7203977e-06
1.6680986e-06
1.6951303e-06
1.7495382e-06
1.8443569e-06
1.9613046e-06
2.1113436e-06
2.2883556e-06
2.4924606e-06
2.7240447e-06
2.984731e-06
3.2765644e-06
3.6021749e-06
3.9646462e-06
4.367605e-06
4.8127082e-06
5.3089906e-06
5.8605152e-06
6.4742425e-06
7.1586121e-06
7.9239536e-06
8.783003e-06
9.7515474e-06
1.0849216e-05
1.2100442e-05
1.3535641e-05
1.5192613e-05
1.7118251e-05
1.9370558e-05
2.2021083e-05
2.5157831e-05
2.9047349e-05
3.3540755e-05
3.8929802e-05
4.5413112e-05
5.323239e-05
6.268125e-05
7.41158e-05
8.7968586e-05
0.00010476452
0.00012514085
0.00015118387
0.00018141226
0.00021809522
0.00026261607
0.00031665477
0.00038585349
0.00046604825
0.00056338892
0.00068157227
0.00082511188
0.0009995198
0.0010209585
0.0010197223
0.0010184348
0.0010170919
0.0010156892
0.0010142221
0.0010126853
0.0010110735
0.0010093804
0.0010076826
0.0010062368
0.0010050104
0.0010039761
0.0010031104
0.0010023906
0.0010017981
0.0010013276
0.0010009686
0.0010006736
0.0010004363
0.0010003845
0.0010004351
4.0510869e-07
2.0788789e-06
2.2369191e-06
1.6618646e-06
1.5895786e-06
1.4200207e-06
1.3991122e-06
1.3935873e-06
1.4440243e-06
1.5242025e-06
1.6374253e-06
1.7731893e-06
1.9374427e-06
2.1268082e-06
2.3418466e-06
2.583611e-06
2.8539368e-06
3.1550495e-06
3.4896284e-06
3.8607731e-06
4.2720816e-06
4.7277359e-06
5.2326439e-06
5.7926331e-06
6.4147091e-06
7.1073889e-06
7.8811227e-06
8.7488232e-06
9.7265214e-06
1.083417e-05
1.2096621e-05
1.3544806e-05
1.5217167e-05
1.7161366e-05
1.9436329e-05
2.2114721e-05
2.5285856e-05
2.9059316e-05
3.3569133e-05
3.8978979e-05
4.5488351e-05
5.3340078e-05
6.2829468e-05
7.4312885e-05
8.8223603e-05
0.00010597486
0.00012658144
0.00015157691
0.00018190327
0.00021870312
0.00026336431
0.00032057236
0.00038684685
0.00046728269
0.00056492843
0.00068350198
0.00082754597
0.0010026109
0.0010202971
0.0010190719
0.0010177979
0.0010164716
0.001015089
0.001013646
0.0010121381
0.0010105605
0.0010089082
0.0010072954
0.0010059242
0.0010047631
0.0010037853
0.0010029673
0.0010022867
0.0010017268
0.0010012802
0.0010009311
0.0010006402
0.0010004129
0.0010003356
0.0010003284
3.0804748e-07
1.6025259e-06
1.6655601e-06
1.3095407e-06
1.237238e-06
1.1505108e-06
1.1501314e-06
1.1791699e-06
1.2506215e-06
1.3512304e-06
1.4796974e-06
1.6309609e-06
1.806344e-06
2.0055116e-06
2.2293847e-06
2.4793936e-06
2.7574949e-06
3.0660027e-06
3.407611e-06
3.7854143e-06
4.2029869e-06
4.6644826e-06
5.1747662e-06
5.7396071e-06
6.3659496e-06
7.0622539e-06
7.8389248e-06
8.708849e-06
9.6880565e-06
1.079653e-05
1.2059186e-05
1.3507058e-05
1.5178722e-05
1.7122006e-05
1.9396068e-05
2.2073909e-05
2.524493e-05
2.9018865e-05
3.352984e-05
3.8941471e-05
4.5452906e-05
5.3699866e-05
6.3263907e-05
7.483384e-05
8.88446e-05
0.00010582383
0.0001264114
0.00015138357
0.00018168246
0.00021844848
0.00026546729
0.00032000745
0.00038619682
0.00046654074
0.00056409181
0.00068257494
0.00082654339
0.0010015635
0.0010197053
0.0010184943
0.0010172371
0.0010159303
0.0010145706
0.0010131543
0.0010116777
0.0010101365
0.0010085265
0.0010069845
0.0010056754
0.0010045685
0.0010036376
0.0010028591
0.0010022115
0.001001679
0.0010012519
0.0010009118
0.0010006283
0.0010004115
0.0010003148
0.0010002645
1.9198581e-07
1.2617806e-06
1.2020225e-06
1.0411861e-06
9.7752823e-07
9.4630848e-07
9.6847101e-07
1.0254342e-06
1.116746e-06
1.2349248e-06
1.3770859e-06
1.5411793e-06
1.7271209e-06
1.935646e-06
2.1680839e-06
2.4256134e-06
2.7111906e-06
3.0267736e-06
3.3750553e-06
3.7591305e-06
4.1825829e-06
4.6495764e-06
5.1649385e-06
5.7343588e-06
6.3647138e-06
7.0643962e-06
7.8437444e-06
8.7155875e-06
9.6959024e-06
1.0804628e-05
1.2066639e-05
1.3512917e-05
1.5181957e-05
1.7121443e-05
1.9464025e-05
2.2153149e-05
2.5337131e-05
2.9125864e-05
3.3653591e-05
3.9084013e-05
4.561632e-05
5.3492594e-05
6.3006827e-05
7.4515874e-05
8.8451121e-05
0.00010533649
0.00012580729
0.00015197914
0.00018231865
0.0002191203
0.00026376938
0.00031794967
0.00038370961
0.00046354364
0.00056049257
0.00067826841
0.00082141065
0.00099547025
0.0010191951
0.0010180011
0.0010167633
0.0010154786
0.0010141441
0.0010127566
0.0010113127
0.0010098087
0.001008241
0.0010067534
0.0010054921
0.001004427
0.001003532
0.0010027837
0.0010021615
0.0010016501
0.0010012376
0.0010009047
0.0010006283
0.0010004185
0.001000304
0.0010002192
2.7090558e-07
1.0050617e-06
8.7992228e-07
8.2990538e-07
7.9710401e-07
7.9836172e-07
8.3935285e-07
9.1459299e-07
1.0185003e-06
1.1461076e-06
1.2947755e-06
1.463674e-06
1.6531621e-06
1.8642743e-06
2.0984774e-06
2.3575578e-06
2.6435807e-06
2.9589403e-06
3.3063707e-06
3.6890056e-06
4.1104201e-06
4.5746733e-06
5.0862695e-06
5.6506486e-06
6.2747604e-06
6.9669581e-06
7.7375252e-06
8.5991972e-06
9.5678291e-06
1.0663199e-05
1.1909979e-05
1.3338893e-05
1.4988123e-05
1.690498e-05
1.9147844e-05
2.1788311e-05
2.4914313e-05
2.8633839e-05
3.3078766e-05
3.8409792e-05
4.4822491e-05
5.2554452e-05
6.2374841e-05
7.3760161e-05
8.7543087e-05
0.00010424159
0.00012448409
0.0001490332
0.00017881477
0.00021495343
0.00025881612
0.00031206557
0.00037672597
0.00045526372
0.00055068727
0.00066667129
0.00080771127
0.00097930686
0.0010187779
0.0010176038
0.0010163879
0.0010151275
0.0010138201
0.0010124629
0.0010110529
0.0010095873
0.0010080627
0.0010066107
0.0010053806
0.0010043427
0.0010034709
0.001002742
0.0010021361
0.0010016381