/*--------------------------------*- C++ -*----------------------------------*\
  =========                 |
  \\      /  F ield         | OpenFOAM: The Open Source CFD Toolbox
   \\    /   O peration     | Website:  https://openfoam.org
    \\  /    A nd           | Version:  6
     \\/     M anipulation  |
\*---------------------------------------------------------------------------*/
FoamFile
{
    version     2.0;
    format      ascii;
    class       volScalarField;
    location    "850";
    object      omega;
}
// * * * * * * * * * * * * * * * * * * * * * * * * * * * * * * * * * * * * * //

dimensions      [0 0 -1 0 0 0 0];

internalField   nonuniform List<scalar> 
16000
(
1433.2409
1493.6939
764.48707
495.43078
332.73246
257.02778
192.41352
159.73483
129.16988
110.55356
93.656653
81.589168
71.032678
62.737366
55.615217
49.74062
44.736167
40.505077
36.864166
33.728674
31.002762
28.625003
26.5381
24.699686
23.073287
21.629923
20.345051
19.198466
18.173121
17.254746
16.431306
15.692622
15.029972
14.435805
13.903559
13.427463
13.002389
12.62373
12.287304
11.989261
11.72605
11.494436
11.291393
11.114082
10.959852
10.826251
10.710988
10.611958
10.527255
10.45519
10.394332
10.343579
10.302378
10.271387
10.250042
10.236376
10.227806
10.221386
10.214992
10.207682
10.19848
10.187662
10.174745
10.159162
10.140527
10.119043
10.095697
10.072817
10.05189
10.03429
10.01848
10.007192
9.9953545
9.9898754
9.981518
9.9895095
9.9836039
10.025405
9.9933745
10.036898
1338.2412
1534.5163
766.47302
502.91275
334.70446
260.87987
194.09862
161.88801
130.42091
111.75172
94.45827
82.22858
71.47368
63.03154
55.831649
49.91799
44.878343
40.621386
36.959242
33.807125
31.067976
28.679822
26.584743
24.739883
23.10842
21.661082
20.373106
19.224089
18.196826
17.276894
16.452143
15.712318
15.048644
14.453524
13.920364
13.443378
13.017426
12.637897
12.300616
12.001733
11.73768
11.505231
11.301371
11.123263
10.96826
10.833916
10.717944
10.618232
10.532867
10.460137
10.398563
10.346938
10.304423
10.27083
10.247161
10.231922
10.222587
10.215962
10.209595
10.202566
10.19459
10.184918
10.17311
10.158564
10.140822
10.119898
10.096723
10.073593
10.052536
10.034551
10.018907
10.006977
9.9960707
9.9906925
9.9823398
9.9872728
9.9826973
10.020401
9.99368
10.037503
1088.049
1574.0607
766.37628
509.58896
336.01062
264.24141
195.44769
163.71263
131.4503
112.69447
95.068102
82.648896
71.732046
63.202593
55.955669
50.010871
44.944944
40.668865
36.992127
33.82893
31.081673
28.687631
26.588502
24.740898
23.107737
21.659487
20.371208
19.222328
18.19551
17.276209
16.45217
15.713075
15.050111
14.455645
13.923062
13.446567
13.021017
12.641802
12.304757
12.006045
11.742077
11.50964
11.305733
11.127528
10.972379
10.837856
10.721679
10.621738
10.536117
10.463093
10.401164
10.349072
10.305849
10.270972
10.244798
10.227779
10.21753
10.210624
10.204202
10.197177
10.189365
10.180534
10.170074
10.156788
10.140154
10.120023
10.097174
10.073948
10.052775
10.034606
10.019029
10.006792
9.9963653
9.9911345
9.9831846
9.9862028
9.9826265
10.016304
9.9938589
10.034309
1114.2101
1607.9348
764.73899
515.4019
336.75292
267.03681
196.51613
165.14002
132.26253
113.3249
95.465699
82.807141
71.826973
63.2617
55.982702
50.014895
44.932435
40.644402
36.96021
33.791867
31.041983
28.64688
26.548075
24.701668
23.070382
21.624461
20.338828
19.192783
18.16889
17.252502
16.431275
15.694843
15.034376
14.442213
13.911729
13.43713
13.013276
12.635562
12.299845
12.00231
11.739348
11.507759
11.304562
11.126945
10.972266
10.838113
10.722222
10.622489
10.537004
10.46404
10.402084
10.349851
10.306307
10.270746
10.242994
10.223972
10.212641
10.205384
10.198877
10.191803
10.183988
10.175273
10.165374
10.153613
10.138347
10.119273
10.096962
10.073785
10.052574
10.034343
10.018852
10.00646
9.996393
9.990577
9.9839849
9.9861987
9.9828272
10.011772
9.9941675
10.032469
1138.1296
1633.4525
761.93641
520.23848
336.95347
269.18278
197.30741
166.1079
132.84314
113.59318
95.62405
82.819147
71.801198
63.207842
55.911421
49.929131
44.839803
40.547223
36.862759
33.695354
30.948392
28.557136
26.463111
24.621912
22.996126
21.555826
20.275837
19.135364
18.116908
17.205747
16.389463
15.657654
15.00149
14.413297
13.886448
13.415159
12.994304
12.619287
12.285988
11.99064
11.729602
11.499694
11.297962
11.121614
10.968013
10.834772
10.719649
10.620551
10.535583
10.463018
10.401343
10.34926
10.305703
10.269877
10.241379
10.220522
10.207908
10.200222
10.193605
10.186459
10.178599
10.169892
10.16013
10.148921
10.13531
10.117587
10.096058
10.073087
10.051929
10.03375
10.018381
10.005975
9.9961994
9.9900404
9.9845505
9.9861561
9.983257
10.007746
9.9945166
10.028898
1159.7662
1646.6732
758.45935
523.95747
336.64974
270.57142
197.83241
166.53354
133.17214
113.51441
95.517511
82.681928
71.651645
63.038613
55.739441
49.75174
44.665338
40.375942
36.698556
33.53838
30.800037
28.417693
26.333022
24.501149
22.884589
21.453287
20.182014
19.049912
18.039461
17.135886
16.326716
15.601521
14.951495
14.368961
13.847299
13.380748
12.964203
12.593084
12.263295
11.971143
11.712947
11.48555
11.286029
11.111627
10.959705
10.82791
10.714029
10.615986
10.531905
10.46007
10.398971
10.347308
10.304
10.268203
10.23938
10.217471
10.203334
10.195122
10.188377
10.18114
10.173215
10.16448
10.154761
10.143776
10.130964
10.114924
10.094458
10.07186
10.050854
10.032828
10.017637
10.005327
9.9958058
9.9894711
9.9848448
9.9859638
9.9837984
10.004645
9.9949434
10.026483
1179.1491
1645.3132
754.51868
526.36516
335.89997
271.07739
198.10703
166.32479
133.21698
113.23645
95.261208
82.39629
71.37777
62.754253
55.466448
49.482759
44.408896
40.130545
36.467584
33.321032
30.597032
28.228724
26.158019
24.339647
22.736074
21.317183
20.057725
18.93682
17.936956
17.043344
16.243471
15.526885
14.884831
14.309639
13.794708
13.334306
12.923369
12.557331
12.232114
11.944144
11.689684
11.465601
11.269012
11.097207
10.947541
10.817702
10.705515
10.608922
10.52608
10.455284
10.395036
10.344042
10.301215
10.265689
10.236853
10.214461
10.198924
10.190068
10.183176
10.175837
10.16783
10.159046
10.14933
10.138452
10.126015
10.111218
10.092147
10.070106
10.049355
10.03158
10.016632
10.00451
9.9952292
9.9888806
9.9848849
9.9852805
9.9843596
10.00212
9.9953148
10.023735
1196.3732
1641.9214
749.49356
527.28547
334.78551
270.58079
198.14929
165.71398
132.91225
112.76565
94.856541
81.965127
70.980103
62.355947
55.092703
49.122723
44.070696
39.811333
36.17009
33.043596
30.339688
27.990573
25.938486
24.137827
22.551036
21.148003
19.903489
18.796625
17.809943
16.928679
16.140292
15.434309
14.802053
14.235877
13.729203
13.276342
12.872283
12.512486
12.192868
11.910032
11.660172
11.440175
11.247204
11.078616
10.931754
10.804352
10.694284
10.599512
10.518236
10.448768
10.389626
10.339528
10.297392
10.262339
10.233718
10.211158
10.194701
10.185044
10.177989
10.170538
10.162441
10.153594
10.143859
10.133038
10.120813
10.106603
10.089126
10.067847
10.047454
10.030024
10.015393
10.003537
9.9945027
9.9882611
9.9847457
9.9845781
9.9848686
9.9997559
9.9955489
10.021224
1211.568
1639.6556
743.48888
526.56647
333.38806
268.94183
197.93629
164.83895
132.29984
112.11032
94.30497
81.392195
70.459683
61.845585
54.619083
48.67273
43.651546
39.419102
35.806841
32.706858
30.028796
27.704051
25.675248
23.896544
22.330354
20.946641
19.720209
18.630232
17.659324
16.792784
16.018064
15.324656
14.704
14.14848
13.651555
13.207583
12.811627
12.459192
12.146139
11.869344
11.624898
11.409714
11.220995
11.056203
10.912652
10.788125
10.680565
10.587952
10.508537
10.440658
10.382853
10.333856
10.292594
10.258189
10.22997
10.207506
10.190707
10.180037
10.172803
10.165235
10.157041
10.148125
10.138359
10.12757
10.115496
10.101703
10.085391
10.065113
10.045181
10.028185
10.013945
10.002426
9.9936639
9.9876236
9.9844706
9.9840025
9.9853053
9.9975953
9.9956815
10.018577
1224.901
1638.1525
736.62441
523.95723
331.78287
266.86039
197.39882
163.72965
131.5301
111.27815
93.60718
80.681093
69.817477
61.224927
54.04653
48.133947
43.152394
38.954811
35.378802
32.311832
29.665401
27.370236
25.369412
23.616937
22.075185
20.71427
19.509067
18.438821
17.486261
16.6368
15.87791
15.199015
14.591717
14.048451
13.562715
13.128921
12.742229
12.398234
12.092628
11.822715
11.58444
11.374738
11.190841
11.030371
10.890589
10.769328
10.664624
10.574465
10.497173
10.431112
10.374845
10.327128
10.286902
10.253296
10.225626
10.203419
10.186475
10.175038
10.167607
10.15992
10.151628
10.14264
10.132838
10.122068
10.110107
10.096602
10.080939
10.061948
10.042573
10.026097
10.012323
10.001204
9.9927503
9.9869767
9.9841014
9.983548
9.9856652
9.9957105
9.9957392
10.015858
1236.5653
1636.9373
729.03056
519.12275
329.99351
264.43185
196.41907
162.40462
130.60377
110.27775
92.764432
79.835744
69.054896
60.49599
53.376345
47.507807
42.574545
38.419701
34.8873
31.859889
29.250921
26.990576
25.022457
23.300529
21.787071
20.452438
19.271614
18.223928
17.292254
16.462182
15.721251
15.05875
14.466507
13.937023
13.463847
13.041441
12.665081
12.330556
12.033168
11.770896
11.539472
11.335858
11.157269
11.001588
10.865976
10.748312
10.646763
10.559306
10.484355
10.420306
10.36575
10.319465
10.280411
10.247729
10.220733
10.198922
10.18201
10.170044
10.162392
10.154589
10.146201
10.137142
10.127304
10.116548
10.104684
10.091423
10.076288
10.058408
10.039679
10.0238
10.010564
9.9999005
9.9918008
9.9863383
9.9836826
9.9832001
9.9859529
9.9941988
9.995815
10.013476
1246.8381
1635.3914
720.88741
511.61813
328.01338
261.71839
194.93986
160.88416
129.52145
109.1181
91.778477
78.86006
68.173634
59.660782
52.60997
46.795866
41.919562
37.815231
34.327205
31.3457
28.78026
26.560361
24.630143
22.943598
21.462778
20.158366
19.005475
17.983535
17.075586
16.267462
15.546872
14.90284
14.327513
13.813486
13.354371
12.94467
12.57976
12.255888
11.968711
11.714741
11.490755
11.293767
11.120869
10.970368
10.839269
10.725462
10.627316
10.542756
10.470319
10.408435
10.355725
10.310995
10.273225
10.241569
10.215347
10.194046
10.177322
10.165061
10.157155
10.149241
10.140762
10.131638
10.121768
10.111028
10.099252
10.086206
10.071521
10.054559
10.036553
10.021343
10.008707
9.9985511
9.9908519
9.9857276
9.9832582
9.9829407
9.9861563
9.9930968
9.9958864
10.011517
1255.9912
1632.6296
712.38205
503.52162
325.76828
258.78551
193.35848
159.18472
128.28073
107.8055
90.649693
77.756188
67.174491
58.720369
51.73629
45.984086
41.173029
37.129194
33.69948
30.77208
28.257386
26.084185
24.197369
22.551207
21.107358
19.837002
18.715446
17.722245
16.840613
16.056709
15.358626
14.734873
14.178057
13.680895
13.237096
12.841186
12.488501
12.175847
11.89875
11.653826
11.437934
11.248227
11.082279
10.93727
10.810967
10.701193
10.606647
10.525117
10.455315
10.395706
10.344941
10.301857
10.265455
10.234903
10.209534
10.188831
10.172423
10.160106
10.151894
10.143878
10.135318
10.126137
10.116244
10.105526
10.093837
10.080985
10.066685
10.050477
10.03326
10.018777
10.006796
9.9971928
9.989938
9.9851645
9.982864
9.9827543
9.9862377
9.9923062
9.9959678
10.00986
1264.3228
1627.4934
703.66355
494.96338
323.09428
255.67198
191.66567
157.32423
126.88092
106.34632
89.379579
76.526348
66.031929
57.645774
50.748203
45.073295
40.340067
36.368008
33.006316
30.141465
27.685015
25.564889
23.726991
22.126307
20.723755
19.491245
18.404366
17.442822
16.589971
15.832327
15.158848
14.557027
14.020151
13.541099
13.113729
12.732629
12.392803
12.092021
11.825553
11.590136
11.382702
11.200384
11.041129
10.901993
10.780873
10.675942
10.585145
10.506713
10.439609
10.382336
10.333576
10.292196
10.257219
10.227828
10.203364
10.18332
10.167312
10.1551
10.146614
10.138507
10.129877
10.120654
10.11075
10.100063
10.088466
10.075798
10.061835
10.046246
10.029869
10.016161
10.004876
9.9958639
9.9890918
9.9846722
9.9825347
9.9826463
9.9861832
9.9913256
9.9960258
10.00852
1272.1376
1618.2554
694.87328
485.9825
319.66075
252.41373
189.84377
155.31799
125.32118
104.7443
87.923396
75.112358
64.734412
56.439424
49.645604
44.064321
39.422408
35.533942
32.25054
29.456932
27.066593
25.00607
23.222527
21.672536
20.31556
19.124582
18.075601
17.148519
16.326774
15.597017
14.947786
14.369441
13.853839
13.394054
12.984152
12.619013
12.294184
12.005766
11.750318
11.524741
11.326091
11.151267
10.9989
10.865767
10.749786
10.649422
10.562628
10.487886
10.423481
10.368555
10.321816
10.282164
10.248641
10.220442
10.196917
10.177569
10.162009
10.149971
10.141324
10.13314
10.124456
10.115205
10.105306
10.094666
10.083171
10.070683
10.057026
10.041954
10.026455
10.013551
10.00299
9.9946008
9.9883419
9.9842786
9.982308
9.9826186
9.9860816
9.9905415
9.9959939
10.007368
1279.7127
1602.3235
686.12511
476.61494
316.0318
249.04086
187.86282
153.17518
123.60108
102.90293
86.248786
73.516508
63.278067
55.099563
48.428601
42.958475
38.42255
34.630119
31.436028
28.72251
26.40663
24.41242
22.688323
21.190362
19.882922
18.736934
17.728939
16.839113
16.050932
15.351547
14.729763
14.176194
13.682927
13.243248
12.851418
12.502485
12.192141
11.916615
11.672597
11.457199
11.26783
11.101676
10.956307
10.829292
10.7184
10.622598
10.539687
10.468434
10.407229
10.354602
10.309851
10.271911
10.239843
10.212848
10.190277
10.171645
10.156566
10.144755
10.13604
10.127796
10.119074
10.109813
10.099938
10.089363
10.077986
10.065685
10.052316
10.037693
10.023091
10.011007
10.001183
9.9934352
9.987708
9.9840047
9.9822197
9.9826849
9.9859413
9.9898925
9.9957968
10.006324
1287.2774
1575.7174
677.50464
466.83483
312.54432
245.57991
185.69005
150.82515
121.54587
100.80473
84.34311
71.730922
61.658759
53.624659
47.098205
41.758201
37.344505
33.661058
30.568334
27.943493
25.704617
23.783258
22.125075
20.686675
19.433078
18.335501
17.371346
16.521292
15.768587
15.101111
14.508006
13.980189
13.510025
13.091054
12.717762
12.3854
12.089829
11.827401
11.5949
11.389548
11.209209
11.051042
10.912847
10.792263
10.687252
10.595999
10.516798
10.448861
10.390642
10.340733
10.297883
10.261594
10.230949
10.20515
10.183531
10.165621
10.15104
10.139494
10.130783
10.122496
10.113755
10.104503
10.094672
10.084183
10.072945
10.060847
10.047765
10.033551
10.019851
10.008584
9.9994946
9.9923931
9.9872012
9.9838598
9.9822866
9.9828681
9.9858192
9.9893478
9.9954728
10.005366
1294.9891
1532.0797
668.89405
456.54295
309.09543
242.0158
184.07333
148.14553
119.13025
98.427264
82.191606
69.745103
59.871837
52.01383
45.657033
40.46769
36.194714
32.633073
29.644953
27.119406
24.969899
23.128718
21.542342
20.168192
18.972365
17.926039
17.007901
16.199828
15.48403
14.849556
14.285943
13.78447
13.337823
12.939834
12.585254
12.269569
11.988842
11.739583
11.51863
11.323039
11.151574
11.001137
10.869907
10.755486
10.655875
10.569374
10.494417
10.429561
10.374132
10.326755
10.286133
10.251379
10.222083
10.197452
10.176765
10.15957
10.145492
10.134236
10.125582
10.117272
10.108531
10.099307
10.089541
10.079161
10.068084
10.056212
10.04343
10.029614
10.016804
10.006336
9.9979615
9.9914935
9.9868251
9.9838458
9.9825083
9.9831742
9.9857771
9.9889684
9.9951732
10.004407
1302.6444
1474.709
659.6177
445.53896
305.51772
240.02484
181.64127
144.99178
116.32846
95.727791
79.772626
67.546545
57.91279
50.268071
44.111064
39.093674
34.967128
31.543584
28.679104
26.26371
24.212148
22.457916
20.948628
19.642534
18.508033
17.515073
16.643876
15.876602
15.198588
14.597744
14.064058
13.589209
13.166242
12.789311
12.453457
12.154431
11.888541
11.652529
11.443482
11.258761
11.09595
10.952765
10.828207
10.719739
10.625312
10.543321
10.4723
10.410923
10.358001
10.313009
10.274431
10.241453
10.213365
10.189858
10.170071
10.153569
10.139987
10.129032
10.120473
10.112159
10.103437
10.094262
10.084581
10.074331
10.063439
10.051817
10.039362
10.025954
10.01401
10.004309
9.996615
9.9907477
9.9865751
9.9839523
9.9828566
9.9835714
9.9858524
9.98882
9.994833
10.00338
1310.1664
1429.1058
649.53926
440.47781
303.89584
236.05307
178.22571
141.32077
113.08698
92.681461
77.069197
65.131038
55.784877
48.394979
42.452307
37.631899
33.681084
30.412625
27.684669
25.389264
23.443149
21.781589
20.353942
19.117837
18.043755
17.105923
16.283419
15.559178
14.919219
14.352041
13.848148
13.39967
13.000048
12.643784
12.326225
12.043395
11.791845
11.568529
11.370713
11.195917
11.041926
10.906702
10.78832
10.68553
10.59603
10.518302
10.450956
10.392731
10.3425
10.299748
10.263066
10.231679
10.204914
10.18247
10.163537
10.147695
10.134592
10.123938
10.115498
10.1072
10.098517
10.089408
10.079829
10.069726
10.059039
10.047693
10.035595
10.02263
10.011519
10.002544
9.9954832
9.9901658
9.9864449
9.9841597
9.9832911
9.9840261
9.9860663
9.9888812
9.9943873
10.002193
1317.1122
1407.7271
641.6073
442.97815
303.91637
230.67123
174.1861
137.03273
109.34616
89.262919
74.072926
62.504
53.502371
46.390396
40.705833
36.111482
32.357367
29.259231
26.678798
24.51133
22.676362
21.111272
19.76452
18.601104
17.590533
16.708274
15.93447
15.252965
14.650556
14.116411
13.641607
13.218763
12.841741
12.505405
12.205421
11.93809
11.700214
11.488975
11.301823
11.136353
10.990484
10.862354
10.75076
10.653302
10.568426
10.494698
10.430803
10.375543
10.327847
10.287186
10.252272
10.222373
10.196843
10.175389
10.157251
10.142027
10.129377
10.119015
10.110707
10.102446
10.09382
10.084795
10.075331
10.065386
10.054912
10.043851
10.032138
10.019689
10.009366
10.001071
9.9945939
9.9897683
9.9864405
9.9844546
9.9837934
9.9845435
9.986338
9.9888424
9.9938112
10.0007
1321.9796
1416.6513
634.32804
436.60108
299.43166
224.74629
169.20534
132.18743
105.09084
85.477729
70.79886
59.689108
51.06459
44.293429
38.904311
34.562089
31.022507
28.106754
25.681746
23.647292
21.926957
20.457394
19.194983
18.104415
17.15691
16.329376
15.603169
14.963154
14.396988
13.894566
13.447576
13.049153
12.693593
12.376127
12.092726
11.839959
11.614869
11.414891
11.237796
11.081111
10.94279
10.821901
10.715984
10.623445
10.542825
10.472778
10.412067
10.359541
10.31423
10.27548
10.242189
10.213656
10.189266
10.168713
10.151302
10.136645
10.124412
10.114326
10.106155
10.097952
10.089403
10.080479
10.071144
10.061364
10.051096
10.040299
10.028924
10.017158
10.007568
9.9999048
9.9939642
9.9895798
9.9865916
9.9848573
9.9843634
9.9851112
9.9867095
9.9889927
9.9933853
9.9992266
1322.5107
1425.4939
625.13612
426.3144
293.42999
217.67163
163.22149
126.63612
100.29619
81.319776
67.262774
56.690897
48.528659
42.149023
37.088149
33.019285
29.707487
26.98186
24.715947
22.814954
21.206861
19.836311
18.656998
17.637532
16.751054
15.976066
15.295242
14.694543
14.162536
13.689875
13.268881
12.89322
12.557628
12.257695
11.989684
11.750383
11.536987
11.347004
11.179267
11.030928
10.90014
10.785177
10.68442
10.596332
10.519538
10.452787
10.394952
10.34482
10.301831
10.264787
10.232942
10.205638
10.182296
10.162547
10.145783
10.131632
10.119775
10.109942
10.101904
10.093782
10.085333
10.07653
10.067343
10.057739
10.047684
10.037138
10.026061
10.015054
10.006125
9.9990322
9.9935766
9.9895882
9.9869038
9.9853944
9.9850361
9.9857661
9.9872343
9.989416
9.9933416
9.9983968
1316.112
1377.3204
616.25879
414.95196
285.48683
209.32373
156.23448
120.42057
95.040215
76.883049
63.564259
53.608912
45.970597
40.02029
35.309909
31.527076
28.44952
25.916576
23.809782
22.040639
20.542104
19.262736
18.162597
17.210344
16.381138
15.655131
15.016351
14.451867
13.951163
13.50565
13.10828
12.753245
12.435725
12.151686
11.897708
11.670847
11.468515
11.288451
11.12862
10.987158
10.862352
10.752611
10.656471
10.572345
10.49891
10.434941
10.379812
10.33208
10.290837
10.255263
10.224649
10.198376
10.176052
10.156993
10.140787
10.127073
10.115543
10.105932
10.098016
10.089998
10.081673
10.073014
10.063997
10.054592
10.04477
10.034497
10.023738
10.013389
10.005033
9.9984343
9.9933966
9.9897476
9.9873257
9.9860122
9.9857643
9.9864741
9.9878518
9.9899576
9.9934913
9.9978545
1299.9973
1324.4811
607.56502
401.30485
275.85318
199.90465
148.41502
113.7189
89.512847
72.346102
59.862548
50.577141
43.496143
37.991063
33.636769
30.139547
27.291877
24.945624
22.991344
21.347523
19.952563
18.759297
17.731149
16.839426
16.061389
15.378856
14.777182
14.244505
13.771166
13.349273
12.972349
12.635056
12.33297
12.062394
11.820208
11.603751
11.410493
11.238328
11.085344
10.949779
10.829991
10.724439
10.63239
10.551845
10.481548
10.420356
10.367224
10.321208
10.281458
10.24713
10.217531
10.192291
10.170656
10.152164
10.136414
10.123058
10.111797
10.10237
10.094558
10.086666
10.078484
10.06999
10.061161
10.051972
10.042398
10.03241
10.021979
10.012175
10.004292
9.9981008
9.9934052
9.990032
9.9878239
9.9866688
9.9865028
9.987194
9.9885178
9.9905695
9.9937843
9.9976029
1268.1211
1271.2193
600.57645
385.16019
264.00251
189.10552
139.60002
106.48257
83.741499
67.760932
56.213641
47.645835
41.132982
36.077212
32.079506
28.867006
26.241267
24.072783
22.26191
20.734578
19.434899
18.320097
17.357
16.519556
15.787082
15.143012
14.573979
14.069129
13.61961
13.218171
12.85885
12.536719
12.247678
11.988284
11.755608
11.548034
11.362535
11.197153
11.050106
10.919753
10.804565
10.703108
10.614037
10.536095
10.468002
10.408657
10.357051
10.312263
10.273804
10.240593
10.211972
10.18736
10.166245
10.14818
10.132773
10.119685
10.108624
10.099335
10.0916
10.083852
10.07583
10.067517
10.058891
10.04993
10.040612
10.030913
10.020808
10.01142
10.003897
9.9980135
9.9935742
9.9904058
9.9883562
9.9873151
9.9871994
9.9878681
9.9891519
9.9911415
9.9940747
9.9974523
1218.4315
1206.1013
588.40307
365.4763
248.66908
176.96024
130.45912
99.618402
78.636468
63.927628
53.287696
45.365778
39.318028
34.614885
30.889539
27.889285
25.437508
23.408019
21.708919
20.272092
19.046221
17.992043
17.079075
16.283314
15.585679
14.970885
14.426584
13.942739
13.511151
13.125099
12.779048
12.468425
12.189422
11.938844
11.713978
11.512394
11.332025
11.171018
11.027686
10.900463
10.787885
10.688569
10.601214
10.525188
10.458746
10.400831
10.350471
10.30678
10.268955
10.236276
10.208101
10.183859
10.16305
10.145233
10.130025
10.117089
10.106136
10.096915
10.089208
10.081621
10.073775
10.065655
10.057242
10.048519
10.039464
10.03006
10.020284
10.011163
10.003871
9.9981824
9.9939016
9.9908559
9.9888983
9.9879174
9.987814
9.9884505
9.9897078
9.991664
9.9944074
9.9974837
1161.5383
1126.8971
563.96418
342.83563
228.70668
161.06768
118.64772
90.85373
72.125546
59.048767
49.598565
42.560252
37.182615
32.970075
29.606422
26.877069
24.631017
22.759757
21.183776
19.843764
18.694735
17.702062
16.838565
16.082802
15.417829
14.8299
14.307847
13.84253
13.426443
13.053401
12.718289
12.41686
12.145566
11.901416
11.682682
11.486319
11.310381
11.153128
11.012982
10.888469
10.778201
10.680864
10.595214
10.520077
10.454353
10.397018
10.347126
10.303812
10.266291
10.233857
10.205878
10.181794
10.16111
10.143392
10.128258
10.115377
10.104461
10.09526
10.087557
10.080137
10.07247
10.064541
10.056333
10.047829
10.039014
10.029867
10.020373
10.011378
10.004191
9.9985854
9.9943646
9.9913557
9.9894133
9.9884199
9.9882654
9.9888281
9.9900261
9.9918804
9.9943551
9.9971377
1124.7724
1169.8476
575.13322
346.13905
228.97939
160.16956
117.53713
90.02528
71.616545
58.784815
49.500564
42.56374
37.240005
33.060768
29.717055
26.997742
24.754659
22.881457
21.300248
19.952934
18.795431
17.793733
16.921393
16.15749
15.48508
14.890452
14.362399
13.891731
13.470884
13.093613
12.754748
12.449995
12.175766
11.929036
11.707233
11.508132
11.329774
11.170291
11.02807
10.901634
10.789592
10.690632
10.603508
10.527044
10.460136
10.401753
10.350941
10.306824
10.268609
10.235577
10.207087
10.182568
10.161515
10.143484
10.128086
10.114982
10.103875
10.09451
10.086665
10.079442
10.071979
10.064263
10.056276
10.048004
10.039429
10.030537
10.021308
10.012192
10.004906
9.9992245
9.9949423
9.9918816
9.9898919
9.9888458
9.9886271
9.9891271
9.9902729
9.9920338
9.9943336
9.997002
1162.1666
1238.7511
596.43763
361.66511
238.53925
166.89352
122.23265
93.450076
74.174787
60.749858
51.039199
43.786272
38.221633
33.856163
30.366386
27.531366
25.195972
23.248749
21.607952
20.212525
19.01609
17.982872
17.084859
16.299792
15.609788
15.000397
14.459852
13.978519
13.548476
13.163193
12.817266
12.506211
12.226285
11.974347
11.747727
11.544133
11.361554
11.198287
11.052682
10.923204
10.808429
10.707014
10.617693
10.539272
10.470626
10.410709
10.35855
10.313256
10.274017
10.240099
10.210846
10.185674
10.164063
10.145559
10.129763
10.116324
10.104939
10.095344
10.087311
10.080314
10.073081
10.0656
10.057854
10.049829
10.041509
10.032878
10.023919
10.014616
10.00696
10.000962
9.9964077
9.9931126
9.9909186
9.9896895
9.9893051
9.9896619
9.9906801
9.9922949
9.994429
9.9970025
30488.069
32912.197
18963.67
13133.81
9527.2895
6943.6852
5065.2968
3713.7567
2739.8949
2037.7828
1524.4235
1147.9056
866.7959
661.04405
501.60697
382.42777
289.72377
219.95266
168.32383
130.3945
102.23132
81.532934
66.237929
54.890824
46.433314
40.034957
35.142957
31.33116
28.304851
25.835077
23.769339
22.013441
20.50032
19.182662
18.026382
17.006487
16.104123
15.304629
14.596253
13.969318
13.41557
12.927806
12.499662
12.125393
11.79973
11.517797
11.275032
11.066985
10.89008
10.741692
10.619805
10.521917
10.443541
10.381696
10.334224
10.299149
10.274217
10.257037
10.244114
10.233621
10.222691
10.212326
10.198523
10.185553
10.16472
10.147819
10.117551
10.099407
10.055443
10.039011
10.007479
10.002
9.9751809
9.9817466
9.9512463
9.9814823
9.9503458
10.003528
9.9628065
10.0022
33345.341
28258.028
21508.871
16292.933
12083.73
8802.5455
6376.7919
4621.1344
3364.9546
2465.8672
1817.9752
1346.7275
1001.8793
747.73182
559.86399
420.58319
317.20788
240.66776
183.96876
142.04343
110.88355
87.885868
70.896069
58.322027
48.986843
41.944211
36.58123
32.427836
29.159212
26.519134
24.323459
22.465903
20.872651
19.490713
18.282122
17.21912
16.280901
15.451395
14.717796
14.069627
13.497994
12.995183
12.554405
12.169573
11.83512
11.545923
11.297231
11.084305
10.90331
10.751452
10.626718
10.526218
10.445381
10.381583
10.332582
10.296619
10.27172
10.254793
10.242215
10.232142
10.221559
10.211584
10.198049
10.185449
10.164776
10.148158
10.117929
10.099984
10.056528
10.04034
10.008407
10.003212
9.9760537
9.9828684
9.9523647
9.9822695
9.9516636
10.00451
9.9640024
10.003648
36673.08
20092.513
12955.866
8336.6489
4655.289
2267.2568
1038.7027
498.2975
280.43325
188.93334
146.39733
121.02507
104.32915
91.061872
80.734085
72.144268
64.649656
58.734446
53.174177
48.730727
44.472464
41.001278
37.778144
34.944809
32.413883
30.058452
27.974664
26.090261
24.384317
22.818567
21.388873
20.098821
18.937374
17.891629
16.950688
16.104876
15.345689
14.66552
14.057564
13.515741
13.034392
12.608348
12.232875
11.903518
11.616086
11.366607
11.151318
10.966181
10.808435
10.676266
10.568368
10.480982
10.410068
10.354235
10.311606
10.28147
10.261196
10.247524
10.236798
10.227961
10.217712
10.208328
10.194462
10.182418
10.160799
10.145142
10.113527
10.097343
10.052374
10.039551
10.006139
10.003667
9.9748778
9.9840066
9.9517093
9.9839972
9.951638
10.006371
9.9643416
10.005184
33917.092
23432.211
13785.603
7750.9772
3595.412
1418.6142
560.81295
281.19775
192.87565
152.71306
129.99521
111.55493
98.378214
86.552391
77.397264
69.493989
62.436983
57.049061
51.644675
47.520913
43.329278
40.101459
36.872674
34.230103
31.675506
29.476834
27.3981
25.596554
23.904573
22.378751
21.002294
19.761081
18.643013
17.63589
16.729096
15.913359
15.180616
14.523654
13.936044
13.411993
12.946141
12.533593
12.169838
11.850634
11.571961
11.330004
11.121143
10.941438
10.788336
10.660175
10.55548
10.469924
10.400421
10.345781
10.304593
10.276093
10.257084
10.244332
10.234236
10.225853
10.215904
10.20676
10.193055
10.181128
10.159598
10.14399
10.112495
10.096446
10.052266
10.040258
10.006421
10.004831
9.9754727
9.9854047
9.9525995
9.9855157
9.9526321
10.008162
9.9653149
10.006811
35918.642
23037.131
13339.417
7269.7324
3263.4278
1240.2947
492.08358
259.20849
184.42194
147.334
125.80064
107.83392
95.243968
83.820749
75.25724
67.462599
61.086724
55.37814
50.538286
46.213839
42.456401
39.062236
36.08348
33.38495
30.979765
28.798928
26.837289
25.046053
23.425549
21.960212
20.637536
19.44436
18.368151
17.397552
16.522646
15.734788
15.026466
14.390913
13.822079
13.314474
12.863011
12.46304
12.110249
11.800569
11.530135
11.295273
11.092488
10.917926
10.769238
10.644888
10.543043
10.459137
10.390955
10.337446
10.298129
10.271177
10.253362
10.241434
10.23194
10.22392
10.214291
10.205283
10.191809
10.179856
10.158553
10.142786
10.111645
10.095367
10.05208
10.040082
10.006665
10.004453
9.9761086
9.9856958
9.9534727
9.9862665
9.9535994
10.009561
9.9662676
10.008255
36479.437
22713.848
12954.649
6714.7708
2740.8263
957.00429
390.30385
227.64716
173.96361
141.22479
121.74079
104.24202
92.32892
81.135659
73.027248
65.431601
59.329045
53.791442
49.151307
44.975221
41.348921
38.104742
35.224959
32.634757
30.309063
28.208165
26.30729
24.581133
23.014779
21.597901
20.319029
19.164767
18.123117
17.183195
16.335541
15.571895
14.885078
14.268606
13.716671
13.223989
12.785674
12.397262
12.054598
11.75375
11.490984
11.262744
11.065644
10.895902
10.751363
10.630605
10.531147
10.448727
10.381775
10.329935
10.29241
10.266883
10.250147
10.238953
10.229982
10.222274
10.212904
10.204003
10.190711
10.178721
10.157601
10.141678
10.110848
10.094476
10.052073
10.040361
10.007077
10.005135
9.9767586
9.9866267
9.9543812
9.9872463
9.9545972
10.01105
9.9672336
10.009717
37416.406
22455.714
12522.625
6154.0358
2381.0383
800.91312
343.44149
214.67117
168.62389
137.9001
118.98364
101.78004
90.18713
79.118215
71.272105
63.810338
57.925612
52.524216
48.037236
43.971656
40.459363
37.299189
34.505724
31.98713
29.731094
27.691002
25.847274
24.169715
22.648701
21.27344
20.032225
18.91185
17.90057
16.987815
16.164434
15.422461
14.754986
14.155756
13.619157
13.140075
12.7138
12.336018
12.0027
11.710035
11.454396
11.232326
11.040537
10.875305
10.73466
10.617277
10.519684
10.438617
10.373132
10.323284
10.287417
10.263177
10.247404
10.236851
10.228328
10.220869
10.211714
10.202874
10.189739
10.177674
10.156733
10.140618
10.110112
10.093645
10.052037
10.040295
10.007373
10.005506
9.9773917
9.9872756
9.955295
9.9880971
9.955598
10.012489
9.9681999
10.01115
38173.906
22100.999
12033.597
5600.499