/*--------------------------------*- C++ -*----------------------------------*\
  =========                 |
  \\      /  F ield         | OpenFOAM: The Open Source CFD Toolbox
   \\    /   O peration     | Website:  https://openfoam.org
    \\  /    A nd           | Version:  6
     \\/     M anipulation  |
\*---------------------------------------------------------------------------*/
FoamFile
{
    version     2.0;
    format      ascii;
    class       volScalarField;
    location    "850";
    object      p;
}
// * * * * * * * * * * * * * * * * * * * * * * * * * * * * * * * * * * * * * //

dimensions      [1 -1 -2 0 0 0 0];

internalField   nonuniform List<scalar> 
16000
(
99118.48
99176.365
99180.335
99236.056
99248.173
99299.006
99320.252
99366.727
99395.738
99439.647
99474.501
99517.587
99556.642
99600.116
99642.212
99686.722
99731.085
99776.849
99822.93
99869.877
99917.22
99965.092
100013.25
100061.66
100110.15
100158.62
100206.9
100254.88
100302.38
100349.25
100395.35
100440.49
100484.54
100527.33
100568.7
100608.5
100646.61
100682.88
100717.19
100749.43
100779.51
100807.35
100832.87
100856.02
100876.76
100895.07
100910.94
100924.37
100935.38
100943.99
100950.24
100954.18
100955.87
100955.36
100952.73
100948.04
100941.38
100932.82
100922.44
100910.33
100896.54
100881.2
100864.3
100846.08
100826.26
100805.58
100782.78
100760.37
100733.79
100711.53
100678.05
100661.34
100612.38
100617.58
100524.64
100592.63
100388.89
100619.69
100189.46
100675.13
99170.986
99233.015
99236.952
99297.142
99309.596
99364.554
99386.851
99436.932
99467.685
99514.768
99551.851
99597.84
99639.389
99685.612
99730.295
99777.446
99824.366
99872.648
99921.164
99970.455
100020.03
100070
100120.1
100170.29
100220.36
100270.18
100319.6
100368.45
100416.56
100463.75
100509.86
100554.72
100598.15
100640.01
100680.12
100718.35
100754.57
100788.64
100820.47
100849.97
100877.06
100901.68
100923.79
100943.37
100960.41
100974.91
100986.91
100996.43
101003.52
101008.24
101010.65
101010.84
101008.87
101004.83
100998.8
100990.88
100981.14
100969.68
100956.58
100941.92
100925.78
100908.24
100889.35
100869.23
100847.83
100825.42
100801.59
100777.27
100750.71
100725.37
100694.48
100671.13
100630.03
100620.12
100548.65
100584.97
100422.12
100600.82
100221.37
100660.86
99244.804
99311.892
99315.852
99380.88
99394.081
99453.241
99477.11
99530.785
99563.758
99614.017
99653.703
99702.636
99746.943
99795.976
99843.412
99893.253
99942.812
99993.621
100044.57
100096.15
100147.88
100199.81
100251.69
100303.41
100354.78
100405.65
100455.81
100505.1
100553.32
100600.29
100645.82
100689.75
100731.88
100772.07
100810.17
100846.03
100879.54
100910.58
100939.09
100964.99
100988.23
101008.79
101026.66
101041.86
101054.4
101064.34
101071.74
101076.65
101079.17
101079.37
101077.37
101073.24
101067.1
101059.05
101049.18
101037.6
101024.41
101009.69
100993.54
100976.03
100957.25
100937.27
100916.15
100893.96
100870.71
100846.52
100821.26
100795.28
100767.91
100740.54
100710.25
100682.99
100646.18
100626.23
100568.26
100583.34
100449.46
100586.55
100248.93
100649.13
99341.36
99413.9
99417.915
99488.318
99502.376
99566.214
99591.877
99649.533
99685.03
99738.79
99781.402
99833.563
99880.922
99933.011
99983.44
100036.16
100088.53
100141.98
100195.45
100249.34
100303.18
100356.99
100410.48
100463.54
100515.93
100567.47
100617.96
100667.19
100714.96
100761.07
100805.33
100847.56
100887.58
100925.24
100960.4
100992.94
101022.76
101049.78
101073.94
101095.22
101113.61
101129.1
101141.75
101151.6
101158.72
101163.2
101165.13
101164.62
101161.78
101156.75
101149.63
101140.56
101129.65
101117.03
101102.82
101087.12
101070.05
101051.69
101032.14
101011.48
100989.79
100967.13
100943.56
100919.13
100893.87
100867.83
100840.99
100813.46
100784.98
100756.08
100725.55
100695.93
100661.24
100635.25
100585.52
100585.41
100474.05
100578.34
100276.95
100649.47
99460.267
99538.999
99543.283
99619.808
99635.054
99704.126
99732.023
99794.058
99832.541
99890.117
99936.064
99991.721
100042.46
100097.82
100151.46
100207.22
100262.5
100318.65
100374.63
100430.77
100486.6
100542.09
100596.93
100650.97
100703.96
100755.68
100805.91
100854.43
100901.02
100945.47
100987.59
101027.2
101064.13
101098.24
101129.42
101157.56
101182.6
101204.5
101223.23
101238.82
101251.3
101260.72
101267.16
101270.74
101271.55
101269.73
101265.42
101258.76
101249.91
101239.02
101226.23
101211.7
101195.56
101177.96
101159.02
101138.86
101117.6
101095.32
101072.13
101048.1
101023.31
100997.8
100971.63
100944.84
100917.46
100889.51
100860.98
100831.9
100802.17
100771.95
100740.74
100709.52
100675.63
100645.66
100601.59
100589.34
100496.46
100574.64
100303.45
100652.46
99604.578
99690.547
99695.14
99778.378
99794.937
99869.633
99900.069
99966.746
100008.58
100070.19
100119.8
100179.16
100233.52
100292.33
100349.36
100408.24
100466.51
100525.36
100583.78
100642.04
100699.65
100756.52
100812.33
100866.88
100919.9
100971.15
101020.38
101067.36
101111.86
101153.68
101192.61
101228.49
101261.17
101290.54
101316.52
101339.03
101358.07
101373.62
101385.74
101394.47
101399.92
101402.2
101401.43
101397.77
101391.39
101382.46
101371.15
101357.66
101342.17
101324.85
101305.88
101285.43
101263.67
101240.72
101216.74
101191.85
101166.15
101139.76
101112.74
101085.19
101057.15
101028.69
100999.83
100970.62
100941.05
100911.15
100880.9
100850.3
100819.28
100787.87
100755.85
100723.49
100689.79
100657.3
100617.12
100595.62
100517.9
100574.32
100330.02
100659.19
99775.281
99869.481
99874.183
99964.835
99982.918
100063.68
100097.07
100168.7
100214.33
100280.26
100333.94
100397.24
100455.54
100517.98
100578.57
100640.68
100701.96
100763.45
100824.18
100884.32
100943.37
101001.19
101057.43
101111.84
101164.14
101214.06
101261.34
101305.73
101347.01
101384.96
101419.43
101450.26
101477.33
101500.59
101519.97
101535.49
101547.16
101555.07
101559.3
101559.98
101557.26
101551.32
101542.35
101530.56
101516.16
101499.36
101480.4
101459.48
101436.82
101412.62
101387.09
101360.39
101332.7
101304.17
101274.95
101245.15
101214.89
101184.25
101153.32
101122.17
101090.84
101059.38
101027.81
100996.15
100964.4
100932.55
100900.6
100868.51
100836.22
100803.71
100770.85
100737.64
100703.78
100669.79
100632.37
100604.25
100538.95
100576.04
100356.76
100669.53
99972.082
100075.62
100080.59
100179.59
100199.66
100287.11
100324.08
100401.13
100451.19
100521.81
100580.07
100647.64
100710.23
100776.52
100840.84
100906.23
100970.5
101034.48
101097.28
101158.92
101218.92
101277.06
101332.98
101386.38
101436.95
101484.42
101528.51
101568.98
101605.62
101638.25
101666.72
101690.93
101710.83
101726.39
101737.64
101744.64
101747.5
101746.36
101741.39
101732.79
101720.77
101705.59
101687.49
101666.72
101643.56
101618.25
101591.07
101562.24
101532.02
101500.61
101468.23
101435.06
101401.28
101367.04
101332.47
101297.7
101262.83
101227.93
101193.09
101158.34
101123.74
101089.31
101055.06
101020.99
100987.1
100953.38
100919.78
100886.26
100852.78
100819.27
100785.63
100751.8
100717.66
100682.9
100647.25
100614.56
100559.89
100579.75
100385.16
100682.3
100196.15
100310.44
100315.87
100424.29
100446.9
100541.73
100583.03
100665.99
100721.18
100796.92
100860.28
100932.46
100999.65
101069.98
101138.13
101206.76
101273.86
101340.06
101404.47
101467.03
101527.23
101584.8
101639.33
101690.52
101738.04
101781.6
101820.94
101855.83
101886.11
101911.62
101932.29
101948.08
101959
101965.11
101966.53
101963.41
101955.93
101944.32
101928.84
101909.77
101887.39
101862.02
101833.95
101803.5
101770.97
101736.65
101700.84
101663.78
101625.74
101586.94
101547.58
101507.87
101467.96
101428
101388.12
101348.43
101309.01
101269.93
101231.25
101193.01
101155.23
101117.92
101081.09
101044.73
101008.81
100973.3
100938.16
100903.33
100868.76
100834.37
100800.06
100765.77
100731.37
100696.38
100661.85
100626.29
100580.64
100585.33
100415.25
100696.21
100449.27
100575.95
100582.08
100701.09
100726.91
100829.85
100876.32
100965.72
101026.78
101108.06
101177.05
101254.14
101326.2
101400.66
101472.6
101544.29
101613.86
101681.72
101747.04
101809.61
101868.93
101924.65
101976.37
102023.74
102066.46
102104.24
102136.86
102164.14
102185.97
102202.27
102213.05
102218.36
102218.32
102213.09
102202.89
102187.97
102168.63
102145.17
102117.95
102087.32
102053.64
102017.27
101978.57
101937.9
101895.58
101851.93
101807.26
101761.83
101715.89
101669.68
101623.39
101577.2
101531.27
101485.73
101440.68
101396.22
101352.42
101309.34
101267
101225.43
101184.65
101144.64
101105.4
101066.89
101029.09
100991.95
100955.41
100919.42
100883.9
100848.78
100813.95
100779.36
100744.79
100709.99
100676.14
100639.19
100601.02
100592.7
100446.65
100710.11
100733.62
100874.53
100881.55
101012.41
101042.21
101154.02
101206.63
101303.01
101370.76
101458.03
101533.15
101615.4
101692.47
101771.01
101846.51
101920.82
101992.2
102060.85
102125.95
102187.2
102244.08
102296.2
102343.15
102384.61
102420.27
102449.93
102473.41
102490.62
102501.54
102506.21
102504.76
102497.35
102484.24
102465.7
102442.08
102413.74
102381.08
102344.52
102304.48
102261.39
102215.66
102167.73
102117.96
102066.76
102014.45
101961.38
101907.84
101854.09
101800.38
101746.92
101693.89
101641.46
101589.76
101538.89
101488.95
101440
101392.1
101345.27
101299.54
101254.91
101211.36
101168.88
101127.45
101087.01
101047.53
101008.95
100971.2
100934.22
100897.94
100862.25
100827.07
100792.34
100757.78
100723.46
100690.03
100652.89
100620.64
100601.44
100478.21
100722.9
101050.44
101207.97
101216.41
101360.64
101395.56
101517.12
101577.06
101681.08
101756.37
101850.07
101931.75
102019.3
102101.34
102183.65
102262.16
102338.24
102410.31
102478.37
102541.58
102599.59
102651.85
102697.98
102737.59
102770.41
102796.2
102814.85
102826.29
102830.57
102827.8
102818.17
102801.96
102779.49
102751.15
102717.38
102678.64
102635.41
102588.2
102537.5
102483.82
102427.65
102369.44
102309.64
102248.66
102186.88
102124.66
102062.32
102000.13
101938.34
101877.17
101816.82
101757.43
101699.14
101642.06
101586.26
101531.81
101478.76
101427.11
101376.9
101328.11
101280.73
101234.73
101190.07
101146.71
101104.61
101063.69
101023.9
100985.17
100947.41
100910.55
100874.5
100839.18
100804.48
100770.14
100736.5
100703.4
100667.03
100639.29
100611.02
100509.57
100735.21
101403.39
101580.16
101590.58
101749.75
101791.05
101923.23
101991.76
102103.98
102187.6
102288.07
102376.5
102469.21
102555.81
102641.16
102721.58
102798.03
102869.02
102934.37
102993.28
103045.34
103090.03
103127
103155.96
103176.73
103189.21
103193.42
103189.49
103177.62
103158.13
103131.4
103097.86
103058.04
103012.48
102961.75
102906.45
102847.17
102784.49
102718.99
102651.22
102581.7
102510.91
102439.3
102367.27
102295.21
102223.43
102152.23
102081.86
102012.53
101944.43
101877.71
101812.5
101748.88
101686.93
101626.71
101568.24
101511.54
101456.61
101403.44
101352
101302.25
101254.15
101207.65
101162.7
101119.22
101077.15
101036.41
100996.94
100958.64
100921.44
100885.24
100849.97
100815.5
100781.63
100748.83
100716.1
100681.35
100657.11
100621.47
100540.24
100746.77
101795.89
101994.94
102008.11
102183.96
102233.21
102376.82
102455.32
102576.25
102668.81
102776.17
102871.22
102968.53
103058.72
103145.7
103226.19
103300.74
103367.97
103427.55
103478.76
103521.17
103554.38
103578.16
103592.35
103596.96
103592.1
103578.01
103555.05
103523.65
103484.36
103437.77
103384.54
103325.34
103260.88
103191.86
103118.99
103042.94
102964.36
102883.86
102802
102719.3
102636.25
102553.27
102470.73
102388.97
102308.28
102228.91
102151.05
102074.89
102000.56
101928.16
101857.79
101789.5
101723.32
101659.27
101597.36
101537.56
101479.86
101424.2
101370.56
101318.88
101269.09
101221.12
101174.92
101130.4
101087.48
101046.09
101006.15
100967.57
100930.26
100894.14
100859.14
100825.09
100791.95
100760.08
100727.95
100695.51
100673.68
100632.66
100570.03
100757.12
102231.75
102456.71
102473.73
102668.07
102727.09
102882.93
102973.05
103103.24
103204.99
103318.88
103419.82
103520.38
103612.28
103698.49
103776.09
103845.29
103904.84
103954.36
103993.24
104021.19
104037.99
104043.6
104038.14
104021.89
103995.25
103958.75
103913.03
103858.82
103796.88
103728.06
103653.18
103573.09
103488.64
103400.61
103309.77
103216.85
103122.5
103027.34
102931.9
102836.69
102742.13
102648.6
102556.42
102465.87
102377.19
102290.55
102206.11
102124
102044.29
101967.04
101892.3
101820.08
101750.38
101683.18
101618.45
101556.15
101496.23
101438.63
101383.28
101330.12
101279.06
101230.03
101182.95
101137.73
101094.29
101052.55
101012.42
100973.82
100936.66
100900.86
100866.34
100832.94
100800.74
100769.89
100738.63
100708.91
100688.4
100644.26
100598.69
100765.32
102716.25
102971.29
102993.54
103207.87
103278.68
103447.36
103550.57
103690.51
103801.23
103920.32
104025.37
104126.75
104217.17
104298.81
104369.05
104427.91
104474.33
104508.03
104528.62
104536.08
104530.49
104512.19
104481.65
104439.52
104386.58
104323.69
104251.82
104171.97
104085.16
103992.4
103894.71
103793.02
103688.27
103581.27
103472.82
103363.62
103254.29
103145.4
103037.43
102930.81
102825.9
102723.01
102622.37
102524.2
102428.66
102335.87
102245.92
102158.86
102074.74
101993.56
101915.31
101839.98
101767.52
101697.88
101631
101566.83
101505.27
101446.26
101389.71
101335.54
101283.66
101233.97
101186.39
101140.83
101097.21
101055.42
101015.4
100977.04
100940.28
100905.03
100871.21
100838.68
100807.63
100777.87
100747.86
100721.07
100701.13
100656.1
100625.85
100770.91
103255.09
103545.28
103575.35
103811.69
103897.88
104080.48
104195.64
104342.12
104461.21
104583.54
104689.53
104787.71
104871.66
104942.95
104999.4
105040.99
105067.01
105077.48
105072.44
105052.3
105017.63
104969.24
104908.09
104835.26
104751.94
104659.36
104558.77
104451.42
104338.51
104221.19
104100.54
103977.56
103853.14
103728.12
103603.21
103479.03
103356.15
103235.02
103116.05
102999.56
102885.81
102775.02
102667.36
102562.93
102461.84
102364.13
102269.82
102178.92
102091.42
102007.26
101926.41
101848.81
101774.37
101703.02
101634.68
101569.26
101506.66
101446.78
101389.54
101334.83
101282.56
101232.62
101184.93
101139.38
101095.89
101054.37
101014.73
100976.89
100940.76
100906.29
100873.37
100841.93
100812.16
100783.57
100755.2
100731.33
100711.2
100667.26
100650.79
100773.9
103855.31
104187.02
104229.46
104488.54
104591.9
104785.45
104913.43
105067.18
105190.07
105311.18
105412.24
105500.35
105570.04
105622.49
105656.15
105671.26
105667.73
105646.1
105607.07
105551.68
105481.12
105396.77
105300.12
105192.71
105076.1
104951.81
104821.31
104686
104547.15
104405.94
104263.44
104120.58
103978.17
103836.94
103697.48
103560.31
103425.86
103294.46
103166.38
103041.86
102921.03
102804.02
102690.9
102581.71
102476.45
102375.12
102277.68
102184.06
102094.22
102008.06
101925.51
101846.46
101770.82
101698.48
101629.34
101563.28
101500.21
101440
101382.55
101327.76
101275.52
101225.72
101178.28
101133.08
101090.04
101049.07
101010.08
100973
100937.75
100904.26
100872.42
100842.25
100813.86
100786.56
100760.18
100738.92
100718.06
100677.12
100672.31
100773.97
104543.14
104918.69
104974.41
105252.17
105368.98
105571.56
105710.14
105866.62
105988.1
106100.08
106187.11
106254.79
106299.09
106321.21
106320.57
106298.05
106254.47
106191.19
106109.74
106011.93
105899.62
105774.79
105639.39
105495.31
105344.37
105188.24
105028.48
104866.45
104703.4
104540.41
104378.39
104218.13
104060.3
103905.44
103753.99
103606.31
103462.67
103323.26
103188.24
103057.7
102931.68
102810.22
102693.28
102580.83
102472.82
102369.16
102269.77
102174.55
102083.39
101996.17
101912.77
101833.08
101756.97
101684.32
101615
101548.9
101485.88
101425.83
101368.64
101314.19
101262.38
101213.09
101166.23
101121.69
101079.39
101039.24
101001.15
100965.06
100930.88
100898.55
100867.98
100839.22
100812.28
100786.42
100762.17
100742.99
100721.59
100685.45
100689.43
100770.73
105317.32
105735.27
105800.13
106091.37
106236.88
106458.52
106595.59
106742.86
106850.74
106939.99
106998.73
107031.34
107035.59
107013.22
106964.98
106892.81
106798.67
106684.95
106554.08
106408.59
106250.98
106083.64
105908.79
105728.49
105544.6
105358.74
105172.34
104986.62
104802.62
104621.19
104443.05
104268.75
104098.74
103933.36
103772.88
103617.46
103467.22
103322.23
103182.49
103048
102918.7
102794.52
102675.37
102561.14
102451.71
102346.96
102246.76
102150.96
102059.43
101972.01
101888.58
101808.99
101733.09
101660.75
101591.83
101526.2
101463.73
101404.3
101347.78
101294.07
101243.04
101194.58
101148.61
101105.02
101063.72
101024.62
100987.65
100952.73
100919.81
100888.8
100859.64
100832.42
100807
100782.73
100760.63
100743.32
100722.58
100691.13
100700.8
100763.79
106178.11
106639.32
106734.69
107063.65
107211.61
107418.05
107551.72
107675.22
107754.47
107804.07
107816.66
107796.6
107744.02
107661.99
107553
107420.34
107267.26
107097.08
106913.03
106718.13
106515.2
106306.73
106094.94
105881.77
105668.84
105457.53
105248.96
105044.06
104843.55
104647.99
104457.82
104273.35
104094.78
103922.25
103755.83
103595.52
103441.3
103293.11
103150.83
103014.37
102883.59
102758.34
102638.46
102523.81
102414.21
102309.5
102209.51
102114.08
102023.03
101936.21
101853.46
101774.62
101699.53
101628.06
101560.06
101495.38
101433.89
101375.48
101320
101267.36
101217.42
101170.1
101125.28
101082.87
101042.79
101004.95
100969.28
100935.71
100904.18
100874.61
100846.98
100821.36
100797.53
100774.96
100755.08
100739.63
100719.71
100691.74
100706.25
100754.24
107169.99
107687.23
107806.98
108127.04
108279.87
108462.5
108566.76
108644.06
108668.93
108654.63
108598.04
108505
108378.32
108222.86
108042.86
107842.88
107627.08
107399.39
107163.31
106921.92
106677.89
106433.44
106190.44
105950.4
105714.52
105483.74
105258.77
105040.16
104828.27
104623.35
104425.54
104234.9
104051.44
103875.08
103705.73
103543.26
103387.52
103238.34
103095.53
102958.91
102828.27
102703.43
102584.17
102470.29
102361.61
102257.93
102159.06
102064.81
101975
101889.46
101808.01
101730.5
101656.75
101586.63
101519.98
101456.66
101396.53
101339.47
101285.36
101234.08
101185.51
101139.56
101096.11
101055.1
101016.42
100980
100945.77
100913.67
100883.63
100855.59
100829.55
100805.56
100783.3
100762.51
100744.73
100730.64
100711.72
100688.56
100705.12
100740.01
108332.7
108874.08
109003.47
109300
109424.48
109551.44
109592.75
109591.62
109532.11
109427.67
109280.03
109097.08
108884.29
108648.09
108393.95
108127.02
107851.71
107571.82
107290.5
107010.34
106733.4
106461.29
106195.24
105936.16
105684.7
105441.32
105206.27
104979.71
104761.66
104552.08
104350.87
104157.88
103972.91
103795.76
103626.21
103464.01
103308.93
103160.71
103019.11
102883.89
102754.81
102631.63
102514.12
102402.05
102295.22
102193.41
102096.42
102004.05
101916.11
101832.42
101752.81
101677.11
101605.15
101536.78
101471.86
101410.23
101351.78
101296.37
101243.89
101194.21
101147.23
101102.85
101060.97
101021.5
100984.37
100949.49
100916.81
100886.27
100857.8
100831.34
100806.93
100784.55
100763.88
100744.89
100729.05
100716.04
100698.68
100680.46
100696.51
100719.77
109645.6
110169.05
110277.4
110511.86
110571.97
110604.17
110545
110432.07
110260.19
110044.56
109791.65
109511.24
109210.54
108896.52
108574.73
108249.89
107925.68
107605.02
107290.11
106982.61
106683.67
106394.09
106114.39
105844.83
105585.54
105336.48
105097.53
104868.52
104649.2
104439.29
104238.52
104046.56
103863.1
103687.84
103520.45
103360.62
103208.07
103062.48
102923.59
102791.11
102664.78
102544.34
102429.55
102320.17
102215.99
102116.77
102022.31
101932.41
101846.88
101765.55
101688.22
101614.74
101544.94
101478.68
101415.8
101356.18
101299.67
101246.16
101195.52
101147.65
101102.44
101059.8
101019.63
100981.84
100946.37
100913.13
100882.08
100853.14
100826.27
100801.42
100778.62
100757.8
100738.7
100721.48
100707.32
100695.26
100679.78
100666.11
100680.16
100694.07
110977.11
111494.7
111560.63
111681.63
111627.1
111515.24
111314.34
111059.53
110756.32
110421.26
110063.62
109693.15
109316.75
108940.15
108567.53
108202.03
107845.84
107500.46
107166.85
106845.55
106536.8
106240.61
105956.85
105685.27
105425.55
105177.3
104940.14
104713.65
104497.4
104290.97
104093.96
103905.96
103726.58
103555.45
103392.21
103236.52
103088.04
102946.47
102811.5
102682.85
102560.25
102443.42
102332.14
102226.15
102125.24
102029.18
101937.78
101850.82
101768.14
101689.54
101614.86
101543.92
101476.59
101412.7
101352.12
101294.72
101240.36
101188.93
101140.31
101094.4
101051.1
101010.31
100971.94
100935.92
100902.17
100870.63
100841.23
100813.92
100788.65
100765.38
100744.14
100724.81
100707.22
100691.66
100678.92
100667.71
100654.27
100644.4
100655.67
100662.34
112485.57
112823.93
112774.4
112684.24
112447.45
112146.2
111779.62
111377.48
110950.8
110513.58
110073.97
109638.86
109212.62
108798.38
108398.07
108012.83
107643.2
107289.29
106950.95
106627.85
106319.53
106025.47
105745.1
105477.83
105223.08
104980.26
104748.81
104528.19
104317.89
104117.4
103926.27
103744.06
103570.34
103404.72
103246.83
103096.32
102952.85
102816.1
102685.79
102561.62
102443.32
102330.64
102223.33
102121.17
102023.93
101931.4
101843.38
101759.68
101680.11
101604.52
101532.72
101464.57
101399.9
101338.59
101280.49
101225.47
101173.42
101124.21
101077.75
101033.92
100992.63
100953.79
100917.31
100883.12
100851.15
100821.34
100793.62
100767.94
100744.26
100722.55
100702.8
100684.91
100668.77
100654.71
100643.18
100632.81
100621.39
100614.49
100622.74
100624.47
113806.39
113769.59
113516.91
113170.16
112734.86
112258.12
111755.09
111245.64
110739.25
110244.04
109764.28
109302.85
108860.89
108438.86
108036.7
107653.97
107290
106944
106615.13
106302.52
106005.33
105722.74
105453.94
105198.14
104954.63
104722.77
104501.93
104291.53
104091.05
103900
103717.89
103544.31
103378.83
103221.09
103070.71
102927.35
102790.7
102660.44
102536.3
102418
102305.29
102197.92
102095.68
101998.34
101905.69
101817.53
101733.69
101653.97
101578.21
101506.25
101437.92
101373.08
101311.59
101253.32
101198.13
101145.9
101096.52
101049.88
101005.87
100964.4
100925.38
100888.71
100854.32
100822.14
100792.1
100764.13
100738.18
100714.2
100692.14
100671.99
100653.71
100637.21
100622.46
100609.73
100599.19
100589.58
100579.93
100575.39
100581.6
100578.81
114199.47
113875.02
113432.64
112912.99
112362.24
111804.34
111253.38
110718.58
110204.2
109712.71
109244.67
108799.99
108378.06
107977.92
107598.36
107238.16
106896.17
106571.27
106262.42
105968.66
105689.06
105422.83
105169.28
104927.73
104697.53
104478.09
104268.85
104069.3
103878.95
103697.36
103524.11
103358.8
103201.07
103050.57
102906.96
102769.94
102639.21
102514.53
102395.64
102282.32
102174.32
102071.43
101973.43
101880.12
101791.32
101706.82
101626.47
101550.08
101477.5
101408.58
101343.16
101281.11
101222.29
101166.57
101113.84
101063.97
101016.86
100972.39
100930.48
100891.02
100853.92
100819.11
100786.51
100756.04
100727.63
100701.24
100676.79
100654.24
100633.55
100614.69
100597.62
100582.28
100568.65
100556.91
100547.06
100538.34
100530.46
100526.39
100528.5
100526.22
112775.36
112521.48
112144.95
111679.34
111194.59
110702.73
110219.89
109751.19
109300.11
108867.92
108454.89
108060.77
107684.89
107326.62
106985.17
106659.77
106349.62
106053.94
105772
105503.1
105246.54
105001.67
104767.89
104544.74
104331.72
104128.36
103934.22
103748.89
103571.94
103403.02
103241.77
103087.84
102940.92
102800.7
102666.92
102539.3
102417.59
102301.55
102190.91
102085.45
101984.95
101889.21
101798.03
101711.24
101628.65
101550.1
101475.42
101404.47
101337.09
101273.14
101212.49
101155
101100.55
101049.03
101000.31
100954.28
100910.85
100869.91
100831.37
100795.14
100761.13
100729.27
100699.47
100671.67
100645.81
100621.82
100599.65
100579.24
100560.56
100543.57
100528.24
100514.51
100502.38
100491.93
100483.09
100475.56
100469.35
100465.62
100465.07
100463.88
108052.37
109117.66
109289.78
109354.79
109222.39
109017.73
108754.62
108464.65
108158.6
107847.12
107535.45
107227.69
106926.15
106632.45
106347.51
106071.89
105805.88
105549.57
105302.91
105065.78
104838.02
104619.41
104409.65
104208.42
104015.43
103830.39
103653.02
103483.06
103320.22
103164.27
103014.95
102872.03
102735.27
102604.45
102479.38
102359.84
102245.63
102136.51
102032.3
101932.82
101837.89
101747.35
101661.04
101578.79
101500.47
101425.92
101355.02
101287.61
101223.57
101162.78
101105.11
101050.45
100998.68
100949.69
100903.38
100859.64
100818.38
100779.51
100742.93
100708.56
100676.32
100646.13
100617.91
100591.61
100567.14
100544.47
100523.52
100504.24
100486.6
100470.54
100456.04
100443.05
100431.56
100421.56
100413.02
100405.86
100400.12
100395.99
100393.58
100392.51
110365.91
110407.96
110287.68
110042.6
109684.46
109257.47
108789.3
108299.14
107799.55
107296.66
106804.16
106321.84
105859.63
105413.89
104987.49
104594.07
104229.85
103903.13
103609.05
103345.98
103112.65
102905.53
102722.58
102560.75
102417.74
102290.06
102174.09
102068
101971.76
101888.8
101814.47
101745.59
101681.53
101621.34
101564.4
101510.23
101458.51
101409.03
101361.64
101316.23
101272.72
101231.06
101191.18
101153.05
101116.6
101081.8
101048.59
101016.91
100986.69
100957.88
100930.41
100904.22
100879.19
100855.33
100832.39
100810.57
100789.3
100769.24
100749.07
100730.61
100710.76
100694.04
100673.25
100659.05
100635.16
100625.48
100594.77
100593.78
100549.81
100565.1
100495.94
100542.31
100430.24
100529.09
100347.18
100530.98
100241.11
100553.69
100105.49
100608.72
97190.352
97386.98
97765.328
98172.942
98614.24
99089.014
99495.787
99844.279
100170.18
100462.81
100715.27
100935.49
101125.35
101287.04
101423.98
101537.82
101632.51
101707.19
101763.83
101803.86
101830.72
101844.42
101847.5
101840.14
101824.5
101801.27
101772.83
101740.65
101704.58
101666.53
101626.75
101585.55
101542.67
101499.13
101455.64
101412.58
101370.3
101329.03
101288.93
101250.11
101212.61
101176.47
101141.68
101108.25
101076.16
101045.39
101015.9
100987.66
100960.63
100934.77
100910.01
100886.34
100863.61
100841.88
100820.88
100800.84
100781.19
100762.59
100743.79
100726.48
100707.81
100691.9
100672.22
100658.39
100635.77
100625.85
100596.78
100594.64
100553.08
100566.42
100501.51
100543.57
100437.06
100530.71
100353.51
100533.38
100245.3
100559.58
100106.15
100617.17
104085.91
104119.62
104118.88
104092.2
104037.23
103960.26
103867.62
103762.86
103649.57
103532.21
103411.5
103290.22
103168.83
103049.07
102931.02
102817.26
102705.44
102602.14
102501.19
102409.53
102316.15
102233.75
102148.57
102074.65
102003.05
101938.04
101880.16
101824.92
101773.96
101712.94
101655.41
101601.24
101549.46
101500.12
101452.95
101407.76
101364.4
101322.74
101282.67
101244.14
101207.09
101171.49
101137.3
101104.5
101073.05
101042.92
101014.08
100986.5
100960.12
100934.9
100910.77
100887.7
100865.56
100844.4
100823.93
100804.38
100785.18
100767.01
100748.55
100731.58
100713.14
100697.46
100677.93
100664.19
100641.65
100631.61
100602.63
100600.16
100558.35
100571.22
100506.96
100547.26
100442.81
100533.18
100359.55
100534.95
100250.83
100561.24
100110.09
100620.03
101647.37
101649.53
101657.37
101672.33
101691.43
101711.01
101731.21
101752.88
101774.32
101796.02
101816.26
101835.46
101852.19
101866.36
101876.73
101883.55
101885.46
101883.56
101877.01
101866.82
101852.79
101835.66
101815.33
101790.1
101760.35
101726.81
101691.02
101653.09
101614.97
101576.91
101538.17
101499.46
101460.82
101422.4
101384.38
101346.92
101310.15
101274.19
101239.12
101205.04
101171.98
101140.01
101109.13
101079.36
101050.72
101023.19
100996.75
100971.4
100947.09
100923.79
100901.44
100880.03
100859.42
100839.66
100820.49
100802.14
100784.01
100766.82
100749.22
100733.06
100715.27
100700.25
100681.14
100667.94
100645.59
100636.04
100607.02
100605.04
100563.11
100576.31
100511.56
100552.42
100446.6
100538.18
100363.23
100539.87
100253.9
100565.7
100112.32
100624.02
102029.28
102036.82
102037.87
102036.48
102033.48
102028.29
102021.5
102014.04
102005.27
101995.67
101984.3
101972.75
101958.55
101943.91
101927.14
101908.59
101889.29
101866.13
101843.32
101816.07
101789.8
101758.83
101728.94
101695.84
101663.77
101629.76
101596.84
101562.16
101527.87
101493.38
101458.95
101424.69
101390.7
101357.07
101323.89
101291.21
101259.1
101227.63
101196.84
101166.79
101137.52
101109.08
101081.49
101054.8
101029
101004.12
100980.15
100957.09
100934.9
100913.57
100893.05
100873.32
100854.26
100835.93
100818.06
100800.89
100783.83
100767.6
100750.86
100735.43
100718.29
100703.81
100685.17
100672.31
100650.28
100640.88
100612.06
100610.09
100568.22
100581.17
100516.62
100557
100451.76
100542.36
100367.96
100543.44
100258
100569.19
100115.16
100627.25
101510.84
101515.98
101520.88
101527.75
101534.72
101541.76
101546.89
101553.11
101557.08
101561.37
101563.03
101564.77
101564.01
101563.31
101560.33
101556.94
101551.65
101545.65
101537.85
101529.22
101518.78
101507.65
101494.54
101480.38
101464.31
101447
101428.01
101407.9
101386.52
101364.22
101341.04
101317.17
101292.72
101267.84
101242.68
101217.36
101192.01
101166.76
101141.71
101116.97
101092.61
101068.71
101045.34
101022.55
101000.38
100978.87
100958.01
100937.83
100918.32
100899.46
100881.21
100863.58
100846.44
100829.86
100813.59
100797.86
100782.11
100767.03
100751.33
100736.79
100720.45
100706.61
100688.57
100676.12
100654.52
100645.32
100616.82
100614.81
100573.28
100585.93
100521.49
100561.57
100456.3
100546.58
100372.27
100547.33
100261.68
100572.71
100117.8
100630.32
101326.79
101333.51
101338.47
101344.15
101350.12
101355.82
101360.52
101365.41
101368.12
101372.23
101373.51
101376.74
101377.08
101378.68
101377.93
101377.11
101374.29
101371.39
101366.85
101361.7
101355.17
101347.71
101339.04
101329.31
101318.48
101306.6
101293.71
101279.83
101265.02
101249.35
101232.89
101215.73
101197.94
101179.63
101160.89
101141.8
101122.47
101102.99
101083.44
101063.93
101044.52
101025.29
101006.31
100987.64
100969.32
100951.4
100933.9
100916.84
100900.22
100884.03
100868.25
100852.89
100837.83
100823.15
100808.61
100794.43
100780.09
100766.23
100751.65
100738.04
100722.58
100709.38
100692
100679.94
100658.84
100649.76
100621.67
100619.51
100578.39
100590.59
100526.55
100565.99
100461.5
100550.6
100376.9
100551.01
100265.6
100576.01
100120.53
100633.12
101068.55
101075.33
101080.79
101087.34
101094.09
101100.93
101107.1