/*--------------------------------*- C++ -*----------------------------------*\
  =========                 |
  \\      /  F ield         | OpenFOAM: The Open Source CFD Toolbox
   \\    /   O peration     | Website:  https://openfoam.org
    \\  /    A nd           | Version:  6
     \\/     M anipulation  |
\*---------------------------------------------------------------------------*/
FoamFile
{
    version     2.0;
    format      ascii;
    class       surfaceScalarField;
    location    "850";
    object      phi;
}
// * * * * * * * * * * * * * * * * * * * * * * * * * * * * * * * * * * * * * //

dimensions      [1 0 -1 0 0 0 0];

internalField   nonuniform List<scalar> 
31760
(
-0.00058021673
-0.038296025
0.038876241
-0.0012905653
-0.042443427
0.043153776
-0.0020174973
-0.043557025
0.044283957
-0.002799046
-0.046094578
0.046876126
-0.0036007543
-0.047925939
0.048727647
-0.004457084
-0.050368599
0.051224929
-0.0053421936
-0.05258601
0.05347112
-0.0062797024
-0.055131316
0.056068825
-0.0072546668
-0.057646183
0.058621148
-0.008281949
-0.060376548
0.061403829
-0.0093543743
-0.063168085
0.064240511
-0.010481007
-0.066131295
0.067257927
-0.011659004
-0.069203948
0.070381945
-0.012894351
-0.07243632
0.073671667
-0.014187044
-0.075806576
0.077099269
-0.015541335
-0.079339513
0.080693804
-0.016958481
-0.083031474
0.084448619
-0.018441768
-0.086896476
0.088379763
-0.019993235
-0.090938958
0.092490425
-0.021615947
-0.095169269
0.096791981
-0.023312176
-0.099595284
0.10129151
-0.025085001
-0.10422691
0.10599974
-0.026936425
-0.10907387
0.1109253
-0.028869334
-0.11414669
0.1160796
-0.030886063
-0.11945617
0.12147289
-0.032988689
-0.12501449
0.12711712
-0.035179539
-0.13083331
0.13302416
-0.037460899
-0.13692609
0.13920745
-0.039834378
-0.14330644
0.14567992
-0.042301341
-0.1499891
0.15245606
-0.044863482
-0.15698915
0.15955129
-0.047521566
-0.1643233
0.16698139
-0.050276675
-0.17200816
0.17476327
-0.053128688
-0.18006232
0.18291433
-0.056077536
-0.18850511
0.19145396
-0.059122801
-0.19735653
0.20040179
-0.062263557
-0.20663779
0.20977854
-0.065497662
-0.21637204
0.21960615
-0.068823233
-0.22658274
0.22990831
-0.072237189
-0.23729496
0.24070892
-0.075736167
-0.24853514
0.25203411
-0.079315521
-0.26033128
0.26391063
-0.082970337
-0.27271225
0.27636707
-0.086694116
-0.28570955
0.28943333
-0.090480009
-0.29935478
0.30314068
-0.094319971
-0.31368256
0.31752252
-0.098204247
-0.3287283
0.33261257
-0.10212248
-0.34452986
0.34844809
-0.10606265
-0.36112647
0.36506665
-0.11001063
-0.37856009
0.38250807
-0.11395136
-0.39687375
0.40081447
-0.11786698
-0.41611349
0.42002911
-0.12173779
-0.43632728
0.44019809
-0.12554123
-0.45756565
0.46136909
-0.12925265
-0.47988118
0.4835926
-0.13284356
-0.50332982
0.50692073
-0.13628244
-0.52797003
0.5314089
-0.13953307
-0.5538634
0.55711403
-0.14255561
-0.58107315
0.58409569
-0.14530471
-0.60966689
0.61241599
-0.14772956
-0.63971581
0.64214066
-0.14977299
-0.67129287
0.6733363
-0.15137223
-0.70447734
0.70607657
-0.15245339
-0.73934822
0.74042938
-0.15294073
-0.77599347
0.7764808
-0.15273582
-0.81449534
0.81429043
-0.15175327
-0.85495588
0.85397333
-0.14985017
-0.89743751
0.89553442
-0.14695903
-0.94209034
0.9391992
-0.14283794
-0.98889558
0.98477449
-0.13751223
-1.0381702
1.0328445
-0.13051817
-1.0896017
1.0826077
-0.12215167
-1.14409
1.1357235
-0.11139039
-1.2002727
1.1895114
-0.099232684
-1.2609395
1.2487818
-0.083615182
-1.3211021
1.3054846
-0.066769662
-1.3893656
1.3725201
-0.045226214
-1.4515977
1.4300542
-0.022151302
-1.5291306
1.5060557
-1.5943728
1.5657082
-0.00056096077
-0.037735064
-0.0012324444
-0.041771944
-0.0019217433
-0.042867727
-0.0026614216
-0.045354899
-0.0034236121
-0.047163748
-0.0042345123
-0.049557699
-0.0050759335
-0.051744589
-0.0059660917
-0.054241158
-0.0068943716
-0.056717903
-0.0078722496
-0.05939867
-0.0088948751
-0.06214546
-0.0099697792
-0.065056391
-0.011095282
-0.068078445
-0.012276943
-0.07125466
-0.013514514
-0.074569005
-0.014812444
-0.078041584
-0.016171982
-0.081671936
-0.017596621
-0.085471836
-0.019088369
-0.08944721
-0.020650187
-0.093607451
-0.022284454
-0.097961018
-0.023993772
-0.10251759
-0.025781077
-0.10728657
-0.027648495
-0.11227927
-0.029598342
-0.11750632
-0.031633249
-0.12297959
-0.033755256
-0.1287113
-0.035966404
-0.13471494
-0.038268129
-0.14100471
-0.04066241
-0.14759482
-0.043150363
-0.15450119
-0.045732969
-0.1617407
-0.048410842
-0.16933028
-0.051183897
-0.17728927
-0.054052572
-0.18563644
-0.05701591
-0.19439319
-0.060072593
-0.20358111
-0.063221339
-0.2132233
-0.066459797
-0.22334428
-0.069785004
-0.23396976
-0.073193675
-0.24512646
-0.076681596
-0.25684336
-0.080243591
-0.26915026
-0.083874117
-0.28207902
-0.087566405
-0.2956625
-0.091313005
-0.30993596
-0.095104952
-0.32493635
-0.098932516
-0.3407023
-0.1027843
-0.35727469
-0.10664801
-0.37469638
-0.11050907
-0.39301268
-0.11435165
-0.41227091
-0.11815766
-0.43252127
-0.12190668
-0.45381663
-0.12557581
-0.47621205
-0.12913937
-0.49976626
-0.13256831
-0.52454109
-0.1358307
-0.55060101
-0.13888931
-0.57801454
-0.14170303
-0.60685317
-0.14422653
-0.63719231
-0.14640716
-0.66911224
-0.14818804
-0.70269646
-0.14950273
-0.73803353
-0.15027964
-0.77521656
-0.15043606
-0.81433892
-0.14988328
-0.85550866
-0.14850975
-0.89881104
-0.1462226
-0.94437749
-0.14284994
-0.99226824
-0.13833494
-1.0426852
-0.13237699
-1.0955597
-0.12506545
-1.1514015
-0.11576289
-1.2095752
-0.1049524
-1.27175
-0.091263861
-1.3347906
-0.076111574
-1.4045179
-0.05699788
-1.4707113
-0.036369499
-1.549759
-1.6199147
-0.00052956249
-0.037205502
-0.0011782763
-0.04112323
-0.0018288896
-0.042217113
-0.0025335199
-0.044650269
-0.0032559668
-0.046441302
-0.0040297431
-0.048783923
-0.0048307605
-0.050943572
-0.0056815528
-0.053390366
-0.0065682712
-0.055831185
-0.00750513
-0.058461811
-0.0084851576
-0.061165432
-0.009517114
-0.064024434
-0.010599004
-0.066996555
-0.011736063
-0.070117601
-0.012929194
-0.073375874
-0.01418167
-0.076789108
-0.015495791
-0.080357815
-0.016874053
-0.084093575
-0.01831946
-0.088001803
-0.019834343
-0.092092569
-0.021421542
-0.096373818
-0.023083858
-0.10085528
-0.024823078
-0.10554735
-0.026642565
-0.11045978
-0.028544486
-0.1156044
-0.030530941
-0.12099313
-0.032604053
-0.12663819
-0.034765688
-0.13255331
-0.037017838
-0.13875256
-0.039361861
-0.1452508
-0.041798568
-0.15206448
-0.044329448
-0.15920982
-0.046954392
-0.16670534
-0.049674156
-0.1745695
-0.052488071
-0.18282252
-0.055395588
-0.19148567
-0.058395513
-0.20058118
-0.061486074
-0.21013273
-0.06466519
-0.22016516
-0.0679305
-0.23070445
-0.071277926
-0.24177904
-0.07470402
-0.25341726
-0.078204057
-0.26565022
-0.081772799
-0.27851028
-0.085403913
-0.29203138
-0.089090291
-0.30624958
-0.092824178
-0.32120246
-0.096596511
-0.33692996
-0.10039732
-0.35347388
-0.10421504
-0.37087867
-0.10803685
-0.38919087
-0.1118484
-0.40845936
-0.11563322
-0.42873645
-0.11937325
-0.4500766
-0.12304804
-0.47253726
-0.12663428
-0.49618002
-0.13010619
-0.52106918
-0.13343457
-0.54727263
-0.13658652
-0.57486258
-0.13952525
-0.60391445
-0.14220906
-0.63450849
-0.14459189
-0.66672941
-0.14662123
-0.70066712
-0.14823893
-0.73641582
-0.14937938
-0.77407612
-0.1499665
-0.8137518
-0.14992459
-0.85555057
-0.14915202
-0.89958361
-0.14755501
-0.9459745
-0.145002
-0.99482124
-0.14140179
-1.0462855
-0.13654128
-1.1004202
-0.13040152
-1.1575413
-0.12257281
-1.2174039
-0.11327253
-1.2810502
-0.10153038
-1.3465328
-0.088270458
-1.4177778
-0.071632175
-1.4873496
-0.053345167
-1.568046
-1.6422593
-0.00050045535
-0.036705047
-0.0011311761
-0.04049251
-0.00174942
-0.04159887
-0.00242472
-0.04397497
-0.0031142251
-0.045751796
-0.0038567321
-0.048041416
-0.004624445
-0.050175859
-0.0054424599
-0.052572352
-0.0062954486
-0.054978196
-0.0071985711
-0.057558689
-0.0081446633
-0.06021934
-0.0091425184
-0.063026579
-0.010190115
-0.065948959
-0.011293174
-0.069014541
-0.012451972
-0.072217076
-0.013670617
-0.075570463
-0.014950767
-0.079077665
-0.016295837
-0.082748504
-0.017708069
-0.086589571
-0.019190581
-0.090610056
-0.020745706
-0.094818693
-0.02237603
-0.099224953
-0.024084545
-0.10383884
-0.025873553
-0.10867078
-0.027745219
-0.11373273
-0.029702113
-0.11903624
-0.031745949
-0.12459435
-0.033878943
-0.13042032
-0.036102476
-0.13652903
-0.038418061
-0.14293521
-0.040826655
-0.14965589
-0.043328983
-0.15670749
-0.045925746
-0.16410858
-0.048616546
-0.1718787
-0.051401112
-0.18003796
-0.054279013
-0.18860777
-0.05724884
-0.19761135
-0.060308936
-0.20707264
-0.063457283
-0.21701682
-0.066691189
-0.22747054
-0.07000774
-0.23846249
-0.073403089
-0.25002191
-0.076872982
-0.26218033
-0.080412648
-0.27497061
-0.08401651
-0.28842752
-0.087678335
-0.30258775
-0.091391107
-0.31748969
-0.09514689
-0.33317418
-0.09893669
-0.34968408
-0.10275042
-0.36706493
-0.10657715
-0.38536414
-0.11040353
-0.40463299
-0.11421583
-0.42492415
-0.11799795
-0.44629448
-0.12173127
-0.46880393
-0.12539594
-0.49251535
-0.12896934
-0.51749579
-0.13242506
-0.54381691
-0.1357344
-0.57155324
-0.13886479
-0.60078406
-0.14177941
-0.63159387
-0.14443702
-0.6640718
-0.14679156
-0.69831258
-0.14879063
-0.73441676
-0.15037628
-0.77249047
-0.15148285
-0.81264522
-0.1520366
-0.85499682
-0.15195292
-0.8996673
-0.15114486
-0.94678256
-0.14950064
-0.99646547
-0.14691942
-1.0488667
-0.14324604
-1.1040936
-0.13840601
-1.1623813
-0.13211483
-1.2236951
-0.12446408
-1.288701
-0.11472604
-1.3562708
-0.10351739
-1.4289865
-0.089417818
-1.5014492
-0.073752439
-1.5837114
-1.661423
-0.00047378488
-0.036231262
-0.0010883745
-0.03987792
-0.001679064
-0.04100818
-0.002330608
-0.043323426
-0.0029931201
-0.045089284
-0.0037109445
-0.047323592
-0.0044525121
-0.049434291
-0.0052455309
-0.051779333
-0.0060732685
-0.054150459
-0.0069513735
-0.056680584
-0.0078730527
-0.059297661
-0.0088471399
-0.062052492
-0.0098716824
-0.064924416
-0.010952019
-0.067934205
-0.012089118
-0.071079976
-0.013287051
-0.07437253
-0.014547611
-0.077817106
-0.015874221
-0.081421895
-0.017269174
-0.085194618
-0.018735337
-0.089143893
-0.020275761
-0.093278269
-0.021892904
-0.09760781
-0.023589517
-0.10214222
-0.02536763
-0.10689266
-0.027230249
-0.11187011
-0.029179128
-0.11708736
-0.031216508
-0.12255697
-0.033343794
-0.12829303
-0.035562999
-0.13430982
-0.037874688
-0.14062352
-0.040280427
-0.14725015
-0.042780475
-0.15420744
-0.045375214
-0.16151384
-0.048064607
-0.16918931
-0.050848247
-0.17725432
-0.053724955
-0.18573106
-0.056693944
-0.19464236
-0.059753713
-0.20401287
-0.062901961
-0.21386857
-0.06613626
-0.22423624
-0.069454161
-0.23514459
-0.072852081
-0.24662399
-0.076326325
-0.25870608
-0.07987286
-0.27142408
-0.083486673
-0.28481371
-0.087162669
-0.29891176
-0.090894518
-0.31375784
-0.094675476
-0.32939322
-0.098498095
-0.34586146
-0.1023539
-0.36320913
-0.10623286
-0.38148517
-0.11012478
-0.40074108
-0.11401707
-0.42103185
-0.11789609
-0.44241546
-0.12174663
-0.46495339
-0.12555093
-0.48871105
-0.12928921
-0.51375751
-0.13293951
-0.5401666
-0.13647667
-0.56801608
-0.13987237
-0.59738837
-0.1430944
-0.62837184
-0.14610717
-0.66105903
-0.14887014
-0.69554961
-0.15133788
-0.73194901
-0.15345938
-0.77036897
-0.15517678
-0.81092782
-0.15642522
-0.85374838
-0.15713246
-0.89896006
-0.1572184
-0.94669662
-0.1565846
-0.99709927
-0.15514235
-1.0503089
-0.15276103
-1.1064749
-0.14935266
-1.1657896
-0.14470495
-1.2283428
-0.13883258
-1.2945734
-0.13121199
-1.3638914
-0.12221354
-1.4379849
-0.11072856
-1.5129342
-0.097790942
-1.596649
-1.6773157
-0.0004537033
-0.035777559
-0.0010444032
-0.039287221
-0.0016150758
-0.040437508
-0.0022507326
-0.042687769
-0.0028947326
-0.044445284
-0.0035964278
-0.046621897
-0.0043211515
-0.048709567
-0.0050986159
-0.051001869
-0.0059112123
-0.053337862
-0.0067753583
-0.055816438
-0.0076838138
-0.058389205
-0.0086457966
-0.06109051
-0.0096598051
-0.063910408
-0.010731151
-0.066862859
-0.011861008
-0.069950119
-0.013052972
-0.073180566
-0.014309801
-0.076560277
-0.015634283
-0.080097412
-0.017029494
-0.083799407
-0.018498339
-0.087675049
-0.020043174
-0.091733433
-0.021667391
-0.095983593
-0.023372931
-0.10043668
-0.025162824
-0.10510277
-0.027039028
-0.10999391
-0.029003673
-0.11512271
-0.031058826
-0.12050182
-0.033205945
-0.12614591
-0.035446422
-0.13206935
-0.037781362
-0.13828858
-0.040211625
-0.14481989
-0.042737303
-0.15168177
-0.04535889
-0.15889225
-0.048076013
-0.16647219
-0.050888178
-0.17444215
-0.053794577
-0.18282466
-0.056794066
-0.19164288
-0.059885163
-0.20092177
-0.063065976
-0.21068776
-0.066334557
-0.22096766
-0.069688376
-0.23179077
-0.073124623
-0.24318775
-0.0766405
-0.25519021
-0.080232064
-0.26783251
-0.083895693
-0.28115008
-0.087627001
-0.29518045
-0.091421218
-0.30996363
-0.095273085
-0.32554136
-0.099175945
-0.3419586
-0.10312333
-0.35926174
-0.10710758
-0.37750092
-0.1111197
-0.39672896
-0.11514999
-0.41700157
-0.11918704
-0.43837841
-0.12321804
-0.46092238
-0.1272288
-0.4847003
-0.13120292
-0.50978338
-0.1351216
-0.53624793
-0.13896411
-0.56417357
-0.14270589
-0.59364659
-0.14632076
-0.62475697
-0.14977746
-0.65760233
-0.153042
-0.69228506
-0.15607545
-0.72891557
-0.15883392
-0.7676105
-0.16126777
-0.80849397
-0.16332221
-0.85169393
-0.16493375
-0.89734853
-0.16602871
-0.94560165
-0.16653175
-0.99659623
-0.16635203
-1.0504886
-0.16539056
-1.1074364
-0.16355087
-1.1676293
-0.16067803
-1.2312157
-0.15673963
-1.2985118
-0.15135373
-1.3692773
-0.14474063
-1.444598
-0.13600433
-1.5216705
-0.12599813
-1.6066552
-1.6898459
-0.00044011086
-0.035337448
-0.0010121362
-0.038715195
-0.001569407
-0.039880237
-0.0021963588
-0.042060818
-0.0028296698
-0.043811974
-0.0035234062
-0.045928161
-0.0042403988
-0.047992575
-0.0050116885
-0.050230579
-0.0058197272
-0.052529824
-0.0066807289
-0.054955437
-0.0075882602
-0.057481674
-0.0085510741
-0.060127696
-0.0095680998
-0.062893382
-0.010644586
-0.065786373
-0.011782575
-0.068812129
-0.012985403
-0.071977739
-0.014255725
-0.075289955
-0.015597178
-0.078755959
-0.017012044
-0.082384541
-0.018503826
-0.086183267
-0.020075171
-0.090162088
-0.021728652
-0.094330112
-0.023467347
-0.098697989
-0.025293109
-0.10327701
-0.027208207
-0.10807881
-0.029215003
-0.11311592
-0.031314912
-0.11840191
-0.033509549
-0.12395127
-0.035799776
-0.12977912
-0.038186627
-0.13590173
-0.040670743
-0.14233577
-0.043252418
-0.14910009
-0.045931396
-0.15621327
-0.048707699
-0.16369589
-0.051580448
-0.1715694
-0.054548994
-0.17985612
-0.057612324
-0.18857954
-0.060768703
-0.19776539
-0.06401735
-0.20743911
-0.067355949
-0.21762906
-0.070782899
-0.22836382
-0.074296128
-0.23967452
-0.07789301
-0.25159332
-0.081571367
-0.26415416
-0.085328287
-0.27739316
-0.089160535
-0.2913482
-0.093064543
-0.30605962
-0.097036396
-0.3215695
-0.10107205
-0.33792294
-0.1051661
-0.3551677
-0.10931299
-0.37335403
-0.11350599
-0.39253595
-0.11773787
-0.41276969
-0.12200003
-0.43411626
-0.12628245
-0.45663996
-0.13057407
-0.48040868
-0.1348616
-0.50549586
-0.13913071
-0.53197881
-0.14336402
-0.55994027
-0.14754283
-0.58946778
-0.15164443
-0.62065537
-0.1556443
-0.65360246
-0.15951369
-0.68841567
-0.1632208
-0.72520847
-0.1667293
-0.76410199
-0.16999823
-0.80522504
-0.17297902
-0.84871315
-0.17561888
-0.89470866
-0.17786026
-0.94336027
-0.17963397
-0.99482253
-0.18086511
-1.0492575
-0.18146767
-1.1068338
-0.18135764
-1.1677394
-0.18041137
-1.2321619
-0.17857591
-1.3003472
-0.17557114
-1.3722821
-0.17152672
-1.4486424
-0.16570549
-1.5274917
-0.1588093
-1.6135514
-1.6988909
-0.00043165705
-0.034905791
-0.0010004073
-0.038146445
-0.0015509703
-0.039329674
-0.002176379
-0.041435409
-0.0028073081
-0.043181044
-0.0035016436
-0.045233826
-0.0042207167
-0.047273502
-0.0049963246
-0.049454971
-0.0058112132
-0.051714935
-0.0066812909
-0.054085359
-0.0076011582
-0.056561807
-0.0085788353
-0.059150019
-0.0096145388
-0.061857679
-0.010713174
-0.064687738
-0.011876656
-0.067648648
-0.01310908
-0.070745314
-0.01441313
-0.073985905
-0.015791994
-0.077377095
-0.017249073
-0.080927462
-0.018786916
-0.084645425
-0.020408808
-0.088540196
-0.022117184
-0.092621736
-0.023914572
-0.096900601
-0.02580352
-0.10138806
-0.027785879
-0.10609645
-0.029863262
-0.11103853
-0.032037339
-0.11622784
-0.034309175
-0.12167944
-0.036679932
-0.12740836
-0.039150032
-0.13343163
-0.041719845
-0.13976596
-0.044389417
-0.14643052
-0.047158696
-0.15344399
-0.050027023
-0.16082756
-0.052994206
-0.16860222
-0.05605951
-0.17679082
-0.059221476
-0.18541758
-0.062479847
-0.19450702
-0.06583314
-0.20408581
-0.069280472
-0.21418173
-0.072820206
-0.22482408
-0.076451493
-0.23604323
-0.080172954
-0.24787186
-0.083983056
-0.26034405
-0.087880112
-0.2734961
-0.091862287
-0.28736603
-0.095928117
-0.30199379
-0.10007516
-0.31742246
-0.1043005
-0.33369761
-0.10860158
-0.35086661
-0.11297469
-0.36898092
-0.11741578
-0.38809486
-0.12191996
-0.40826551
-0.12648128
-0.42955494
-0.13109346
-0.45202778
-0.13574774
-0.47575439
-0.14043553
-0.50080807
-0.14514565
-0.52726869
-0.14986577
-0.55522014
-0.15458087
-0.58475268
-0.15927466
-0.61596158
-0.16392732
-0.6489498
-0.16851689
-0.6838261
-0.17301805
-0.72070731
-0.17740187
-0.75971817
-0.18163569
-0.80099122
-0.1856812
-0.84466763
-0.1894965
-0.89089336
-0.19303051
-0.93982627
-0.19623022
-0.99162282
-0.19903073
-1.046457
-0.20136183
-1.1045027
-0.20315409
-1.1659471
-0.204312
-1.231004
-0.2047727
-1.2998865
-0.20433404
-1.3727207
-0.20305907
-1.4499174
-0.20034415
-1.5302066
-0.1967677
-1.6171278
-1.7042685
-0.00042917758
-0.034476614
-0.0010031976
-0.037572425
-0.0015555202
-0.038777351
-0.0021882751
-0.040802654
-0.0028268801
-0.04254244
-0.0035322759
-0.04452843
-0.0042652356
-0.046540542
-0.0050572701
-0.048662937
-0.0058926601
-0.050879545
-0.006786241
-0.053191778
-0.0077340233
-0.055614024
-0.0087435367
-0.058140506
-0.0098156632
-0.060785552
-0.010955131
-0.063548271
-0.012164551
-0.066439228
-0.01344793
-0.069461936
-0.014808133
-0.072625702
-0.016248695
-0.075936533
-0.017772498
-0.07940366
-0.019382846
-0.083035077
-0.021082454
-0.086840588
-0.022873918
-0.090830271
-0.024759446
-0.095015073
-0.02674109
-0.099406416
-0.028821006
-0.10401654
-0.031000383
-0.10885916
-0.033280356
-0.11394786
-0.035662004
-0.11929779
-0.038145792
-0.12492458
-0.040732361
-0.13084506
-0.043421272
-0.13707705
-0.046212953
-0.14363884
-0.049106679
-0.15055027
-0.052102432
-0.1578318
-0.055199728
-0.16550492
-0.058397566
-0.17359298
-0.06169615
-0.18211899
-0.065094508
-0.19110867
-0.06859215
-0.20058817
-0.072188864
-0.21058502
-0.075884597
-0.22112835
-0.079678661
-0.23224917
-0.083570902
-0.24397962
-0.08756138
-0.25635358
-0.091650218
-0.26940726
-0.095836921
-0.28317933
-0.10012138
-0.29770933
-0.10450321
-0.31304063
-0.10898206
-0.32921876
-0.11355692
-0.34629175
-0.11822682
-0.36431102
-0.12299027
-0.38333141
-0.12784492
-0.40341086
-0.13278824
-0.42461161
-0.13781629
-0.44699973
-0.14292524
-0.47064544
-0.148109
-0.49562432
-0.15336126
-0.52201643
-0.15867375
-0.54990765
-0.16403686
-0.57938957
-0.16943884
-0.6105596
-0.1748665
-0.64352214
-0.18030416
-0.67838844
-0.18573316
-0.71527832
-0.19113282
-0.75431851
-0.19647829
-0.79564575
-0.20174225
-0.83940368
-0.20688909
-0.88574652
-0.21188478
-0.93483057
-0.21668182
-0.98682577
-0.22123268
-1.0419061
-0.22548345
-1.1002519
-0.22937124
-1.1620593
-0.23282987
-1.2275454
-0.23580121
-1.2969152
-0.23813765
-1.3703843
-0.23985773
-1.4481973
-0.24047259
-1.5295918
-0.24044215
-1.6171583
-1.7057476
-0.00043346987
-0.034043144
-0.0010215774
-0.036984318
-0.0015852235
-0.038213705
-0.0022355446
-0.040152333
-0.0028933706
-0.041884614
-0.0036217675
-0.043800033
-0.0043820328
-0.045780277
-0.005204741
-0.047840229
-0.0060761002
-0.050008186
-0.0070098395
-0.052258039
-0.0080034115
-0.054620452
-0.0090638138
-0.057080104
-0.010192864
-0.059656502
-0.011395078
-0.062346057
-0.01267379
-0.065160515
-0.014032461
-0.068103265
-0.015474719
-0.071183444
-0.017003771
-0.074407481
-0.01862299
-0.077784441
-0.020335057
-0.08132301
-0.022142495
-0.085033149
-0.024047963
-0.088924804
-0.026053493
-0.093009543
-0.028160919
-0.097298989
-0.030371276
-0.10180618
-0.032686094
-0.10654434
-0.035106157
-0.1115278
-0.037631913
-0.11677203
-0.040263297
-0.12229319
-0.043000799
-0.12810756
-0.045844166
-0.13423368
-0.048793173
-0.14068983
-0.051847439
-0.147496
-0.055007057
-0.15467219
-0.058271269
-0.16224071
-0.061640543
-0.1702237
-0.065114449
-0.17864509
-0.06869321
-0.1875299
-0.072377726
-0.19690366
-0.076168115
-0.20679463
-0.080065061
-0.2172314
-0.084070162
-0.22824406
-0.088184273
-0.23986551
-0.092409005
-0.25212885
-0.096745548
-0.26507072
-0.10119618
-0.27872869
-0.10576207
-0.29314343
-0.11044545
-0.30835725
-0.11524774
-0.32441647
-0.12017056
-0.34136893
-0.12521553
-0.35926605
-0.13038358
-0.37816336
-0.1356758
-0.39811864
-0.14109221
-0.4191952
-0.14663331
-0.44145864
-0.15229779
-0.46498095
-0.15808432
-0.48983779
-0.16399063
-0.51611012
-0.17001318
-0.5438851
-0.17614728
-0.57325547
-0.18238746
-0.60431942
-0.18872595
-0.63718365
-0.19515337
-0.67196102
-0.20165925
-0.70877243
-0.20822999
-0.74774777
-0.2148501
-0.78902564
-0.22149957
-0.83275421
-0.22815888
-0.87908721
-0.2347978
-0.92819165
-0.24138825
-0.98023533
-0.24789316
-1.0354012
-0.2542707
-1.0938744
-0.26047442
-1.1558556
-0.26646014
-1.2215597
-0.27217378
-1.2912015
-0.27752675
-1.3650313
-0.28249758
-1.4432265
-0.28669694
-1.5253924
-0.29048578
-1.6133694
-1.7030512
-0.00044596788
-0.033597176
-0.0010584358
-0.03637185
-0.0016445762
-0.037627565
-0.0023238773
-0.039473032
-0.0030139755
-0.041194515
-0.0037789647
-0.043035044
-0.0045817875
-0.044977454
-0.0054513956
-0.046970621
-0.0063765026
-0.049083079
-0.0073694103
-0.051265132
-0.008429403
-0.05356046
-0.0095627296
-0.055946777
-0.010772211
-0.058447021
-0.012062295
-0.061055973
-0.013436391
-0.063786418
-0.014898441
-0.066641215
-0.016451994
-0.069629891
-0.018100136
-0.072759339
-0.019845949
-0.076038629
-0.021692092
-0.079476866
-0.023641218
-0.083084024
-0.025694971
-0.08687105
-0.027855197
-0.090849317
-0.030122983
-0.095031203
-0.032499622
-0.099429541
-0.034985641
-0.10405832
-0.037581205
-0.10893224
-0.040286462
-0.11406678
-0.043101614
-0.11947804
-0.046025993
-0.12518318
-0.04905993
-0.13119974
-0.052202703
-0.13754706
-0.055454722
-0.14424398
-0.058815638
-0.15131127
-0.062286038
-0.15877031
-0.06586602
-0.16664372
-0.069556881
-0.17495423
-0.073359501
-0.18372728
-0.077275365
-0.19298779
-0.081306411
-0.20276358
-0.085455033
-0.21308278
-0.08972326
-0.22397584
-0.094114742
-0.23547403
-0.098631911
-0.24761168
-0.1032788
-0.26042383
-0.10805868
-0.27394881
-0.1129759
-0.28822621
-0.11803402
-0.30329914
-0.12323744
-0.31921305
-0.12859043
-0.33601594
-0.13409706
-0.35375943
-0.13976138
-0.37249904
-0.14558739
-0.39229263
-0.15157906
-0.41320354
-0.15773941
-0.43529828
-0.16407193
-0.45864843
-0.1705795
-0.48333023
-0.17726372
-0.5094259
-0.18412668
-0.53702214
-0.1911691
-0.56621305
-0.19839025
-0.59709827
-0.20578967
-0.62978422
-0.21336499
-0.66438571
-0.22111239
-0.70102503
-0.22902685
-0.7398333
-0.2371019
-0.78095059
-0.24532905
-0.82452706
-0.25369544
-0.87072083
-0.26218738
-0.9196997
-0.27078328
-0.97163944
-0.27946349
-1.026721
-0.28820138
-1.0851365
-0.29696742
-1.1470896
-0.3057314
-1.2127957
-0.31445402
-1.2824789
-0.3230834
-1.3564019
-0.33159292
-1.434717
-0.33966727
-1.5173181
-0.34758136
-1.6054553
-1.6958556
-0.00046643477
-0.033130741
-0.0011136391
-0.035724646
-0.0017338103
-0.037007394
-0.0024546046
-0.038752238
-0.0031915167
-0.040457603
-0.0040084089
-0.042218152
-0.004871182
-0.044114681
-0.0058063101
-0.046035493
-0.0068056023
-0.048083787
-0.007879741
-0.050190993
-0.0090298354
-0.052410365
-0.010261622
-0.054714991
-0.011578668
-0.057129975
-0.012985314
-0.059649327
-0.014485453
-0.06228628
-0.016082652
-0.065044017
-0.017780488
-0.067932054
-0.019581865
-0.070957962
-0.021489532
-0.074130962
-0.023505815
-0.077460583
-0.025632569
-0.08095727
-0.027871266
-0.084632354
-0.030223181
-0.088497403
-0.032688787
-0.092565597
-0.035268421
-0.096849907
-0.037962178
-0.10136456
-0.040769977
-0.10612444
-0.043691492
-0.11114526
-0.046726523
-0.11644301
-0.04987478
-0.12203493
-0.053135793
-0.12793873
-0.05650996
-0.13417289
-0.059997489
-0.14075645
-0.063598782
-0.14770998
-0.067315136
-0.15505396
-0.071147976
-0.16281088
-0.075099204
-0.171003
-0.079171391
-0.1796551
-0.083366956
-0.18879223
-0.087689815
-0.19844072
-0.092143565
-0.20862903
-0.096732951
-0.21938645
-0.10146203
-0.23074495
-0.10633664
-0.24273707
-0.11136205
-0.25539843
-0.11654425
-0.26876661
-0.12188947
-0.28288099
-0.12740411
-0.2977845
-0.13309508
-0.31352207
-0.13896929
-0.33014173
-0.1450336
-0.34769512
-0.15129567
-0.36623698
-0.15776242
-0.38582587
-0.16444139
-0.40652456
-0.17133988
-0.4283998
-0.17846507
-0.45152324
-0.18582407
-0.47597122
-0.1934241
-0.50182587
-0.20127127
-0.52917497
-0.20937259
-0.55811173
-0.2177338
-0.58873706
-0.22636021
-0.62115781
-0.23525693
-0.65548899
-0.2444282
-0.69185377
-0.25387757
-0.73038393
-0.2636072
-0.77122096
-0.2736187
-0.81451556
-0.28391181
-0.86042771
-0.29448263
-0.90912889
-0.30532598
-0.96079609
-0.3164326
-1.0156144
-0.32779266
-1.0737764
-0.33939
-1.1354922
-0.35121036
-1.2009753
-0.3632352
-1.2704541
-0.37544262
-1.3441945
-0.38780719
-1.4223524
-0.40009035
-1.5050349
-0.41248373
-1.593062
-1.6838081
-0.00049722148
-0.03263352
-0.0011919289
-0.035029939
-0.0018605465
-0.036338776
-0.0026377161
-0.037975068
-0.0034387421
-0.039656577
-0.0043258104
-0.041331084
-0.0052689595
-0.043171532
-0.0062917426
-0.04501271
-0.0073892134
-0.046986316
-0.0085705402
-0.049009666
-0.0098385839
-0.051142321
-0.011198423
-0.053355151
-0.012654495
-0.055673904
-0.014210788
-0.058093033
-0.015871341
-0.060625727
-0.017639576
-0.063275781
-0.019518398
-0.066053233
-0.021510836
-0.068965524
-0.02361882
-0.072022979
-0.025844059
-0.075235343
-0.028187516
-0.078613813
-0.030650041
-0.082169829
-0.033231946
-0.085915498
-0.035933222
-0.089864321
-0.038753451
-0.094029677
-0.041692212
-0.098425803
-0.044748873
-0.10306778
-0.047923138
-0.107971
-0.051214219
-0.11315193
-0.054622185
-0.11862696
-0.058147423
-0.12441349
-0.061790226
-0.13053009
-0.065551667
-0.13699501
-0.069433312
-0.14382833
-0.073437427
-0.15104984
-0.077567008
-0.1586813
-0.081824802
-0.16674521
-0.086215427
-0.17526447
-0.090743248
-0.18426441
-0.095413328
-0.19377064
-0.10023174
-0.20381062
-0.10520457
-0.21441363
-0.11033883
-0.22561069
-0.11564198
-0.23743391
-0.12112174
-0.24991867
-0.12678668
-0.26310167
-0.13264521
-0.27702246
-0.13870661
-0.2917231
-0.1449806
-0.30724808
-0.15147672
-0.32364562
-0.15820543
-0.34096641
-0.16517714
-0.35926526
-0.17240269
-0.37860032
-0.17989317
-0.39903408
-0.1876601
-0.42063287
-0.19571507
-0.44346827
-0.20406974
-0.46761655
-0.21273622
-0.49315939
-0.2217267
-0.52018449
-0.2310533
-0.54878513
-0.24072871
-0.57906165
-0.25076505
-0.61112147
-0.26117491
-0.64507912
-0.27197039
-0.68105829
-0.28316409
-0.71919022
-0.29476801
-0.75961704
-0.30679417
-0.8024894
-0.31925298
-0.84796891
-0.33215329
-0.89622858
-0.34550726
-0.94744212
-0.35931599
-1.0018056
-0.37358119
-1.0595112
-0.38830857
-1.1207648
-0.40350242
-1.1857815
-0.41915665
-1.2547999
-0.43527569
-1.3280754
-0.45183931
-1.4057888
-0.46869973
-1.4881745
-0.48597461
-1.5757871
-1.6665119
-0.00053892938
-0.03209459
-0.0012953425
-0.034273525
-0.0020285904
-0.035605528
-0.0028791883
-0.037124471
-0.0037642206
-0.038771545
-0.0047426049
-0.040352699
-0.0057899616
-0.042124175
-0.0069262164
-0.043876455
-0.0081499144
-0.045762618
-0.0094686275
-0.047690953
-0.010886841
-0.049724108
-0.012409092
-0.0518329
-0.014040221
-0.054042774
-0.015783893
-0.056349361
-0.017643923
-0.058765697
-0.019623123
-0.061296581
-0.021724162
-0.063952194
-0.023948607
-0.066741079
-0.026297825
-0.069673761
-0.028772584
-0.072760585
-0.031372977
-0.07601342
-0.034098964
-0.079443842
-0.036949551
-0.08306491
-0.039924283
-0.08688959
-0.04302197
-0.09093199
-0.04624188
-0.095205893
-0.049582934
-0.099726722
-0.053044759
-0.10450917
-0.05662748
-0.10956921
-0.060331188
-0.11492325
-0.064156789
-0.12058789
-0.06810577
-0.12658111
-0.072180532
-0.13292025
-0.076384124
-0.13962474
-0.080719915
-0.14671405
-0.085192233
-0.15420898
-0.089806839
-0.1621306
-0.094568968
-0.17050234
-0.099485721
-0.17934765
-0.10456409
-0.18869227
-0.10981206
-0.19856265
-0.11523823
-0.20898746
-0.12085197
-0.21999694
-0.12666273
-0.23162315
-0.13268095
-0.24390044
-0.13891746
-0.25686517
-0.14538368
-0.27055623
-0.15209186
-0.28501492
-0.15905402
-0.30028592
-0.16628362
-0.31641602
-0.17379369
-0.33345633
-0.18159872
-0.35146024
-0.18971323
-0.37048581
-0.19815221
-0.3905951
-0.20693118
-0.4118539
-0.21606662
-0.43433283
-0.22557525
-0.45810792
-0.23547439
-0.48326025
-0.24578216
-0.50987672
-0.25651676
-0.53805054
-0.26769767
-0.56788074
-0.27934432
-0.59947481
-0.29147715
-0.63294629
-0.30411708
-0.66841836
-0.31728528
-0.70602202
-0.33100469
-0.74589763
-0.34529737
-0.78819672
-0.36018628
-0.83308
-0.37569529
-0.88071957
-0.39184421
-0.9312932
-0.40865355
-0.9849963
-0.42614542
-1.0420194
-0.44433475
-1.1025755
-0.46324185
-1.1668744
-0.48288455
-1.2351572
-0.50329006
-1.3076699
-0.52444921
-1.3846296
-0.54628411
-1.4663396
-0.56887293
-1.5531983
-1.6435086
-0.0005923088
-0.031502282
-0.0014259945
-0.03343984
-0.00224272
-0.034788803
-0.0031865941
-0.036180597
-0.0041793
-0.037778839
-0.0052745182
-0.039257481
-0.0064546209
-0.040944073
-0.007734743
-0.042596333
-0.0091177054
-0.044379656
-0.010609347
-0.046199311
-0.012215506
-0.048117949
-0.013939988
-0.050108419
-0.015787578
-0.052195184
-0.017761301
-0.054375638
-0.019864258
-0.05666274
-0.022098375
-0.059062464
-0.024465095
-0.061585474
-0.026965005
-0.064241169
-0.029598212
-0.067040553
-0.032363995
-0.069994802
-0.035261578
-0.073115837
-0.038289245
-0.076416174
-0.041445873
-0.079908283
-0.04472967
-0.083605793
-0.04813957
-0.08752209
-0.051674145
-0.091671318
-0.055333119
-0.096067748
-0.059116392
-0.1007259
-0.063024152
-0.10566145
-0.067058318
-0.11088909
-0.071220433
-0.11642578
-0.075514173
-0.12228737
-0.079942862
-0.12849156
-0.084511492
-0.13505611
-0.089225452
-0.14200009
-0.0940916
-0.14934283