/*--------------------------------*- C++ -*----------------------------------*\
  =========                 |
  \\      /  F ield         | OpenFOAM: The Open Source CFD Toolbox
   \\    /   O peration     | Website:  https://openfoam.org
    \\  /    A nd           | Version:  6
     \\/     M anipulation  |
\*---------------------------------------------------------------------------*/
FoamFile
{
    version     2.0;
    format      ascii;
    class       volScalarField;
    location    "850";
    object      rho;
}
// * * * * * * * * * * * * * * * * * * * * * * * * * * * * * * * * * * * * * //

dimensions      [1 -3 0 0 0 0 0];

internalField   nonuniform List<scalar> 
16000
(
1.1568497
1.162017
1.1604574
1.1617359
1.161321
1.1620301
1.1620085
1.1625093
1.1626681
1.1630813
1.1633368
1.1637155
1.1640272
1.1643981
1.1647445
1.1651201
1.1654898
1.1658749
1.1662613
1.1666564
1.1670547
1.1674583
1.1678645
1.1682734
1.1686834
1.1690937
1.169503
1.1699102
1.1703139
1.170713
1.171106
1.1714917
1.1718688
1.1722359
1.1725918
1.1729352
1.173265
1.1735802
1.1738796
1.1741623
1.1744277
1.174675
1.1749035
1.175113
1.175303
1.1754734
1.175624
1.1757549
1.1758663
1.1759582
1.1760311
1.1760852
1.1761211
1.1761391
1.1761398
1.1761237
1.1760915
1.1760437
1.1759808
1.1759035
1.1758121
1.1757075
1.1755894
1.1754597
1.1753154
1.1751628
1.1749896
1.1748182
1.1746057
1.1744297
1.1741462
1.1740114
1.173575
1.1736297
1.1727625
1.1733646
1.1713917
1.1735121
1.169219
1.1739419
1.1573574
1.1625338
1.1609063
1.1622489
1.1618172
1.1625744
1.1625531
1.1630894
1.1632595
1.1637011
1.1639745
1.1643779
1.1647105
1.1651044
1.1654727
1.1658704
1.1662618
1.166668
1.1670749
1.1674897
1.1679069
1.1683281
1.1687507
1.1691746
1.1695979
1.1700197
1.1704386
1.1708532
1.1712621
1.1716639
1.1720572
1.1724405
1.1728126
1.1731719
1.1735173
1.1738475
1.1741615
1.1744583
1.1747368
1.1749966
1.1752368
1.175457
1.1756569
1.1758363
1.1759951
1.1761334
1.1762514
1.1763493
1.1764277
1.1764868
1.1765273
1.1765498
1.1765549
1.1765431
1.1765152
1.1764719
1.1764139
1.1763418
1.1762562
1.1761577
1.1760467
1.1759239
1.1757896
1.1756444
1.1754875
1.175321
1.1751404
1.1749535
1.1747434
1.174541
1.1742833
1.1740896
1.1737248
1.1736454
1.1729778
1.1732974
1.1717015
1.1733461
1.1695054
1.1738662
1.1580307
1.1632082
1.1615421
1.1629474
1.1625077
1.1633071
1.1632945
1.1638624
1.16405
1.164518
1.164813
1.1652404
1.1655961
1.1660129
1.1664041
1.1668238
1.1672371
1.167664
1.168091
1.1685247
1.1689596
1.169397
1.1698342
1.1702708
1.1707048
1.1711352
1.1715602
1.1719784
1.1723882
1.1727882
1.1731767
1.1735523
1.1739136
1.1742592
1.1745879
1.1748986
1.1751902
1.175462
1.1757131
1.1759431
1.1761515
1.1763382
1.1765031
1.1766463
1.176768
1.1768686
1.1769486
1.1770085
1.1770491
1.1770709
1.1770749
1.1770618
1.1770324
1.1769876
1.1769281
1.1768546
1.1767681
1.1766692
1.1765585
1.1764366
1.176304
1.1761613
1.1760086
1.1758465
1.1756748
1.1754938
1.175302
1.1751016
1.1748858
1.1746665
1.1744158
1.1741877
1.1738636
1.1736903
1.1731519
1.1732797
1.1719529
1.1732097
1.1697573
1.1737411
1.1588916
1.164056
1.1623731
1.1638427
1.1633975
1.1642423
1.1642407
1.1648433
1.1650512
1.1655481
1.1658678
1.1663215
1.1667029
1.1671447
1.1675612
1.1680046
1.1684413
1.1688901
1.1693381
1.169791
1.1702436
1.1706966
1.1711473
1.171595
1.1720375
1.1724736
1.1729014
1.1733192
1.1737254
1.1741183
1.1744963
1.1748579
1.1752017
1.1755264
1.1758308
1.176114
1.176375
1.1766133
1.1768284
1.17702
1.1771881
1.1773328
1.1774542
1.177553
1.1776296
1.1776847
1.1777192
1.177734
1.17773
1.1777082
1.1776696
1.1776153
1.1775463
1.1774635
1.1773678
1.1772601
1.1771413
1.1770122
1.1768733
1.1767253
1.1765687
1.1764038
1.1762311
1.1760507
1.1758626
1.1756668
1.1754625
1.1752498
1.1750259
1.1747944
1.1745434
1.1742952
1.173993
1.1737649
1.1733031
1.1732961
1.1721833
1.1731305
1.1700223
1.1737559
1.1599363
1.1650687
1.1633977
1.1649347
1.1644896
1.1653823
1.1653974
1.1660367
1.1662697
1.1667976
1.1671458
1.1676277
1.1680378
1.1685063
1.1689497
1.169418
1.1698791
1.1703502
1.1708191
1.1712906
1.1717597
1.1722266
1.1726885
1.1731443
1.1735919
1.1740295
1.1744551
1.1748671
1.1752636
1.1756428
1.1760031
1.1763431
1.1766614
1.1769567
1.1772282
1.1774749
1.1776964
1.1778923
1.1780624
1.1782069
1.178326
1.1784202
1.1784903
1.1785369
1.1785612
1.1785641
1.1785468
1.1785106
1.1784566
1.1783862
1.1783005
1.1782009
1.1780884
1.1779642
1.1778293
1.1776846
1.1775311
1.1773695
1.1772006
1.1770247
1.1768424
1.1766541
1.17646
1.1762603
1.1760549
1.1758436
1.1756258
1.1754009
1.1751672
1.1749254
1.17467
1.1744086
1.1741155
1.1738511
1.1734438
1.1733259
1.1723924
1.1730939
1.1702742
1.1737817
1.1611927
1.1662921
1.1646459
1.1662514
1.1658103
1.1667518
1.1667875
1.1674643
1.1677262
1.1682861
1.1686658
1.1691774
1.1696183
1.1701147
1.1705866
1.1710805
1.1715665
1.1720598
1.1725491
1.1730381
1.173522
1.1740003
1.1744704
1.1749305
1.1753785
1.1758122
1.1762297
1.1766291
1.1770083
1.1773658
1.1776998
1.1780089
1.1782921
1.1785482
1.1787766
1.1789768
1.1791486
1.1792919
1.1794072
1.1794948
1.1795557
1.1795906
1.1796008
1.1795874
1.1795519
1.1794957
1.1794203
1.1793273
1.179218
1.1790942
1.1789572
1.1788083
1.178649
1.1784804
1.1783036
1.1781196
1.1779293
1.1777334
1.1775328
1.1773277
1.1771186
1.1769059
1.1766897
1.17647
1.1762468
1.1760198
1.1757881
1.1755512
1.1753076
1.1750567
1.1747956
1.1745255
1.174236
1.1739494
1.1735796
1.173374
1.1725932
1.1730889
1.1705331
1.1738418
1.1626661
1.167774
1.1661221
1.1677979
1.1673653
1.1683569
1.1684182
1.1691341
1.1694292
1.1700231
1.1704378
1.1709809
1.1714551
1.171981
1.1724827
1.173003
1.1735141
1.1740292
1.1745377
1.1750423
1.1755381
1.1760244
1.1764981
1.1769572
1.1773993
1.1778221
1.1782236
1.1786016
1.1789542
1.1792799
1.179577
1.1798445
1.1800813
1.1802868
1.1804607
1.180603
1.1807138
1.1807937
1.1808436
1.1808645
1.1808577
1.1808245
1.1807666
1.1806857
1.1805836
1.1804621
1.1803231
1.1801683
1.1799996
1.1798185
1.1796269
1.1794261
1.1792175
1.1790025
1.1787821
1.1785573
1.178329
1.178098
1.1778649
1.17763
1.1773937
1.1771562
1.1769175
1.1766778
1.1764367
1.1761939
1.1759486
1.1756999
1.1754465
1.1751873
1.1749202
1.1746441
1.1743549
1.1740557
1.1737143
1.173447
1.1727901
1.1731018
1.1707947
1.1739377
1.1643504
1.1694858
1.1678267
1.1695767
1.1691595
1.1702043
1.1702978
1.1710556
1.1713898
1.1720203
1.1724745
1.1730516
1.1735621
1.1741192
1.1746522
1.1751994
1.1757354
1.1762711
1.1767967
1.1773138
1.1778176
1.1783067
1.1787778
1.1792287
1.1796566
1.1800594
1.1804346
1.1807804
1.1810948
1.1813765
1.1816242
1.181837
1.1820144
1.1821564
1.182263
1.1823348
1.1823726
1.1823777
1.1823513
1.1822953
1.1822113
1.1821014
1.1819677
1.1818123
1.1816375
1.1814453
1.1812379
1.1810174
1.1807858
1.1805448
1.1802962
1.1800416
1.1797823
1.1795198
1.1792549
1.1789888
1.1787222
1.1784558
1.1781901
1.1779254
1.177662
1.1773999
1.1771392
1.1768797
1.1766211
1.176363
1.1761045
1.1758447
1.1755821
1.1753155
1.1750429
1.1747627
1.1744727
1.1741678
1.1738449
1.1735351
1.1729866
1.1731337
1.171076
1.1740627
1.1662552
1.1714329
1.169772
1.1716011
1.1712067
1.1723083
1.1724418
1.1732445
1.1736242
1.1742944
1.1747926
1.1754064
1.1759559
1.1765458
1.1771107
1.1776846
1.1782442
1.1787981
1.1793373
1.179862
1.1803677
1.1808522
1.1813121
1.1817449
1.1821478
1.1825184
1.1828545
1.1831544
1.1834164
1.1836394
1.1838227
1.1839659
1.1840693
1.1841331
1.1841584
1.1841464
1.1840986
1.184017
1.1839036
1.1837607
1.1835908
1.1833963
1.1831799
1.1829441
1.1826915
1.1824244
1.1821453
1.1818564
1.1815598
1.1812573
1.1809507
1.1806416
1.1803313
1.1800212
1.1797121
1.179405
1.1791006
1.1787994
1.1785018
1.1782081
1.1779184
1.1776326
1.1773506
1.1770721
1.1767969
1.1765243
1.1762535
1.1759833
1.1757125
1.1754396
1.1751625
1.1748798
1.1745889
1.1742837
1.1739731
1.1736371
1.1731814
1.1731838
1.1713777
1.1741965
1.1684012
1.1736305
1.1719748
1.1738888
1.1735257
1.174688
1.1748697
1.1757208
1.1761524
1.1768656
1.1774123
1.1780651
1.1786557
1.1792791
1.1798758
1.1804747
1.181055
1.1816228
1.1821695
1.1826946
1.1831932
1.1836627
1.1840996
1.1845012
1.1848646
1.1851878
1.1854687
1.1857058
1.1858982
1.1860453
1.1861469
1.1862037
1.1862165
1.1861865
1.1861157
1.1860061
1.1858601
1.1856803
1.1854696
1.1852308
1.1849672
1.1846815
1.1843769
1.1840562
1.1837222
1.1833777
1.1830249
1.1826664
1.182304
1.1819399
1.1815755
1.1812125
1.1808522
1.1804955
1.1801434
1.1797967
1.1794558
1.1791212
1.1787933
1.178472
1.1781573
1.1778491
1.1775471
1.1772511
1.1769605
1.1766746
1.1763927
1.1761135
1.1758356
1.1755575
1.1752773
1.1749935
1.1747028
1.1744011
1.1740986
1.1737507
1.173373
1.1732521
1.1716963
1.1743353
1.1708243
1.1760979
1.1744541
1.1764591
1.1761367
1.1773636
1.1776027
1.1785059
1.1789965
1.179756
1.1803553
1.1810493
1.1816822
1.1823387
1.1829653
1.1835858
1.1841812
1.1847557
1.1853011
1.1858155
1.1862943
1.1867344
1.1871323
1.1874854
1.187791
1.1880474
1.1882531
1.1884073
1.1885098
1.188561
1.1885617
1.1885135
1.1884182
1.1882782
1.1880964
1.1878757
1.1876194
1.187331
1.1870141
1.186672
1.1863085
1.1859268
1.1855303
1.1851221
1.1847052
1.1842823
1.1838558
1.183428
1.183001
1.1825765
1.1821561
1.1817411
1.1813327
1.1809316
1.1805388
1.1801546
1.1797796
1.1794138
1.1790576
1.1787108
1.1783732
1.1780445
1.1777245
1.1774125
1.1771082
1.1768107
1.1765191
1.1762323
1.1759489
1.1756672
1.1753854
1.175102
1.174813
1.1745177
1.1742208
1.1738727
1.1735576
1.1733348
1.1720172
1.1744603
1.1735277
1.1788476
1.1772255
1.1793303
1.1790607
1.1803578
1.1806654
1.1816253
1.1821825
1.1829919
1.1836473
1.1843837
1.1850585
1.1857458
1.1863976
1.1870329
1.1876345
1.1882043
1.1887346
1.1892227
1.1896639
1.190055
1.1903929
1.190675
1.1908996
1.1910655
1.1911721
1.1912198
1.1912095
1.1911427
1.1910216
1.190849
1.1906279
1.190362
1.190055
1.1897111
1.1893343
1.1889288
1.1884988
1.1880482
1.187581
1.1871009
1.1866113
1.1861153
1.185616
1.1851159
1.1846175
1.1841229
1.1836338
1.1831519
1.1826785
1.1822146
1.1817613
1.1813191
1.1808887
1.1804702
1.180064
1.17967
1.1792883
1.1789186
1.1785606
1.1782139
1.177878
1.1775523
1.1772363
1.176929
1.1766297
1.1763371
1.1760498
1.1757662
1.1754845
1.175203
1.1749178
1.1746309
1.1743386
1.1740001
1.1737331
1.1734269
1.1723402
1.1745849
1.1765319
1.1819122
1.1803221
1.1825352
1.182332
1.183704
1.1840916
1.1851121
1.1857425
1.1866043
1.1873176
1.1880952
1.1888087
1.1895207
1.190189
1.1908275
1.1914209
1.1919689
1.1924643
1.192904
1.1932833
1.1935996
1.1938501
1.1940334
1.1941486
1.1941958
1.1941759
1.1940907
1.1939425
1.1937345
1.1934704
1.1931544
1.1927909
1.1923848
1.1919408
1.1914639
1.190959
1.1904308
1.189884
1.1893227
1.1887511
1.188173
1.1875916
1.1870101
1.1864313
1.1858576
1.1852911
1.1847337
1.1841869
1.1836519
1.1831299
1.1826216
1.1821277
1.1816485
1.1811845
1.1807356
1.1803019
1.1798832
1.1794794
1.17909
1.1787145
1.1783525
1.1780034
1.1776664
1.177341
1.1770261
1.1767211
1.1764246
1.1761353
1.1758517
1.175572
1.175294
1.1750149
1.1747379
1.1744511
1.1741307
1.1739012
1.1735278
1.1726572
1.1747045
1.1798659
1.1853214
1.1837757
1.186107
1.1859862
1.1874379
1.1879176
1.1890024
1.1897112
1.1906266
1.1913966
1.1922111
1.1929552
1.1936808
1.1943505
1.194974
1.1955371
1.1960384
1.1964711
1.1968321
1.1971176
1.1973258
1.1974552
1.1975058
1.1974785
1.1973751
1.1971985
1.1969523
1.1966409
1.1962691
1.1958422
1.1953661
1.1948463
1.1942889
1.1936995
1.1930838
1.1924471
1.1917945
1.1911308
1.1904603
1.1897869
1.1891143
1.1884456
1.1877835
1.1871306
1.1864888
1.18586
1.1852456
1.1846468
1.1840645
1.1834995
1.1829521
1.1824228
1.1819116
1.1814187
1.1809439
1.1804869
1.1800475
1.1796252
1.1792196
1.1788301
1.1784559
1.1780964
1.1777509
1.1774186
1.1770986
1.17679
1.1764918
1.1762025
1.1759207
1.1756449
1.1753724
1.1751017
1.1748355
1.1745561
1.1742612
1.1740595
1.1736381
1.1729671
1.1748147
1.1835615
1.1891094
1.1876241
1.1900837
1.1900637
1.1915995
1.1921858
1.1933394
1.1941287
1.1950947
1.1959157
1.1967563
1.1975159
1.1982355
1.1988825
1.1994628
1.1999637
1.2003832
1.2007155
1.2009583
1.2011095
1.2011687
1.2011369
1.2010162
1.2008097
1.2005218
1.2001578
1.1997234
1.1992251
1.1986697
1.198064
1.1974152
1.1967301
1.1960153
1.1952772
1.1945217
1.1937544
1.1929803
1.192204
1.1914296
1.1906606
1.1899003
1.1891515
1.1884163
1.1876968
1.1869945
1.1863109
1.1856468
1.1850031
1.1843802
1.1837786
1.1831983
1.1826395
1.1821019
1.1815853
1.1810894
1.1806138
1.1801579
1.1797213
1.1793032
1.178903
1.1785199
1.1781532
1.177802
1.1774655
1.1771428
1.1768331
1.1765353
1.1762481
1.1759702
1.1757
1.1754349
1.1751748
1.1749201
1.1746511
1.1743856
1.1742001
1.1737533
1.1732656
1.1749065
1.1876642
1.1933219
1.191916
1.1945106
1.1946113
1.196234
1.1969394
1.1981678
1.1990361
1.2000419
1.2008992
1.2017463
1.2024955
1.2031783
1.2037663
1.2042628
1.2046571
1.2049476
1.2051305
1.2052056
1.2051735
1.2050365
1.2047987
1.2044652
1.2040422
1.203537
1.2029574
1.2023115
1.2016078
1.2008548
1.2000606
1.1992332
1.1983802
1.1975084
1.1966244
1.195734
1.1948426
1.1939546
1.1930743
1.1922051
1.1913502
1.1905121
1.1896928
1.1888942
1.1881175
1.1873639
1.1866342
1.1859288
1.1852481
1.1845922
1.1839611
1.1833547
1.1827726
1.1822144
1.1816797
1.1811679
1.1806784
1.1802106
1.1797637
1.1793371
1.1789298
1.1785412
1.1781703
1.1778163
1.1774784
1.1771556
1.176847
1.1765518
1.1762687
1.1759967
1.1757339
1.1754783
1.1752305
1.1749879
1.1747331
1.1744996
1.1743227
1.1738715
1.1735499
1.1749763
1.1922232
1.1980072
1.1967124
1.1994535
1.1997114
1.2014297
1.2022388
1.2035169
1.2044606
1.2054913
1.2063597
1.207181
1.2078794
1.2084787
1.2089552
1.2093112
1.2095394
1.2096402
1.2096135
1.2094625
1.2091918
1.2088078
1.2083183
1.2077322
1.2070591
1.2063091
1.2054926
1.2046198
1.2037007
1.2027447
1.2017608
1.2007573
1.1997416
1.1987206
1.1977002
1.1966858
1.1956819
1.1946924
1.1937207
1.1927695
1.1918411
1.1909372
1.1900593
1.1892085
1.1883854
1.1875907
1.1868245
1.1860868
1.1853777
1.1846967
1.1840436
1.1834179
1.1828189
1.1822461
1.1816989
1.1811763
1.1806778
1.1802024
1.1797495
1.1793181
1.1789074
1.1785165
1.1781446
1.1777907
1.177454
1.1771336
1.1768285
1.176538
1.176261
1.1759965
1.1757429
1.1754986
1.1752645
1.1750346
1.1747979
1.1745963
1.1744208
1.1739841
1.1738128
1.1750233
1.1973099
1.2032255
1.2020975
1.2049826
1.2054188
1.2072022
1.2081372
1.2094654
1.2104456
1.2114653
1.2122971
1.213037
1.2136211
1.2140676
1.2143591
1.2144993
1.2144862
1.2143244
1.2140193
1.2135791
1.2130136
1.2123341
1.2115525
1.2106817
1.2097343
1.2087229
1.2076597
1.2065561
1.2054227
1.2042694
1.2031049
1.2019369
1.2007723
1.199617
1.1984762
1.197354
1.196254
1.1951791
1.1941318
1.1931137
1.1921262
1.1911705
1.190247
1.1893562
1.1884983
1.1876731
1.1868803
1.1861197
1.1853907
1.1846927
1.1840249
1.1833868
1.1827773
1.1821959
1.1816414
1.1811132
1.1806102
1.1801317
1.1796766
1.1792442
1.1788335
1.1784435
1.1780735
1.1777224
1.1773895
1.1770737
1.1767744
1.1764906
1.1762215
1.1759661
1.175723
1.1754916
1.1752719
1.175056
1.1748406
1.1746677
1.1744881
1.174085
1.1740423
1.1750424
1.2031592
1.209168
1.2082439
1.2112159
1.2118004
1.2136323
1.2146659
1.2160141
1.2169927
1.2179376
1.2186595
1.2192337
1.2196126
1.2198122
1.2198242
1.219657
1.2193162
1.2188131
1.21816
1.2173715
1.2164629
1.2154503
1.2143498
1.2131769
1.2119466
1.2106727
1.209368
1.2080439
1.2067107
1.2053773
1.2040513
1.2027394
1.2014471
1.2001789
1.1989386
1.1977291
1.1965527
1.1954113
1.194306
1.1932376
1.1922068
1.1912136
1.1902581
1.1893398
1.1884585
1.1876135
1.1868041
1.1860296
1.1852891
1.1845816
1.1839064
1.1832623
1.1826484
1.1820638
1.1815073
1.1809781
1.1804751
1.1799973
1.1795439
1.1791139
1.1787063
1.1783202
1.1779547
1.1776089
1.177282
1.1769732
1.1766815
1.1764062
1.1761466
1.1759016
1.1756703
1.1754527
1.1752479
1.1750473
1.1748549
1.174705
1.1745224
1.1741718
1.1742267
1.1750302
1.2097333
1.2157719
1.215025
1.2180389
1.218945
1.2209024
1.2219315
1.2231946
1.2240692
1.2248271
1.2253213
1.2256099
1.2256631
1.2254995
1.2251227
1.2245491
1.2237941
1.2228772
1.2218183
1.2206381
1.2193569
1.2179945
1.2165692
1.215098
1.213596
1.2120769
1.2105525
1.2090328
1.2075265
1.2060407
1.2045813
1.203153
1.2017597
1.2004043
1.1990888
1.1978149
1.1965835
1.1953953
1.1942505
1.1931489
1.1920903
1.1910741
1.1900996
1.189166
1.1882724
1.1874177
1.1866009
1.185821
1.1850767
1.1843671
1.1836908
1.1830468
1.182434
1.1818513
1.1812975
1.1807715
1.1802724
1.1797991
1.1793507
1.1789261
1.1785245
1.1781448
1.1777863
1.1774481
1.1771293
1.1768291
1.1765467
1.1762815
1.1760327
1.1757994
1.1755809
1.1753776
1.1751879
1.1750039
1.1748347
1.1747059
1.1745323
1.1742314
1.1743525
1.1749813
1.2170021
1.2230569
1.2227476
1.2259938
1.2268633
1.2287167
1.2297548
1.2308188
1.2314719
1.2319081
1.2320301
1.23189
1.2314801
1.230829
1.2299551
1.2288859
1.2276475
1.2262672
1.2247714
1.2231851
1.2215311
1.2198303
1.2181009
1.2163589
1.2146176
1.2128886
1.2111811
1.2095029
1.2078601
1.2062573
1.2046982
1.2031855
1.201721
1.2003059
1.1989408
1.197626
1.1963611
1.1951458
1.1939793
1.1928608
1.1917893
1.1907635
1.1897824
1.1888445
1.1879487
1.1870936
1.1862779
1.1855002
1.1847592
1.1840537
1.1833823
1.1827438
1.182137
1.1815606
1.1810136
1.1804947
1.180003
1.1795373
1.1790968
1.1786804
1.1782871
1.1779162
1.1775666
1.1772377
1.1769287
1.1766387
1.176367
1.176113
1.175876
1.1756552
1.1754502
1.1752616
1.1750867
1.1749197
1.174774
1.1746664
1.1745044
1.1742423
1.1744152
1.1749056
1.2254154
1.2315492
1.2314776
1.2346008
1.235617
1.2372529
1.2380664
1.238752
1.2389667
1.238881
1.2384394
1.2377025
1.2366867
1.2354342
1.2339784
1.232357
1.230604
1.2287515
1.2268283
1.2248599
1.222868
1.2208712
1.2188848
1.2169213
1.2149908
1.213101
1.2112581
1.2094664
1.2077292
1.2060486
1.204426
1.2028618
1.2013562
1.1999087
1.1985188
1.1971853
1.1959071
1.1946829
1.1935112
1.1923906
1.1913195
1.1902963
1.1893193
1.1883872
1.1874981
1.1866507
1.1858434
1.1850746
1.184343
1.1836472
1.1829857
1.1823573
1.1817606
1.1811945
1.1806578
1.1801492
1.1796678
1.1792125
1.1787823
1.1783762
1.1779934
1.177633
1.1772941
1.176976
1.1766779
1.1763991
1.1761391
1.1758971
1.1756726
1.1754647
1.1752735
1.1750992
1.1749385
1.1747882
1.1746637
1.1745715
1.1744236
1.1742163
1.1744076
1.1747786
1.2353167
1.2410837
1.2413014
1.2441638
1.2449826
1.2461478
1.246464
1.2465055
1.2460368
1.2452143
1.2440299
1.2425575
1.2408372
1.2389235
1.2368603
1.23469
1.2324488
1.2301678
1.2278732
1.225586
1.2233235
1.2210989
1.2189224
1.2168018
1.2147425
1.2127483
1.2108216
1.2089637
1.2071749
1.2054551
1.2038035
1.202219
1.2007002
1.1992453
1.1978527
1.1965206
1.1952469
1.1940297
1.1928671
1.1917572
1.1906979
1.1896875
1.1887241
1.1878059
1.1869312
1.1860983
1.1853056
1.1845514
1.1838343
1.1831527
1.1825054
1.1818909
1.1813079
1.1807553
1.1802318
1.1797362
1.1792675
1.1788247
1.1784069
1.178013
1.1776422
1.1772937
1.1769667
1.1766604
1.1763742
1.1761075
1.1758596
1.17563
1.1754181
1.1752233
1.1750458
1.1748854
1.1747387
1.174605
1.1744988
1.1744174
1.1742865
1.1741348
1.1743244
1.1745859
1.246501
1.251505
1.2517103
1.2540008
1.2543552
1.2547334
1.254249
1.2533763
1.2519951
1.2502642
1.2482206
1.2459511
1.2435118
1.2409609
1.2383436
1.2356985
1.2330561
1.2304404
1.2278696
1.2253573
1.2229134
1.2205445
1.2182549
1.2160472
1.2139224
1.2118805
1.2099207
1.2080415
1.2062412
1.2045177
1.2028686
1.2012915
1.1997841
1.1983437
1.196968
1.1956544
1.1944005
1.1932041
1.1920628
1.1909744
1.1899369
1.1889481
1.1880062
1.1871092
1.1862552
1.1854426
1.1846697
1.1839349
1.1832366
1.1825734
1.1819438
1.1813465
1.1807802
1.1802438
1.1797359
1.1792556
1.1788017
1.1783733
1.1779694
1.1775891
1.1772317
1.1768962
1.176582
1.1762883
1.1760146
1.1757602
1.1755247
1.1753074
1.175108
1.1749259
1.1747614
1.1746139
1.1744804
1.1743625
1.1742718
1.174199
1.1740873
1.1739852
1.1741574
1.1743297
1.2576107
1.262117
1.2621891
1.2634931
1.2629751
1.2621591
1.260531
1.2584944
1.2560432
1.2533355
1.2504369
1.2474315
1.2443738
1.2413114
1.2382783
1.2353006
1.2323962
1.2295777
1.2268531
1.2242272
1.221702
1.2192781
1.2169544
1.2147291
1.2125998
1.2105636
1.2086174
1.2067579
1.2049818
1.2032859
1.2016667
1.2001213
1.1986464
1.1972391
1.1958965
1.1946159
1.1933946
1.1922302
1.1911202
1.1900623
1.1890544
1.1880944
1.1871802
1.18631
1.1854819
1.1846942
1.1839453
1.1832335
1.1825574
1.1819155
1.1813064
1.1807288
1.1801814
1.1796632
1.1791728
1.1787093
1.1782716
1.1778589
1.1774701
1.1771044
1.176761
1.1764392
1.1761382
1.1758574
1.1755963
1.1753542
1.1751307
1.1749254
1.1747377
1.1745675
1.1744149
1.1742788
1.1741574
1.1740533
1.1739746
1.1739086
1.1738163
1.1737535
1.1739002
1.1740036
1.2696113
1.2729009
1.2722383
1.2716888
1.2697275
1.2673358
1.2643653
1.2611218
1.2576662
1.2541246
1.2505577
1.2470241
1.2435583
1.2401868
1.2369253
1.2337836
1.2307664
1.2278749
1.2251085
1.2224644
1.2199395
1.2175296
1.2152305
1.2130375
1.210946
1.2089515
1.2070495
1.2052357
1.203506
1.2018565
1.2002834
1.1987834
1.197353
1.195989
1.1946885
1.1934487
1.1922668
1.1911404
1.190067
1.1890444
1.1880704
1.1871428
1.1862598
1.1854195
1.1846201
1.1838599
1.1831373
1.1824508
1.1817988
1.18118
1.180593
1.1800366
1.1795096
1.1790108
1.1785391
1.1780935
1.177673
1.1772766
1.1769036
1.1765531
1.1762243
1.1759165
1.175629
1.1753613
1.1751126
1.1748827
1.1746709
1.1744769
1.1743002
1.1741408
1.1739986
1.1738725
1.1737616
1.173669
1.1735993
1.1735389
1.1734648
1.1734314
1.1735484
1.1736019
1.2810763
1.280488
1.278357
1.2755853
1.2720425
1.2681959
1.2641204
1.2599974
1.2558926
1.2518763
1.2479811
1.2442314
1.240636
1.2371989
1.2339204
1.2307973
1.2278248
1.2249967
1.2223065
1.2197475
1.2173132
1.214997
1.2127924
1.2106933
1.2086941
1.2067895
1.2049745
1.2032448
1.201596
1.2000241
1.1985254
1.1970965
1.195734
1.1944349
1.1931964
1.1920155
1.1908898
1.1898168
1.1887942
1.1878197
1.1868914
1.1860073
1.1851655
1.1843644
1.1836022
1.1828774
1.1821884
1.1815338
1.1809122
1.1803222
1.1797627
1.1792324
1.1787302
1.178255
1.1778058
1.1773815
1.1769813
1.1766043
1.1762497
1.1759167
1.1756044
1.1753124
1.1750398
1.1747862
1.174551
1.1743338
1.174134
1.1739513
1.1737853
1.173636
1.173503
1.1733856
1.1732834
1.1731992
1.1731349
1.1730777
1.1730174
1.1730051
1.1731003
1.1731102
1.2847965
1.2815241
1.2779186
1.2737058
1.2692429
1.2647245
1.2602568
1.2559168
1.2517365
1.2477375
1.2439241
1.2402969
1.2368516
1.2335814
1.2304765
1.2275276
1.2247255
1.2220614
1.2195272
1.2171149
1.2148175
1.2126287
1.210543
1.208555
1.2066595
1.2048516
1.203127
1.2014814
1.199911
1.1984121
1.1969815
1.195616
1.1943126
1.1930685
1.1918812
1.1907479
1.1896666
1.1886352
1.1876516
1.186714
1.1858205
1.1849694
1.1841588
1.1833872
1.1826529
1.1819546
1.1812908
1.18066
1.1800611
1.1794927
1.1789536
1.1784428
1.1779591
1.1775015
1.177069
1.1766606
1.1762755
1.1759129
1.1755719
1.1752517
1.1749517
1.1746711
1.1744095
1.1741661
1.1739405
1.1737321
1.1735407
1.1733656
1.1732068
1.1730638
1.1729366
1.1728243
1.1727271
1.1726467
1.1725832
1.1725291
1.1724811
1.1724687
1.1725176
1.1725247
1.2738064
1.2706497
1.267702
1.2637358
1.2597557
1.2557044
1.2517476
1.2479073
1.2442141
1.240676
1.2372951
1.234069
1.2309919
1.2280589
1.2252632
1.2225985
1.220058
1.2176355
1.2153247
1.2131199
1.2110155
1.2090058
1.2070863
1.2052531
1.2035023
1.2018301
1.200233
1.1987076
1.1972506
1.1958591
1.1945303
1.1932613
1.1920497
1.190893
1.1897891
1.1887357
1.187731
1.1867728
1.1858592
1.1849882
1.1841582
1.1833675
1.1826146
1.1818979
1.181216
1.1805676
1.1799514
1.179366
1.1788104
1.1782833
1.1777837
1.1773104
1.1768625
1.176439
1.176039
1.1756615
1.1753058
1.174971
1.1746564
1.1743613
1.1740849
1.1738266
1.1735858
1.1733619
1.1731545
1.1729631
1.1727871
1.1726263
1.1724803
1.1723488
1.1722316
1.1721282
1.1720387
1.1719638
1.1719031
1.1718535
1.171815
1.1717991
1.1718135
1.1718214
1.2338359
1.2434154
1.2446584
1.2451359
1.2439907
1.2422762
1.2400884
1.2376926
1.2351704
1.23261
1.2300511
1.2275268
1.2250545
1.2226465
1.2203098
1.2180485
1.2158648
1.2137591
1.2117311
1.2097799
1.2079041
1.206102
1.2043712
1.2027093
1.2011141
1.1995833
1.1981148
1.1967065
1.1953565
1.1940626
1.192823
1.1916358
1.1904992
1.1894114
1.1883709
1.1873761
1.1864251
1.185516
1.1846475
1.183818
1.1830262
1.1822707
1.1815502
1.1808635
1.1802093
1.1795866
1.1789941
1.1784308
1.1778955
1.1773873
1.1769052
1.1764482
1.1760154
1.1756058
1.1752187
1.1748532
1.1745084
1.1741837
1.1738783
1.1735915
1.1733226
1.173071
1.1728361
1.1726173
1.1724141
1.1722261
1.1720527
1.1718935
1.1717482
1.1716165
1.171498
1.1713924
1.1712997
1.1712198
1.1711524
1.1710968
1.1710534
1.171024
1.17101
1.1710079
1.2456777
1.2458651
1.2460834
1.2461706
1.2455083
1.2439754
1.2415234
1.2383578
1.2346991
1.2306996
1.2266899
1.2225961
1.2185761
1.214619
1.2108146
1.2073009
1.2040521
1.201149
1.1985587
1.1962463
1.1942241
1.1924259
1.1908607
1.1894804
1.1882778
1.1871975
1.1862196
1.1853155
1.1845044
1.1838153
1.1831977
1.182624
1.1820904
1.1815895
1.181116
1.180666
1.1802371
1.1798276
1.1794365
1.1790625
1.1787053
1.1783646
1.1780394
1.1777299
1.1774356
1.1771561
1.1768907
1.1766391
1.1764005
1.1761747
1.1759606
1.1757582
1.1755661
1.1753846
1.1752112
1.175048
1.1748893
1.1747423
1.174593
1.1744607
1.1743129
1.1741971
1.1740383
1.1739466
1.1737551
1.1737068
1.1734445
1.1734793
1.1730869
1.1732759
1.1726145
1.1731073
1.172011
1.1730091
1.1711962
1.1730213
1.1700442
1.1731882
1.1683788
1.1736707
1.1029634
1.1075512
1.1141196
1.1216051
1.1298033
1.1380445
1.1449255
1.1505646
1.1555009
1.1597859
1.1634402
1.1666184
1.1693783
1.171772
1.1738595
1.1756432
1.1772036
1.1784804
1.1795595
1.1803941
1.1810841
1.1815693
1.1819362
1.1821366
1.182238
1.1822216
1.1821419
1.1819895
1.1817881
1.1815526
1.1812848
1.1809918
1.1806733
1.1803418
1.1800054
1.179669
1.1793366
1.1790112
1.1786949
1.1783884
1.1780927
1.1778082
1.1775352
1.1772734
1.1770232
1.1767843
1.1765564
1.1763393
1.1761326
1.1759361
1.175749
1.1755714
1.175402
1.1752415
1.1750871
1.1749414
1.1747986
1.1746658
1.1745298
1.1744087
1.1742726
1.1741646
1.1740171
1.1739288
1.1737504
1.1736992
1.1734543
1.1734766
1.1731102
1.1732775
1.1726619
1.1731083
1.172072
1.1730139
1.1712553
1.1730341
1.1700808
1.1732332
1.1683852
1.1737375
1.2037388
1.2043136
1.2063543
1.2090487
1.2101951
1.2095961
1.2083446
1.2068078
1.2051156
1.2033809
1.2016431
1.1999473
1.1983003
1.1967261
1.1952255
1.1938029
1.1924713
1.1912509
1.1901633
1.189152
1.1881939
1.1873239
1.186481
1.1857386
1.1850609
1.1844412
1.1839188
1.1834169
1.1829772
1.182423
1.1819082
1.1814316
1.1809832
1.1805617
1.1801633
1.1797851
1.1794249
1.1790811
1.1787524
1.1784372
1.1781358
1.1778477
1.1775719
1.1773089
1.1770581
1.1768192
1.1765917
1.1763756
1.1761702
1.1759752
1.17579
1.1756145
1.1754472
1.1752887
1.1751364
1.1749927
1.1748517
1.1747206
1.1745861
1.1744659
1.1743308
1.1742226
1.174076
1.1739858
1.173809
1.1737527
1.1735112
1.1735253
1.1731611
1.1733152
1.172716
1.1731318
1.1721327
1.1730213
1.1713174
1.1730285
1.1701413
1.1732285
1.1684287
1.1737478
1.1661865
1.1660765
1.1682547
1.1731977
1.176908
1.178027
1.1785718
1.1790147
1.1794214
1.1799212
1.1803896
1.1808483
1.1812646
1.1816531
1.1818952
1.1822561
1.1822612
1.1826154
1.1825256
1.182763
1.182594
1.1827292
1.1825412
1.182527
1.1822912
1.1821204
1.1817931
1.1815609
1.181277
1.1809917
1.1806967
1.1803975
1.1800956
1.1797926
1.1794909
1.1791926
1.178899
1.1786119
1.1783317
1.1780596
1.1777967
1.1775432
1.1772993
1.177065
1.1768406
1.176626
1.1764211
1.1762257
1.1760396
1.1758626
1.1756939
1.1755337
1.1753805
1.1752351
1.1750948
1.174962
1.174831
1.1747089
1.1745824
1.1744698
1.1743408
1.1742387
1.1740964
1.1740113
1.1738367
1.1737851
1.1735438
1.1735625
1.173197
1.1733552
1.1727501
1.1731732
1.1721585
1.1730617
1.1713464
1.1730693
1.1701649
1.1732619
1.1684481
1.1737758
1.1737043
1.175161
1.1786271
1.1833111
1.1852893
1.1857543
1.1855884
1.185469
1.1853462
1.1852442
1.1850996
1.1849682
1.1848036
1.1846463
1.1844662
1.1842763
1.1840815
1.1838538
1.1836344
1.1833572
1.1831288
1.1827936
1.1825281
1.1821956
1.1819132
1.1815998
1.1813291
1.1810213
1.1807273
1.1804343
1.1801442
1.1798579
1.179576
1.1792991
1.1790274
1.1787612
1.178501
1.178247
1.1779992
1.1777583
1.1775249
1.1772991
1.1770811
1.1768712
1.1766694
1.1764758
1.1762905
1.1761134
1.1759443
1.175783
1.1756289
1.1754822
1.1753415
1.1752076
1.1750777
1.1749544
1.174832
1.1747176
1.174598
1.1744911
1.1743675
1.1742694
1.1741312
1.1740482
1.1738769
1.1738251
1.173587
1.1736036
1.1732413
1.1733931
1.1727967
1.1732074
1.1722084
1.1730907
1.1713912
1.1730908
1.1702059
1.173282
1.1684769
1.1737946
1.1674188
1.1687946
1.1725239
1.1773098
1.1798538
1.1804425
1.1803527
1.1804327
1.1804874
1.1805718
1.1805902
1.1806275
1.1806302
1.1806451
1.1806325
1.1806242
1.180594
1.1805647
1.1805153
1.1804688
1.1803954
1.1803351
1.1802437
1.1801534
1.1800368
1.1799134
1.1797668
1.1796159
1.179452
1.1792795
1.1790987
1.1789116
1.1787191
1.1785228
1.1783238
1.1781234
1.1779228
1.1777233
1.1775252
1.1773302
1.177139
1.1769521
1.1767702
1.1765936
1.1764228
1.1762579
1.1760991
1.1759466
1.1758002
1.1756599
1.1755252
1.1753963
1.1752719
1.1751529
1.1750366
1.1749256
1.1748144
1.1747097
1.1745991
1.1744997
1.1743832
1.1742903
1.1741576
1.1740777
1.1739107
1.17386
1.1736257
1.1736408
1.1732826
1.1734302
1.1728363
1.173242
1.1722452
1.1731215
1.1714294
1.1731181
1.1702393
1.1733038
1.1685026
1.173813
1.1665799
1.1682975
1.1724568
1.1771091
1.1790966
1.1794849
1.1794346
1.1794592
1.1794332
1.1794687
1.1794532
1.1794816
1.1794672
1.1794793
1.1794623
1.1794518
1.1794196
1.1793912
1.1793473
1.1792991
1.1792411
1.1791728
1.1790973
1.1790122
1.1789207
1.1788208
1.1787153
1.1786014
1.178481
1.1783544
1.1782219
1.1780845
1.1779427
1.1777973
1.177649
1.1774985
1.1773465
1.1771939
1.1770409
1.1768889
1.1767386
1.1765904
1.1764448
1.1763023
1.1761634
1.1760284
1.1758975
1.1757709
1.1756486
1.1755305
1.1754164
1.1753063
1.1751993
1.175096
1.1749942
1.1748961
1.1747966
1.1747022
1.174601
1.1745092
1.1744001
1.1743124
1.1741855
1.1741084
1.1739462
1.1738956
1.173666
1.1736782
1.1733255
1.1734663
1.1728806
1.1732753
1.1722915
1.1731504
1.1714715
1.1731423
1.1702765
1.1733233
1.1685296
1.1738291
1.1641418
1.1661241