/*--------------------------------*- C++ -*----------------------------------*\
  =========                 |
  \\      /  F ield         | OpenFOAM: The Open Source CFD Toolbox
   \\    /   O peration     | Website:  https://openfoam.org
    \\  /    A nd           | Version:  6
     \\/     M anipulation  |
\*---------------------------------------------------------------------------*/
FoamFile
{
    version     2.0;
    format      ascii;
    class       volScalarField;
    location    "850";
    object      T;
}
// * * * * * * * * * * * * * * * * * * * * * * * * * * * * * * * * * * * * * //

dimensions      [0 0 0 1 0 0 0];

internalField   nonuniform List<scalar> 
16000
(
297.77555
296.63417
297.04122
296.88344
297.02456
296.99618
297.06469
297.07605
297.12188
297.14768
297.18638
297.2184
297.25535
297.29046
297.32762
297.36458
297.40254
297.44079
297.47964
297.51881
297.55835
297.59812
297.63806
297.67805
297.718
297.75778
297.79729
297.83639
297.87495
297.91285
297.94994
297.98609
298.02117
298.05503
298.08754
298.11859
298.14805
298.1758
298.20175
298.2258
298.24786
298.26788
298.28578
298.30154
298.3151
298.32646
298.3356
298.34253
298.34726
298.34983
298.35026
298.3486
298.34492
298.33927
298.33173
298.32235
298.31122
298.29841
298.28404
298.26821
298.25098
298.23249
298.2128
298.19212
298.17039
298.14822
298.12499
298.10244
298.07796
298.05693
298.0301
298.01488
297.98122
297.98242
297.92837
297.9758
297.87579
298.01768
297.83935
298.07142
297.80019
296.66942
297.09344
296.93275
297.07906
297.05078
297.12231
297.1354
297.18352
297.21156
297.25233
297.28672
297.32576
297.36318
297.40245
297.44163
297.4817
297.52205
297.56289
297.60401
297.64538
297.68687
297.7284
297.76984
297.81106
297.85195
297.89236
297.93216
297.97119
298.00932
298.0464
298.08229
298.11683
298.14991
298.18137
298.21111
298.239
298.26495
298.28886
298.31066
298.33028
298.34768
298.36281
298.37566
298.38622
298.3945
298.40051
298.40428
298.40586
298.40528
298.40262
298.39793
298.39129
298.38278
298.37248
298.36047
298.34683
298.33164
298.31502
298.29705
298.27784
298.25748
298.23606
298.21371
298.19051
298.16677
298.14238
298.11813
298.0931
298.06971
298.04399
298.02416
297.99556
297.98614
297.94464
297.97039
297.89527
298.00444
297.86087
298.04861
297.84617
296.73091
297.16443
297.00228
297.15278
297.1263
297.20026
297.216
297.26625
297.29704
297.34001
297.37705
297.41838
297.45833
297.49992
297.54148
297.58378
297.62634
297.66926
297.71236
297.75556
297.79875
297.84178
297.88454
297.92687
297.96863
298.00966
298.04981
298.08893
298.12685
298.16342
298.19848
298.2319
298.26353
298.29325
298.32095
298.34651
298.36986
298.39092
298.40964
298.42598
298.43991
298.45143
298.46054
298.46727
298.47166
298.47375
298.4736
298.47129
298.46687
298.46044
298.45208
298.44189
298.42995
298.41637
298.40123
298.38463
298.36665
298.3474
298.32698
298.30548
298.28299
298.25961
298.23544
298.21058
298.18524
298.1595
298.13375
298.1078
298.0827
298.05692
298.03435
298.00794
297.99281
297.95842
297.9701
297.91214
297.99722
297.87848
298.04651
297.91215
296.81725
297.25474
297.09231
297.24667
297.22258
297.29898
297.31775
297.37029
297.4041
297.44946
297.48936
297.53316
297.57578
297.61982
297.66386
297.70848
297.75327
297.79827
297.8433
297.88826
297.93299
297.97734
298.02118
298.06432
298.1066
298.14785
298.18791
298.22659
298.26373
298.29917
298.33276
298.36435
298.39381
298.42102
298.44589
298.46833
298.48827
298.50566
298.52049
298.53274
298.54241
298.54955
298.55419
298.55638
298.55621
298.55374
298.54906
298.54228
298.5335
298.52281
298.51032
298.49615
298.4804
298.46318
298.4446
298.42474
298.40369
298.38157
298.35847
298.33449
298.3097
298.2842
298.25807
298.23142
298.20441
298.17716
298.14995
298.12281
298.09629
298.06988
298.04542
298.01972
298.00074
297.97116
297.97211
297.92627
297.99343
297.89388
298.04376
297.99775
296.93027
297.36496
297.20367
297.36138
297.34067
297.41939
297.44183
297.49678
297.53401
297.58197
297.62502
297.67151
297.71701
297.76368
297.81032
297.85735
297.90443
297.95151
297.99842
298.04501
298.09112
298.13657
298.18119
298.22477
298.26715
298.30813
298.34752
298.38515
298.42083
298.45441
298.48573
298.51466
298.54108
298.56489
298.58601
298.60439
298.61998
298.63279
298.6428
298.65007
298.65462
298.65654
298.6559
298.65279
298.64732
298.63962
298.62979
298.61796
298.60426
298.58881
298.57174
298.55318
298.53324
298.51204
298.48969
298.4663
298.44195
298.41674
298.39077
298.36413
298.3369
298.30915
298.28097
298.25245
298.22371
298.1949
298.16623
298.13783
298.11003
298.08276
298.05689
298.03122
298.00976
297.98309
297.97646
297.93938
297.99201
297.90813
298.04635
298.10451
297.06759
297.49651
297.33787
297.49838
297.48197
297.56294
297.58957
297.64709
297.68809
297.73887
297.7853
297.83469
297.88323
297.93265
297.98197
298.03146
298.08079
298.12988
298.17853
298.22655
298.27376
298.31995
298.36492
298.40846
298.45036
298.49041
298.52842
298.56421
298.59758
298.6284
298.65652
298.68181
298.70418
298.72357
298.73992
298.75322
298.76346
298.77068
298.77494
298.7763
298.77486
298.77073
298.76403
298.7549
298.74349
298.72993
298.71439
298.69701
298.67795
298.65734
298.63533
298.61206
298.58765
298.56223
298.53591
298.5088
298.48097
298.45253
298.42357
298.39418
298.36441
298.33435
298.30406
298.27361
298.24313
298.21273
298.18261
298.15293
298.12391
298.09567
298.06866
298.0426
298.01935
297.99459
297.98307
297.95182
297.99247
297.92095
298.05115
298.23425
297.21998
297.65072
297.49631
297.65903
297.64785
297.73099
297.76234
297.82261
297.8677
297.92156
297.9716
298.02408
298.0758
298.12809
298.18015
298.23208
298.28361
298.33456
298.38472
298.43387
298.48179
298.52824
298.57299
298.61582
298.65649
298.6948
298.73053
298.7635
298.79355
298.82053
298.84432
298.86484
298.88201
298.89582
298.90625
298.91334
298.91714
298.91774
298.91523
298.90974
298.90142
298.89043
298.87693
298.8611
298.84312
298.82317
298.80143
298.77807
298.75326
298.72717
298.69994
298.67172
298.64264
298.61283
298.58239
298.55144
298.52005
298.48831
298.4563
298.42411
298.39178
298.35938
298.32697
298.2946
298.26238
298.23041
298.19887
298.16792
298.13776
298.10854
298.08057
298.05397
298.02947
298.00552
297.99008
297.9641
297.99444
297.93342
298.05734
298.38782
297.39448
297.82784
297.67939
297.8439
297.83897
297.92439
297.96105
298.0244
298.07397
298.13124
298.18514
298.24097
298.29603
298.3513
298.40611
298.46043
298.51398
298.56655
298.61787
298.66769
298.71576
298.76181
298.80558
298.84682
298.88531
298.92081
298.95314
298.98211
299.00758
299.02944
299.04761
299.06203
299.0727
299.07965
299.08292
299.0826
299.07882
299.07171
299.06144
299.04818
299.03215
299.01353
298.99255
298.96942
298.94435
298.91755
298.88923
298.85957
298.82875
298.79696
298.76434
298.73104
298.69719
298.66292
298.62832
298.5935
298.55854
298.52349
298.48845
298.45347
298.41861
298.3839
298.34941
298.31517
298.28126
298.24777
298.21487
298.1827
298.15146
298.12132
298.0925
298.06529
298.03995
298.01654
297.99845
297.9762
297.99748
297.94579
298.0635
298.56553
297.59411
298.02876
297.88816
298.05419
298.0566
298.14455
298.18715
298.25401
298.30847
298.36952
298.42757
298.48698
298.54549
298.60379
298.66128
298.71782
298.77312
298.82688
298.87883
298.92867
298.97609
299.02082
299.06258
299.10111
299.13617
299.16755
299.19507
299.21859
299.238
299.25324
299.26428
299.27114
299.27386
299.27256
299.26734
299.25838
299.24585
299.22998
299.21097
299.18909
299.16457
299.13766
299.10863
299.07771
299.04515
299.01118
298.97601
298.93985
298.90289
298.8653
298.82723
298.78882
298.75021
298.7115
298.67279
298.63416
298.59569
298.55742
298.51942
298.48174
298.44443
298.40752
298.37103
298.335
298.29949
298.26458
298.2304
298.1971
298.16487
298.13387
298.10433
298.07651
298.0506
298.02735
298.00745
297.98822
298.00139
297.95798
298.07075
298.76715
297.82027
298.25515
298.12435
298.29169
298.30254
298.39338
298.44253
298.51339
298.57313
298.63835
298.70077
298.76394
298.82594
298.8872
298.94714
299.00556
299.0621
299.11643
299.1682
299.21709
299.26278
299.30496
299.34334
299.37767
299.40773
299.43334
299.45436
299.4707
299.48232
299.48922
299.49145
299.48912
299.48236
299.47134
299.45629
299.43745
299.41506
299.38943
299.36082
299.32956
299.29591
299.26019
299.22268
299.18364
299.14334
299.10202
299.05991
299.0172
298.97409
298.93073
298.88728
298.84388
298.80061
298.7576
298.71491
298.67263
298.6308
298.58946
298.54865
298.50843
298.46881
298.42982
298.39148
298.35379
298.31681
298.28059
298.24526
298.21094
298.17783
298.14608
298.11591
298.08756
298.06127
298.03799
298.01699
298.00001
298.006
297.96998
298.07692
298.9894
298.07486
298.5088
298.38985
298.55844
298.57884
298.67303
298.72936
298.80474
298.87014
298.93988
299.00683
299.07384
299.13921
299.20318
299.26516
299.32485
299.38183
299.43573
299.48616
299.53277
299.57522
299.61319
299.64642
299.67467
299.69778
299.71562
299.72812
299.73527
299.73713
299.73378
299.72539
299.71215
299.69431
299.67215
299.64596
299.61607
299.58283
299.54658
299.50766
299.46643
299.42321
299.37834
299.33211
299.28481
299.23671
299.18805
299.13904
299.0899
299.04078
298.99184
298.94322
298.89502
298.84733
298.80025
298.75382
298.70811
298.66315
298.61896
298.57557
298.53301
298.49129
298.45041
298.41039
298.37122
298.33293
298.29557
298.25922
298.22403
298.19016
298.15778
298.1271
298.0983
298.07178
298.04832
298.0268
298.01144
298.01108
297.98192
298.08328
299.23604
298.35971
298.7917
298.68679
298.85673
298.88784
298.98602
299.05014
299.13064
299.20204
299.27657
299.34809
299.41882
299.48723
299.55337
299.61661
299.67656
299.73277
299.78479
299.83224
299.87472
299.91191
299.94353
299.96934
299.98919
300.00298
300.01068
300.01232
300.00802
299.99795
299.98233
299.96143
299.93558
299.90513
299.87046
299.83197
299.79006
299.74516
299.69765
299.64794
299.5964
299.5434
299.48926
299.43431
299.37882
299.32306
299.26726
299.21161
299.1563
299.10147
299.04727
298.9938
298.94114
298.88937
298.83854
298.7887
298.73988
298.69209
298.64534
298.59964
298.555
298.51142
298.46889
298.4274
298.38696
298.34756
298.30924
298.27206
298.23615
298.20167
298.16879
298.13772
298.10861
298.08196
298.05824
298.0366
298.02237
298.01637
297.99279
298.08829
299.51154
298.67751
299.10655
299.018
299.18959
299.23256
299.33547
299.40794
299.4941
299.57171
299.65113
299.72701
299.80104
299.87178
299.93911
300.00234
300.06101
300.11462
300.16272
300.20488
300.24077
300.27008
300.29261
300.30822
300.31685
300.31854
300.3134
300.30162
300.28344
300.2592
300.22927
300.19405
300.15399
300.10958
300.06127
300.00957
299.95494
299.89786
299.83876
299.77807
299.71618
299.65345
299.59022
299.52679
299.46343
299.40036
299.33781
299.27594
299.2149
299.15482
299.09581
299.03793
298.98125
298.92582
298.87167
298.81881
298.76725
298.717
298.66804
298.62035
298.57394
298.52878
298.48487
298.44218
298.4007
298.36042
298.32135
298.28354
298.2471
298.21217
298.17895
298.1476
298.11832
298.09162
298.06764
298.04615
298.03262
298.022
298.00311
298.09242
299.81826
299.03162
299.45675
299.38695
299.56063
299.61655
299.72504
299.80631
299.89849
299.9823
300.06638
300.14601
300.22244
300.29422
300.36111
300.42235
300.47745
300.52588
300.56719
300.60102
300.62709
300.64522
300.65531
300.6574
300.65158
300.63808
300.61719
300.58928
300.5548
300.51423
300.4681
300.41698
300.36142
300.30201
300.23931
300.17386
300.10619
300.03679
299.96613
299.89463
299.82266
299.75059
299.67872
299.60731
299.53661
299.46682
299.3981
299.3306
299.26443
299.19968
299.13641
299.07468
299.01451
298.95593
298.89893
298.84352
298.78967
298.73736
298.68657
298.63727
298.58942
298.54302
298.49802
298.45441
298.41215
298.37123
298.33165
298.29343
298.25665
298.22146
298.18804
298.15656
298.12724
298.10056
298.0764
298.05527
298.04177
298.02748
298.01267
298.09547
300.15896
299.42574
299.84605
299.79753
299.97391
300.04378
300.15882
300.24917
300.34745
300.43701
300.52502
300.60715
300.68429
300.755
300.81891
300.87524
300.92349
300.96316
300.9939
301.01546
301.02771
301.03065
301.0244
301.00921
300.98543
300.95349
300.91392
300.86731
300.8143
300.75554
300.69173
300.62355
300.55166
300.47671
300.39933
300.32008
300.23952
300.15812
300.07634
299.99457
299.91317
299.83244
299.75265
299.67402
299.59675
299.52099
299.44686
299.37446
299.30387
299.23513
299.16828
299.10332
299.04026
298.97909
298.91979
298.86232
298.80665
298.75274
298.70054
298.65001
298.60111
298.5538
298.50804
298.46379
298.42104
298.37974
298.33988
298.30148
298.26459
298.22933
298.19588
298.16441
298.1352
298.10858
298.08434
298.06375
298.05003
298.03296
298.02192
298.09686
300.53687
299.86459
300.27925
300.25447
300.43435
300.51901
300.64155
300.74059
300.84458
300.93874
301.02906
301.11147
301.18659
301.25294
301.31011
301.35736
301.39427
301.42048
301.43582
301.44026
301.43394
301.41714
301.39027
301.35387
301.30858
301.25511
301.19423
301.12675
301.05349
300.97527
300.89289
300.80713
300.71871
300.62831
300.53656
300.44402
300.35122
300.2586
300.16657
300.07546
299.98558
299.89717
299.81044
299.72556
299.64266
299.56184
299.48319
299.40674
299.33253
299.26057
299.19085
299.12335
299.05804
298.99489
298.93385
298.87486
298.81787
298.76283
298.70965
298.6583
298.60872
298.56085
298.51466
298.4701
298.42712
298.38571
298.34583
298.30749
298.27071
298.23558
298.20227
298.17096
298.14197
298.11549
298.09131
298.07125
298.05704
298.03843
298.03041
298.09624
300.95516
300.35403
300.76237
300.76386
300.94827
301.04825
301.17931
301.28437
301.39285
301.48944
301.57918
301.65828
301.72709
301.78424
301.82935
301.86187
301.88158
301.88842
301.88254
301.86427
301.83413
301.79277
301.74099
301.67966
301.60973
301.53219
301.44805
301.35829
301.26389
301.16575
301.06476
300.96169
300.8573
300.75223
300.64706
300.54232
300.43845
300.33583
300.23479
300.1356
300.03847
299.9436
299.8511
299.76109
299.67365
299.5888
299.50659
299.427
299.35004
299.27566
299.20383
299.1345
299.06761
299.0031
298.94089
298.88092
298.82312
298.7674
298.7137
298.66194
298.61206
298.564
298.5177
298.47312
298.43022
298.38896
298.3493
298.31125
298.27481
298.24003
298.20704
298.17605
298.14737
298.1211
298.09717
298.07759
298.06247
298.04341
298.03785
298.09381
301.41606
300.90246
301.30325
301.33333
301.5221
301.63682
301.77213
301.88454
301.99442
302.08955
302.17383
302.24395
302.30008
302.34115
302.36702
302.37751
302.37282
302.35335
302.31976
302.27286
302.21365
302.14324
302.06282
301.9736
301.87684
301.77374
301.66547
301.55313
301.43777
301.3203
301.2016
301.0824
300.96338
300.84511
300.7281
300.61275
300.49942
300.3884
300.27991
300.17413
300.07121
299.97124
299.87428
299.78037
299.68952
299.60173
299.51697
299.43519
299.35634
299.28036
299.20718
299.13673
299.06891
299.00364
298.94085
298.88043
298.8223
298.76638
298.71257
298.6608
298.611
298.56309
298.51702
298.47273
298.43018
298.38932
298.35013
298.31259
298.2767
298.24249
298.21002
298.1795
298.15122
298.12521
298.10171
298.08254
298.06625
298.04753
298.04376
298.08987
301.93368
301.52406
301.9113
301.97241
302.16133
302.28824
302.42896
302.5432
302.64881
302.73583
302.80697
302.85966
302.89421
302.91011
302.90772
302.8875
302.85031
302.7972
302.72944
302.64846
302.55576
302.45288
302.34138
302.22274
302.09841
301.96971
301.83787
301.70399
301.56907
301.43397
301.29943
301.1661
301.03452
300.90515
300.77834
300.65439
300.53354
300.41596
300.30177
300.19107
300.0839
299.98028
299.88021
299.78365
299.69057
299.60091
299.51459
299.43154
299.35167
299.27489
299.2011
299.13019
299.06207
298.99664
298.9338
298.87344
298.81546
298.75977
298.70627
298.65487
298.6055
298.55808
298.51255
298.46883
298.4269
298.38669
298.3482
298.31138
298.27624
298.24279
298.21105
298.18119
298.1534
298.12772
298.10471
298.08583
298.06865
298.0508
298.04821
298.08421
302.51422
302.21812
302.58701
302.67449
302.86406
303.01274
303.14933
303.25752
303.34966
303.41799
303.46493
303.48875
303.49038
303.47017
303.42935
303.36926
303.29161
303.19821
303.09103
302.97204
302.8432
302.70638
302.56335
302.41571
302.26493
302.11232
301.95902
301.806
301.65411
301.50405
301.35639
301.21161
301.07009
300.9321
300.79789
300.66759
300.54133
300.41916
300.30111
300.18717
300.07731
299.97149
299.86962
299.77164
299.67745
299.58695
299.50003
299.41659
299.3365
299.25965
299.18593
299.11521
299.04738
298.98233
298.91994
298.8601
298.80271
298.74766
298.69485
298.64418
298.59558
298.54896
298.50425
298.46139
298.42032
298.38101
298.34341
298.30752
298.27331
298.24078
298.20997
298.18096
298.15384
298.12862
298.10604
298.08733
298.06991
298.0533
298.05063
298.07691
303.16556
302.9869
303.33013
303.46571
303.67136
303.80085
303.92477
304.01411
304.0796
304.11511
304.12366
304.10482
304.06067
303.99281
303.90365
303.79557
303.67118
303.53305
303.38369
303.22546
303.06054
302.89092
302.71835
302.54434
302.37021
302.19706
302.02581
301.85722
301.69189
301.53029
301.37279
301.21966
301.07109
300.92722
300.7881
300.65378
300.52423
300.39942
300.27929
300.16375
300.0527
299.94603
299.84362
299.74535
299.65109
299.5607
299.47406
299.39101
299.31144
299.23521
299.16218
299.09222
299.02521
298.96103
298.89955
298.84067
298.78425
298.73021
298.67843
298.62882
298.58129
298.53576
298.49215
298.45039
298.41043
298.37223
298.33574
298.30094
298.26782
298.23638
298.20664
298.17866
298.15244
298.12793
298.10593
298.0873
298.06941
298.05333
298.05182
298.06879
303.89623
303.85448
304.20753
304.34511
304.52682
304.64176
304.73759
304.7898
304.81035
304.79499
304.74834
304.67188
304.56928
304.44367
304.29864
304.13756
303.96372
303.78014
303.58955
303.39435
303.19665
302.99823
302.80055
302.60486
302.41214
302.22315
302.03852
301.85869
301.68399
301.51465
301.35082
301.19257
301.03992
300.89285
300.75129
300.61516
300.48434
300.35873
300.23816
300.12252
300.01163
299.90535
299.80352
299.70598
299.61257
299.52314
299.43754
299.35561
299.2772
299.20218
299.13039
299.06171
298.99599
298.93312
298.87296
298.8154
298.76032
298.70762
298.65719
298.60892
298.56274
298.51855
298.47628
298.43586
298.39723
298.36034
298.32514
298.29161
298.25974
298.22952
298.20097
298.17414
298.14897
298.12545
298.10432
298.08584
298.06733
298.0513
298.05132
298.06012
304.72968
304.84508
305.15293
305.28631
305.43642
305.51019
305.55195
305.54307
305.496
305.41012
305.29194
305.14524
304.97527
304.78648
304.58327
304.36952
304.14868
303.92371
303.69709
303.47088
303.24673
303.02594
302.80955
302.59832
302.39281
302.19343
302.00043
301.81396
301.63409
301.46082
301.29409
301.13381
300.97986
300.83208
300.69031
300.55438
300.4241
300.29929
300.17976
300.06533
299.95579
299.85097
299.75068
299.65475
299.563
299.47526
299.39137
299.31116
299.23449
299.16119
299.09112
299.02415
298.96014
298.89895
298.84047
298.78457
298.73114
298.68007
298.63126
298.5846
298.54001
298.4974
298.45669
298.41782
298.38072
298.34533
298.31161
298.27952
298.24905
298.22018
298.19293
298.16734
298.14331
298.12093
298.10084
298.08285
298.06457
298.04898
298.04816
298.05042
305.66115
305.90833
306.16005
306.25859
306.34266
306.34521
306.30394
306.20856
306.07309
305.90104
305.70088
305.47838
305.23975
304.98998
304.7335
304.47391
304.21415
303.95653
303.70285
303.45445
303.21233
302.97718
302.74946
302.52945
302.31731
302.11305
301.91664
301.72796
301.54687
301.37317
301.20666
301.04712
300.89432
300.74802
300.60799
300.474
300.34582
300.22321
300.10596
299.99385
299.88667
299.78422
299.6863
299.59273
299.50332
299.4179
299.33629
299.25833
299.18387
299.11274
299.04481
298.97994
298.91799
298.85882
298.80233
298.74839
298.69688
298.64771
298.60076
298.55594
298.51316
298.47234
298.4334
298.39626
298.36087
298.32717
298.2951
298.26462
298.23571
298.20835
298.18256
298.15831
298.13554
298.1144
298.09536
298.07798
298.06037
298.04565
298.04342
298.04071
306.66085
307.00007
307.16416
307.18852
307.16864
307.06487
306.91177
306.7088
306.47173
306.20767
305.92595
305.63298
305.33455
305.03496
304.73763
304.44505
304.15906
303.88092
303.61148
303.35126
303.10054
302.85941
302.62782
302.40565
302.19268
301.98867
301.79334
301.6064
301.42754
301.25645
301.09284
300.93639
300.78683
300.64385
300.5072
300.37659
300.25178
300.13252
300.01858
299.90972
299.80573
299.7064
299.61154
299.52095
299.43444
299.35185
299.273
299.19773
299.12588
299.05731
298.99187
298.92942
298.86983
298.81299
298.75875
298.70702
298.65768
298.61063
298.56576
298.52299
298.48222
298.44338
298.40639
298.37117
298.33766
298.30581
298.27555
298.24685
298.21967
298.19398
298.16979
298.14705
298.12571
298.10593
298.08805
298.07146
298.05493
298.0415
298.03754
298.03093
307.89545
308.04641
308.07052
307.96641
307.79797
307.55755
307.27574
306.96066
306.62716
306.2832
305.93644
305.5918
305.2531
304.92282
304.60264
304.29359
303.99619
303.71068
303.43701
303.175
302.92438
302.68478
302.45581
302.23707
302.02811
301.82852
301.63789
301.45581
301.2819
301.1158
300.95714
300.80559
300.66084
300.52258
300.39053
300.2644
300.14394
300.0289
299.91905
299.81415
299.71399
299.61837
299.52709
299.43997
299.35682
299.27748
299.20178
299.12955
299.06066
298.99496
298.93231
298.87257
298.81562
298.76134
298.70962
298.66033
298.61338
298.56867
298.5261
298.48557
298.44701
298.41033
298.37546
298.34233
298.31088
298.28104
298.25277
298.22601
298.20073
298.17689
298.15448
298.13345
298.11375
298.09554
298.07897
298.06344
298.04828
298.03618
298.03086
298.02218
308.74254
308.81104
308.64361
308.37375
308.04587
307.67574
307.28595
306.88706
306.48924
306.09797
305.71742
305.34984
304.99655
304.65816
304.33475
304.0261
303.73176
303.45121
303.18386
302.92909
302.68631
302.45491
302.23431
302.02395
301.82328
301.63183
301.44913
301.27474
301.10828
300.94934
300.79759
300.65268
300.5143
300.38215
300.25595
300.13543
300.02035
299.91046
299.80554
299.70537
299.60976
299.5185
299.43142
299.34833
299.26906
299.19345
299.12135
299.05261
298.98708
298.92463
298.86513
298.80845
298.75447
298.70307
298.65415
298.6076
298.56331
298.5212
298.48117
298.44314
298.40701
298.37273
298.3402
298.30937
298.28018
298.25256
298.22646
298.20183
298.17864
298.15685
298.13643
298.11733
298.09952
298.08312
298.06816
298.05408
298.04066
298.03023
298.02435
298.0134
308.9597
308.8837
308.557
308.1577
307.73159
307.29608
306.86425
306.44296
306.03655
305.64689
305.27483
304.92035
304.58307
304.26221
303.95697
303.66652
303.39003
303.12671
302.87582
302.63665
302.40855
302.19091
301.98322
301.78496
301.59569
301.41495
301.24234
301.07748
300.91999
300.76954
300.62582
300.4885
300.35731
300.23198
300.11223
299.99783
299.88854
299.78415
299.68448
299.58932
299.49848
299.41181
299.32911
299.25023
299.17501
299.10331
299.03496
298.96984
298.90782
298.84876
298.79254
298.73904
298.68816
298.63978
298.59379
298.5501
298.50862
298.46924
298.43189
298.39648
298.36293
298.33117
298.30113
298.27274
298.24594
298.22068
298.1969
298.17455
298.15359
298.134
298.11572
298.09872
298.08298
298.06857
298.05543
298.04325
298.032
298.023
298.01677
298.00806
307.80662
307.88397
307.55259
307.23062
306.85631
306.47903
306.10182
305.73401
305.37761
305.03442
304.70483
304.38888
304.08626
303.79661
303.51951
303.25449
303.00106
302.75874
302.52704
302.3055
302.09365
301.89104
301.6973
301.51206
301.33497
301.16567
301.00383
300.84912
300.70124
300.55989
300.42479
300.29569
300.17233
300.05447
299.9419
299.83441
299.73178
299.63379
299.54025
299.45097
299.36579
299.28452
299.20702
299.13314
299.06273
298.99565
298.93178
298.87098
298.81313
298.75811
298.70581
298.65613
298.60894
298.56416
298.52168
298.48142
298.44328
298.40717
298.37302
298.34074
298.31026
298.28152
298.25444
298.22895
298.20501
298.18256
298.16154
298.14191
298.12362
298.10665
298.09094
298.07647
298.06322
298.05121
298.04038
298.03061
298.02192
298.01485
298.0095
298.00389
304.59216
305.17429
305.32659
305.37069
305.26744
305.10444
304.89595
304.66427
304.4189
304.16766
303.91524
303.66492
303.4189
303.17861
302.94501
302.71868
302.49995
302.28899
302.08583
301.89041
301.70264
301.52234
301.34929
301.18326
301.02399
300.87126
300.72483
300.58446
300.44995
300.32109
300.19766
300.07947
299.96634
299.85807
299.75452
299.65549
299.56084
299.47039
299.38398
299.30147
299.22271
299.14757
299.07592
299.00761
298.94255
298.88059
298.82163
298.76556
298.71226
298.66164
298.61358
298.568
298.5248
298.48388
298.44517
298.40856
298.37399
298.34137
298.31063
298.28169
298.25448
298.22895
298.20502
298.18264
298.16175
298.1423
298.12424
298.10752
298.09211
298.07797
298.06506
298.05334
298.04282
298.03345
298.02523
298.0181
298.01208
298.00728
298.00369
298.00101
308.03973
308.11289
307.72902
307.01461
306.17829
305.35917
304.64701
304.04565
303.53633
303.09852
302.68945
302.32719
302.00264
301.70726
301.42834
301.16915
300.92576
300.70438
300.49816
300.31183
300.139
299.9855
299.84391
299.71696
299.6006
299.49843
299.40456
299.32049
299.2422
299.1721
299.1092
299.0512
298.99717
298.94628
298.898
298.85192
298.80773
298.76521
298.72417
298.6846
298.64637
298.6094
298.57371
298.53922
298.50585
298.4736
298.44243
298.4123
298.38317
298.355
298.32775
298.30135
298.27576
298.25094
298.2268
298.20333
298.18037
298.15802
298.13596
298.11458
298.09306
298.07265
298.05114
298.03199
298.00967
297.99282
297.9684
297.95593
297.92533
297.92181
297.88545
297.89614
297.84384
297.88055
297.80465
297.88141
297.78335
297.905
297.80619
297.94291
306.20274
305.55896
304.96091
304.20414
303.36804
302.62962
302.05021
301.62619
301.32149
301.08804
300.8989
300.7375
300.59375
300.46081
300.33335
300.21497
300.09708
299.9927
299.88563
299.7918
299.69582
299.61323
299.52988
299.45704
299.38477
299.32037
299.25702
299.20014
299.14426
299.09141
299.04157
298.99391
298.94772
298.90289
298.85939
298.81718
298.77621
298.73647
298.69788
298.66055
298.6244
298.58937
298.55548
298.52271
298.49097
298.46026
298.43056
298.40181
298.374
298.34707
298.32099
298.29571
298.27115
298.24729
298.22406
298.20142
298.17924
298.15759
298.13617
298.11537
298.09437
298.07439
298.05332
298.03444
298.01251
297.99573
297.97169
297.95919
297.92904
297.92519
297.88987
297.89955
297.84811
297.8841
297.80835
297.88534
297.7864
297.91092
297.80646
297.95083
300.60433
300.56414
300.05918
299.31323
298.86248
298.78399
298.82276
298.89824
298.98827
299.07755
299.15841
299.22759
299.2845
299.3283
299.35879
299.38235
299.38902
299.3919
299.36895
299.35426
299.32116
299.29812
299.25962
299.22931
299.18997
299.15508
299.11646
299.08105
299.04238
299.00282
298.96349
298.92434
298.88508
298.84613
298.80775
298.77005
298.73314
298.69708
298.66187
298.62774
298.59448
298.56213
298.53081
298.50034
298.47078
298.44212
298.41433
298.38738
298.36124
298.33589
298.31128
298.28737
298.26409
298.24144
298.2193
298.19772
298.17644
298.15571
298.135
298.11502
298.09453
298.07532
298.0545
298.03642
298.01441
297.9986
297.974
297.96268
297.9312
297.92945
297.89154
297.90426
297.84962
297.88933
297.81004
297.89129
297.78718
297.91698
297.80693
297.95664
302.9661
303.00587
302.479
301.25401
300.34734
300.11879
300.0383
299.9893
299.94894
299.88514
299.82592
299.76623
299.70984
299.6531
299.62022
299.55031
299.55516
299.46016
299.46336
299.37332
299.37443
299.28975
299.27338
299.2056
299.17855
299.12259
299.09665
299.04548
299.00545
298.96529
298.92552
298.88684
298.84907
298.81219
298.77614
298.74089
298.70644
298.67276
298.63994
298.60793
298.57667
298.54621
298.51655
298.48772
298.45972
298.43251
298.40609
298.38042
298.3555
298.33129
298.30774
298.28483
298.26248
298.2407
298.21936
298.19851
298.17789
298.15778
298.13758
298.1181
298.09797
298.07916
298.05854
298.04077
298.0188
298.00324
297.9785
297.96745
297.936
297.93415
297.89613
297.90893
297.85467
297.89371
297.81338
297.89548
297.7902
297.92165
297.80856
297.96132
302.16463
301.82207
300.9535
299.75059
299.23404
299.097
299.11841
299.12685
299.13166
299.12908
299.13168
299.13046
299.12991
299.12633
299.12219
299.11519
299.10724
299.09628
299.08424
299.07382
299.05396
299.04717
299.02712
299.01253
298.98874
298.96744
298.93948
298.91417
298.88683
298.8589
298.83045
298.80157
298.77238
298.74303
298.71365
298.68436
298.65526
298.62644
298.59805
298.57009
298.54256
298.51553
298.48907
298.46318
298.43789
298.41321
298.38912
298.36563
298.34271
298.32036
298.29853
298.27721
298.25632
298.23589
298.21577
298.19606
298.17644
298.15725
298.13786
298.11913
298.09959
298.08139
298.06114
298.0439
298.02206
298.00702
297.98212
297.97163
297.93955
297.9387
297.89944
297.9136
297.85672
297.89861
297.81586
297.90047
297.79181
297.92683
297.80955
297.9661
302.24372
301.91236
300.98079
299.7756
299.14
299.00561
299.04398
299.04237
299.03964
299.03136
299.03127
299.02666
299.02333
299.01716
299.01113
299.00281
298.99439
298.98369
298.97277
298.95869
298.94607
298.92818
298.91204
298.89291
298.87479
298.85469
298.83526
298.81391
298.7921
298.7697
298.74679
298.72343
298.69972
298.67574
298.65159
298.62733
298.60304
298.57878
298.55471
298.53078
298.50703
298.48354
298.46038
298.43758
298.41516
298.39315
298.37155
298.35036
298.32958
298.30921
298.28921
298.26957
298.25024
298.23123
298.2124
298.19386
298.17529
298.15705
298.13849
298.12051
298.10159
298.08396
298.06412
298.04731
298.02569
298.01099
297.9861
297.97591
297.94381
297.9432
297.90403
297.91805
297.86053
297.90323
297.81882
297.90496
297.79415
297.93168
297.81078
297.97042
301.91238
301.49835
300.4579
299.28061
298.78444
298.70174
298.72768
298.73588
298.74993
298.75263
298.75973
298.76175
298.76577
298.76713
298.76887
298.76871
298.76805
298.76628
298.76357
298.76015
298.75518
298.75008
298.74326
298.73571
298.72652
298.71639
298.70475
298.69226
298.67866
298.66416
298.64879
298.63261
298.61572
298.5982
298.58014
298.56164
298.54278
298.52365
298.50442
298.48502
298.46554
298.44607
298.42667
298.40739
298.38826
298.36932
298.35058
298.33206
298.31375
298.29566
298.27778
298.26008
298.24253
298.22514
298.2078
298.19059
298.17323
298.15607
298.13845
298.12131
298.1031
298.08611
298.06677
298.05042
298.02908
298.01473
297.98993
297.98001
297.94776
297.94755
297.9074
297.92235
297.86373
297.90775
297.82171
297.90942
297.79619
297.93643
297.81192
297.9746
301.77206
301.28953
300.14664
298.99729