/*--------------------------------*- C++ -*----------------------------------*\
  =========                 |
  \\      /  F ield         | OpenFOAM: The Open Source CFD Toolbox
   \\    /   O peration     | Website:  https://openfoam.org
    \\  /    A nd           | Version:  6
     \\/     M anipulation  |
\*---------------------------------------------------------------------------*/
FoamFile
{
    version     2.0;
    format      ascii;
    class       volVectorField;
    location    "850";
    object      U;
}
// * * * * * * * * * * * * * * * * * * * * * * * * * * * * * * * * * * * * * //

dimensions      [0 1 -1 0 0 0 0];

internalField   nonuniform List<vector> 
16000
(
(150.28481 1.2886496e-15 -17.313785)
(158.41398 -1.15024e-15 -11.292091)
(155.31803 4.4482378e-18 -16.348406)
(156.74978 4.023109e-18 -12.268231)
(155.5538 0 -15.264423)
(155.95985 -9.1901869e-16 -12.942971)
(155.37433 8.6985377e-16 -14.500716)
(155.41327 0 -13.286594)
(155.05247 -1.8970497e-19 -13.998067)
(154.94058 1.7942087e-19 -13.387434)
(154.66591 3.3987858e-19 -13.654084)
(154.48624 -6.5924831e-16 -13.336033)
(154.24156 6.2496527e-16 -13.386556)
(154.02982 4.9216454e-18 -13.194255)
(153.79197 5.6210072e-16 -13.143799)
(153.56339 -5.3344656e-16 -12.996486)
(153.32362 -1.0135994e-15 -12.897344)
(153.08492 9.6172011e-16 -12.759002)
(152.84082 0 -12.632672)
(152.59556 8.6853578e-16 -12.488233)
(152.34749 -8.2570638e-16 -12.342641)
(152.09828 -7.8597205e-16 -12.186064)
(151.84788 -7.2530647e-19 -12.023777)
(151.59726 -3.4418776e-19 -11.85274)
(151.34693 6.6582721e-16 -11.67453)
(151.09768 0 -11.488308)
(150.85025 6.1406522e-16 -11.294608)
(150.60546 -5.7488372e-16 -11.093332)
(150.36414 -5.4323202e-19 -10.884809)
(150.12716 -5.1762959e-19 -10.669251)
(149.89538 -5.0550925e-16 -10.447037)
(149.66969 4.8119878e-16 -10.21857)
(149.45098 -1.4363185e-17 -9.9843537)
(149.24012 -1.2842022e-17 -9.7449493)
(149.03797 8.3582165e-16 -9.5009953)
(148.84533 -1.5951916e-15 -9.253191)
(148.66301 7.605249e-16 -9.0022975)
(148.49172 1.1348789e-17 -8.7491272)
(148.33215 1.0832232e-17 -8.494535)
(148.1849 0 -8.2394095)
(148.05052 -1.2331085e-18 -7.9846605)
(147.92947 1.1776054e-18 -7.731207)
(147.82213 -5.7504292e-16 -7.4799653)
(147.72881 5.5135841e-16 -7.2318352)
(147.64971 5.2485247e-16 -6.9876878)
(147.58499 -5.0244441e-16 -6.7483529)
(147.53469 -9.3772395e-19 -6.5146082)
(147.4988 0 -6.2871671)
(147.47722 4.389579e-16 -6.0666719)
(147.46977 -4.1971767e-16 -5.8536834)
(147.47624 0 -5.6486776)
(147.4963 0 -5.4520363)
(147.52959 2.2969506e-17 -5.2640571)
(147.57565 -1.3732591e-18 -5.0849465)
(147.63406 2.1043007e-17 -4.9148075)
(147.70434 0 -4.7536547)
(147.78597 0 -4.6014209)
(147.87831 0 -4.4579633)
(147.98068 0 -4.3230547)
(148.09235 -3.6066554e-17 -4.1964216)
(148.2127 -3.2541828e-17 -4.0776919)
(148.34083 0 -3.9665425)
(148.47634 2.9932292e-17 -3.862403)
(148.6177 0 -3.7650963)
(148.76544 -3.1012964e-17 -3.6735638)
(148.9155 -4.2675767e-16 -3.5884191)
(149.07195 4.068519e-16 -3.5069902)
(149.22252 -3.0541366e-18 -3.432856)
(149.38443 3.75837e-16 -3.3578015)
(149.52004 -3.814456e-16 -3.2958849)
(149.69163 0 -3.2191338)
(149.782 -3.3519181e-16 -3.1771648)
(149.99527 6.4590015e-16 -3.0725755)
(149.96768 -3.1173441e-16 -3.0927207)
(150.31381 4.6935141e-18 -2.885225)
(149.97408 0 -3.1280764)
(150.63102 -1.4024722e-16 -2.5168056)
(149.63793 1.7197781e-17 -3.5091136)
(150.84031 1.3152519e-16 -1.616628)
(149.16365 -3.207596e-17 -4.6944755)
(149.92744 -1.2988072e-15 -18.987945)
(158.07212 1.161335e-15 -12.69931)
(154.79532 -4.3896191e-18 -17.990696)
(156.3114 1.0533557e-15 -13.679394)
(155.03553 -1.0037949e-15 -16.832895)
(155.47884 7.326173e-18 -14.365462)
(154.84969 0 -16.00076)
(154.89696 0 -14.705255)
(154.5113 7.814051e-16 -15.440686)
(154.39445 -7.6246251e-16 -14.785108)
(154.10332 7.0044389e-16 -15.047137)
(153.91335 -6.7383579e-16 -14.699811)
(153.65539 0 -14.732605)
(153.43181 6.0141174e-16 -14.515485)
(153.1818 -5.7486377e-16 -14.44153)
(152.94139 0 -14.269015)
(152.69019 0 -14.143316)
(152.44035 0 -13.977756)
(152.18573 -9.2088234e-16 -13.82255)
(151.93044 8.8868933e-16 -13.648499)
(151.6731 0 -13.471839)
(151.41539 8.0386213e-16 -13.283285)
(151.15742 -7.5232309e-16 -13.08778)
(150.90023 -7.2755175e-16 -12.882558)
(150.64446 3.2113163e-17 -12.6691)
(150.391 6.381962e-16 -12.446719)
(150.14068 6.4720519e-16 -12.215969)
(149.89443 -1.2043948e-15 -11.976871)
(149.65315 1.1383499e-15 -11.729832)
(149.41778 -5.2518795e-16 -11.475184)
(149.18926 5.1685612e-16 -11.213423)
(148.96851 -9.8499795e-16 -10.945081)
(148.75646 9.5362447e-16 -10.670798)
(148.55398 -8.8125045e-16 -10.391281)
(148.36191 4.2675782e-16 -10.107314)
(148.18105 0 -9.8197483)
(148.01212 2.4286201e-17 -9.5294946)
(147.8558 -1.1571849e-17 -9.2375131)
(147.71265 -7.1818333e-16 -8.944803)
(147.58317 7.1685576e-16 -8.6523887)
(147.46779 0 -8.3613093)
(147.36681 -6.1489723e-16 -8.0726006)
(147.28046 3.658669e-17 -7.7872858)
(147.20887 1.1211102e-15 -7.5063567)
(147.15211 -5.3532076e-16 -7.2307643)
(147.11011 -5.1141142e-16 -6.9614031)
(147.08278 5.1906065e-16 -6.6991019)
(147.0699 -4.0843745e-16 -6.4446111)
(147.07123 8.3637282e-16 -6.198597)
(147.08645 -4.2633844e-16 -5.9616315)
(147.11516 0 -5.7341905)
(147.15696 0 -5.5166471)
(147.21135 -2.328023e-17 -5.3092724)
(147.27779 -7.1264953e-16 -5.1122487)
(147.35574 6.6049089e-16 -4.9256504)
(147.44466 6.1153713e-16 -4.7494439)
(147.54403 -6.5382305e-20 -4.5835127)
(147.65317 -6.7234868e-16 -4.4276632)
(147.7714 0 -4.2816189)
(147.898 3.4237712e-17 -4.1450348)
(148.0323 -3.2813677e-17 -4.0174965)
(148.17355 -6.2854356e-17 -3.8985684)
(148.32115 -4.5161836e-16 -3.7877023)
(148.47412 9.4976242e-20 -3.6844607)
(148.63209 4.1515162e-16 -3.5880708)
(148.793 0 -3.4983783)
(148.95752 -4.0738227e-16 -3.41392)
(149.11988 3.9108041e-16 -3.3358303)
(149.28587 -4.6931722e-17 -3.2600846)
(149.43808 3.8309622e-16 -3.1929212)
(149.60328 -6.9300802e-16 -3.120035)
(149.72465 3.7487472e-16 -3.0683691)
(149.9042 3.2037476e-16 -2.979623)
(149.94922 -1.223761e-19 -2.971497)
(150.20894 -3.2012779e-16 -2.8007512)
(150.01217 2.6851913e-16 -2.9753272)
(150.50274 -2.7157194e-16 -2.4667253)
(149.73357 -1.6728567e-17 -3.3151697)
(150.69792 1.6052379e-17 -1.613498)
(149.3108 3.1261613e-17 -4.4074466)
(149.41024 1.3136212e-15 -20.692358)
(157.54268 -8.5072317e-21 -14.166148)
(154.13175 -1.1444172e-15 -19.635712)
(155.72172 1.0600218e-15 -15.160213)
(154.37448 7.9255742e-18 -18.404035)
(154.8411 9.4829554e-16 -15.848924)
(154.17556 -1.8105091e-15 -17.50916)
(154.22259 1.2996188e-17 -16.17158)
(153.81562 8.0977375e-16 -16.897056)
(153.68889 1.1972236e-17 -16.218153)
(153.38231 -7.3795945e-16 -16.456095)
(153.17928 6.8821473e-16 -16.088967)
(152.90778 0 -16.093271)
(152.67079 0 -15.853825)
(152.40808 -5.8769272e-16 -15.749944)
(152.15494 5.5758412e-16 -15.551191)
(151.8919 0 -15.394296)
(151.63055 1.5732579e-17 -15.198811)
(151.36534 -1.4928257e-17 -15.01065)
(151.10018 8.8041665e-16 -14.803489)
(150.83401 4.470049e-19 -14.591751)
(150.56851 -7.9553052e-16 -14.367336)
(150.30399 7.693361e-16 -14.13454)
(150.04157 -7.4317812e-16 -13.891076)
(149.78204 -7.2967816e-16 -13.638264)
(149.52638 6.9418446e-16 -13.375646)
(149.27556 2.0078403e-17 -13.103811)
(149.03057 3.8180832e-17 -12.82294)
(148.79243 3.6362753e-17 -12.533558)
(148.56213 -5.7116196e-16 -12.236155)
(148.34068 4.9444495e-16 -11.931379)
(148.12902 5.3425604e-16 -11.619934)
(147.92808 -4.7899719e-16 -11.302633)
(147.73873 -4.5675507e-16 -10.98036)
(147.56178 8.7070824e-16 -10.654079)
(147.39796 -8.3019605e-16 -10.324817)
(147.2479 -3.7124098e-16 -9.9936559)
(147.11217 7.5495484e-16 -9.6617205)
(146.9912 0 -9.3301631)
(146.88534 -6.8715288e-16 -9.0001468)
(146.79483 6.1453858e-16 -8.6728355)
(146.71982 0 -8.3493718)
(146.66032 -3.7300614e-17 -8.0308683)
(146.61627 0 -7.7183864)
(146.58752 6.804941e-17 -7.4129289)
(146.57381 0 -7.1154227)
(146.57483 -3.0992081e-17 -6.8267119)
(146.59019 4.9272223e-20 -6.5475453)
(146.61944 1.131337e-16 -6.2785729)
(146.6621 0 -6.0203375)
(146.71762 0 -5.7732739)
(146.78545 0 -5.5377057)
(146.86499 0 -5.3138464)
(146.95561 0 -5.1018049)
(147.05664 8.6176176e-17 -4.9015971)
(147.1675 4.1180085e-17 -4.713128)
(147.2876 6.3022697e-16 -4.5361983)
(147.4163 -6.0293805e-16 -4.3705408)
(147.55286 -7.2106375e-17 -4.2158096)
(147.69659 0 -4.071583)
(147.84681 6.6004697e-17 -3.9373805)
(148.00285 5.6863716e-16 -3.8126795)
(148.16405 -5.4450131e-16 -3.6968942)
(148.32967 0 -3.5894436)
(148.49907 -5.5502307e-17 -3.4896295)
(148.67097 -1.0631865e-16 -3.3969287)
(148.8448 4.0742563e-16 -3.3103808)
(149.01751 -3.9062695e-16 -3.2299201)
(149.19003 4.6806151e-17 -3.1535834)
(149.35417 -3.591277e-16 -3.0834029)
(149.51979 9.8596434e-20 -3.012896)
(149.66018 2.8949364e-16 -2.9539712)
(149.82406 0 -2.8774115)
(149.90804 0 -2.8480245)
(150.12061 1.8319263e-17 -2.7117889)
(150.01812 1.7644082e-17 -2.8193355)
(150.39127 2.9653469e-17 -2.4076576)
(149.78895 -1.1451161e-16 -3.1012948)
(150.584 1.1408623e-16 -1.5971313)
(149.34341 -6.0397649e-17 -4.1801754)
(148.73871 3.1762549e-17 -22.436874)
(156.83513 9.4645288e-18 -15.661279)
(153.31619 1.1823684e-15 -21.314953)
(154.9797 4.6928444e-19 -16.670695)
(153.55899 -1.0333167e-15 -20.002543)
(154.04814 -9.7383461e-16 -17.359862)
(153.34483 9.2231729e-16 -19.039438)
(153.39007 -1.3615642e-17 -17.66139)
(152.96083 8.390102e-16 -18.370908)
(152.82271 -7.5729757e-16 -17.669255)
(152.49985 -7.4132349e-16 -17.878186)
(152.28264 1.3829221e-15 -17.490173)
(151.99694 -6.6603948e-16 -17.46206)
(151.74582 1.9766528e-17 -17.197959)
(151.47 0 -17.060677)
(151.20388 0 -16.832627)
(150.92898 -5.4084064e-16 -16.641105)
(150.65637 4.9743295e-16 -16.412237)
(150.38107 0 -16.187562)
(150.10684 9.5686195e-16 -15.943618)
(149.83296 -9.0922518e-16 -15.693099)
(149.5611 4.4763823e-20 -15.429047)
(149.29183 0 -15.15519)
(149.02632 -4.7466461e-17 -14.86971)
(148.76553 -7.2212337e-16 -14.573821)
(148.51056 6.4390202e-16 -14.267315)
(148.26248 -6.9499243e-16 -13.950856)
(148.02238 5.8358562e-16 -13.624821)
(147.79135 -3.7024734e-17 -13.289889)
(147.57044 -3.5321216e-17 -12.946743)
(147.36067 -5.0431547e-16 -12.59622)
(147.16302 4.8021809e-16 -12.239228)
(146.97837 0 -11.876782)
(146.80755 0 -11.509967)
(146.65129 0 -11.139949)
(146.5102 -5.2862823e-17 -10.767945)
(146.3848 -5.0317326e-17 -10.39522)
(146.27548 8.1624707e-16 -10.023061)
(146.18252 -9.1457544e-17 -9.6527715)
(146.10605 -6.5466984e-16 -9.2856449)
(146.0461 4.1612589e-17 -8.9229519)
(146.00259 6.3553216e-16 -8.5659212)
(145.97532 -5.3039861e-16 -8.2157281)
(145.96398 -5.7847726e-16 -7.8734738)
(145.96819 -6.8995223e-17 -7.5401788)
(145.98748 9.8769101e-16 -7.216767)
(146.02131 -3.7703475e-16 -6.9040598)
(146.06908 -5.996978e-17 -6.6027679)
(146.13017 4.0095035e-16 -6.313487)
(146.20392 -5.4693332e-16 -6.0366946)
(146.28963 -4.1775389e-16 -5.7727506)
(146.38661 3.9899558e-16 -5.5218967)
(146.49416 0 -5.2842601)
(146.61157 7.2796695e-16 -5.0598571)
(146.73811 -7.8248026e-16 -4.8486096)
(146.8731 0 -4.6503402)
(147.01594 6.3509375e-16 -4.4647652)
(147.16598 -9.8651135e-16 -4.2915224)
(147.32251 5.0782573e-16 -4.1301876)
(147.48484 5.5481009e-16 -3.9802595)
(147.65232 -1.3278206e-16 -3.8411808)
(147.82431 -5.0747637e-16 -3.7123523)
(148.00019 -4.8528804e-16 -3.5931259)
(148.17933 5.8045493e-16 -3.4828309)
(148.36108 -4.4422232e-16 -3.3807448)
(148.54447 1.063851e-16 -3.2861837)
(148.72861 4.0698264e-16 -3.1983137)
(148.91148 -3.8952202e-16 -3.116603)
(149.09226 5.59639e-16 -3.0398293)
(149.26642 0 -2.9682837)
(149.43667 0 -2.8988599)
(149.59021 0 -2.836262)
(149.74929 0 -2.7661952)
(149.85991 1.5083973e-16 -2.7232842)
(150.04011 -2.8928081e-16 -2.6133534)
(150.00857 3.4738941e-16 -2.6679357)
(150.29879 -3.6652509e-16 -2.3372768)
(149.82163 4.9734005e-16 -2.8924613)
(150.48721 -3.7328518e-16 -1.5662264)
(149.36952 -9.8914161e-20 -3.9130818)
(147.91574 1.3756111e-15 -24.214229)
(155.93244 5.2533576e-19 -17.185926)
(152.34261 -1.2203441e-15 -23.01795)
(154.07584 0 -18.216608)
(152.5827 -1.6446964e-17 -21.618472)
(153.08889 -3.1015756e-17 -18.902429)
(152.34914 0 -20.583385)
(152.38805 -8.6079438e-16 -19.175457)
(151.93699 8.4145204e-16 -19.85551)
(151.78434 -8.2214649e-16 -19.135988)
(151.44491 7.5528186e-16 -19.306969)
(151.21152 -3.875823e-20 -18.898427)
(150.91103 0 -18.831786)
(150.64466 6.245267e-16 -18.540709)
(150.35528 -6.1148748e-16 -18.365157)
(150.07577 0 -18.104144)
(149.78901 5.515711e-16 -17.873459)
(149.50537 -5.5640541e-16 -17.606922)
(149.22061 4.9779729e-16 -17.341171)
(148.93829 4.4375754e-16 -17.055883)
(148.65806 -8.7083567e-16 -16.761951)
(148.38164 -2.6692e-17 -16.453617)
(148.1098 5.0868384e-17 -16.134078)
(147.84385 -9.6962777e-20 -15.802015)
(147.58489 0 -15.458587)
(147.33415 -8.7740838e-20 -15.103869)
(147.09278 0 -14.738653)
(146.86198 3.9672162e-17 -14.363553)
(146.64288 0 -13.979445)
(146.43656 3.5886849e-17 -13.587252)
(146.24404 0 -13.188037)
(146.06626 0 -12.782948)
(145.90404 6.2115305e-17 -12.373231)
(145.7581 0 -11.960201)
(145.62905 -4.5061556e-16 -11.545238)
(145.51733 4.8287163e-16 -11.129763)
(145.42326 0 -10.715222)
(145.34704 -4.8703775e-17 -10.303065)
(145.28868 -6.5054565e-16 -9.8947293)
(145.24808 6.2005251e-16 -9.491618)
(145.22503 -6.7563734e-16 -9.0950822)
(145.21915 7.2475001e-16 -8.7064044)
(145.22998 -7.679139e-16 -8.3267838)
(145.25696 5.8587819e-16 -7.9573213)
(145.29945 -1.3979225e-16 -7.5990107)
(145.35673 6.6601105e-17 -7.2527285)
(145.42804 -1.2708192e-16 -6.9192285)
(145.51258 1.2137088e-16 -6.5991381)
(145.60954 -4.6300498e-16 -6.2929565)
(145.71809 9.9417129e-16 -6.0010553)
(145.83739 -5.6812238e-20 -5.7236814)
(145.96663 -5.0323927e-16 -5.4609601)
(146.10501 1.9219363e-16 -5.2129013)
(146.25175 0 -4.9794055)
(146.4061 0 -4.7602731)
(146.5673 0 -4.5552234)
(146.73471 -6.3875804e-16 -4.3638753)
(146.90774 4.5774171e-16 -4.1857637)
(147.0857 1.4569332e-16 -4.0203704)
(147.2679 -1.3924246e-16 -3.8671131)
(147.45374 1.3299372e-16 -3.7253531)
(147.64264 -7.6260046e-16 -3.5944172)
(147.83402 9.7175129e-16 -3.4735914)
(148.02732 -1.0448504e-15 -3.3621341)
(148.22196 9.9875288e-16 -3.2592733)
(148.41716 -2.1232274e-16 -3.1642346)
(148.61198 -6.0869492e-16 -3.076189)
(148.80487 0 -2.9944001)
(148.9944 -1.8552795e-16 -2.9178924)
(149.1776 1.7750355e-16 -2.8462223)
(149.35405 0 -2.7777347)
(149.51739 0 -2.7136388)
(149.67631 -1.5556866e-16 -2.6476745)
(149.80405 -2.9791093e-16 -2.5952971)
(149.9653 -2.8522746e-16 -2.5057404)
(149.98467 6.8375043e-17 -2.5179859)
(150.21449 -6.554148e-17 -2.2537063)
(149.83428 2.5165917e-16 -2.6851599)
(150.39796 -6.0156659e-17 -1.5263164)
(149.36094 2.2730732e-16 -3.663796)
(146.93022 1.3739725e-15 -26.022137)
(154.84819 -1.2540357e-15 -18.742086)
(151.19701 1.8786188e-17 -24.745518)
(152.99605 0 -19.797054)
(151.43213 1.6706419e-17 -23.249766)
(151.95019 1.0412125e-15 -20.473394)
(151.17558 -9.2628195e-16 -22.136981)
(151.20412 -5.6549198e-17 -20.708055)
(150.7318 0 -21.345011)
(150.56199 -8.1204757e-16 -20.610607)
(150.20582 7.1756185e-17 -20.734657)
(149.95479 2.2364243e-17 -20.304275)
(149.63915 6.4849558e-16 -20.192751)
(149.35691 0 -19.871048)
(149.05389 6.2324546e-16 -19.651865)
(148.76107 -1.1459501e-15 -19.353177)
(148.46294 1.1232999e-15 -19.078151)
(148.16915 -4.9999248e-16 -18.76879)
(147.87617 0 -18.456719)
(147.58747 3.0068045e-17 -18.124776)
(147.30303 -9.1567822e-16 -17.78215)
(147.02468 1.7404382e-15 -17.424259)
(146.75341 -1.706469e-15 -17.053869)
(146.49066 8.8499174e-16 -16.670166)
(146.23768 -7.4857565e-16 -16.274336)
(145.9958 7.1164106e-16 -15.866772)
(145.76629 0 -15.448458)
(145.55037 -6.0424907e-16 -15.020289)
(145.34921 6.1325791e-16 -14.583396)
(145.16388 7.3065152e-17 -14.138981)
(144.99533 6.9551966e-17 -13.688377)
(144.84442 -5.9543414e-16 -13.233004)
(144.71184 9.4472679e-16 -12.774367)
(144.59814 1.312822e-19 -12.314024)
(144.50371 -9.1388587e-16 -11.853582)
(144.42877 5.4411326e-16 -11.394658)
(144.3734 0 -10.938871)
(144.33748 3.9503584e-16 -10.487811)
(144.32076 -4.705273e-16 -10.043022)
(144.32283 0 -9.6059778)
(144.34314 -6.836184e-16 -9.1780703)
(144.38104 8.1617521e-17 -8.7605867)
(144.43576 5.4328741e-16 -8.3547006)
(144.50646 0 -7.9614599)
(144.59223 1.4104153e-16 -7.581779)
(144.6921 6.7285645e-16 -7.2164345)
(144.8051 -5.1329406e-16 -6.8660628)
(144.93023 1.2110088e-19 -6.5311597)
(145.06649 -4.6681458e-16 -6.2120844)
(145.2129 8.906067e-16 -5.9090617)
(145.36853 -8.2542593e-20 -5.62219)
(145.53245 -1.013137e-16 -5.3514466)
(145.7038 -1.9324933e-16 -5.0966971)
(145.88176 1.8450564e-16 -4.8577029)
(146.06553 1.7605073e-16 -4.6341308)
(146.25437 6.7173063e-16 -4.4255723)
(146.44761 -6.4127497e-16 -4.2315384)
(146.64469 0 -4.0514635)
(146.84498 0 -3.8847243)
(147.04784 1.3941445e-16 -3.7306564)
(147.25271 5.3243774e-16 -3.5885414)
(147.45906 -2.5433224e-16 -3.4576343)
(147.6664 -4.854219e-16 -3.3371582)
(147.87423 -2.3169892e-16 -3.2263106)
(148.08205 2.2141459e-16 -3.1242685)
(148.28922 4.2285434e-16 -3.0301955)
(148.49487 8.0771983e-16 -2.9432333)
(148.69772 -3.8587026e-16 -2.8625446)
(148.8962 3.6852116e-16 -2.7872101)
(149.08794 -7.0436596e-16 -2.7164868)
(149.27134 -3.3645684e-16 -2.6492236)
(149.44278 3.2166271e-16 -2.5851357)
(149.60448 1.5369566e-16 -2.5217389)
(149.74443 1.4694801e-16 -2.4637646)
(149.89315 -2.8102943e-16 -2.3882799)
(149.9484 1.3443182e-16 -2.3688139)
(150.13509 1.2861045e-16 -2.1609389)
(149.8368 -4.928312e-16 -2.4809964)
(150.31671 2.9448039e-16 -1.4760309)
(149.33847 0 -3.4055207)
(145.76478 2.2137549e-17 -27.861512)
(153.65125 -1.2361592e-15 -20.329474)
(149.86858 3.768856e-17 -26.486274)
(151.72825 1.1460074e-15 -21.403322)
(150.09638 -1.0886325e-15 -24.884245)
(150.62008 1.0589851e-15 -22.063385)
(149.81282 -6.0815627e-17 -23.689155)
(149.82636 2.87432e-17 -22.248816)
(149.33351 0 -22.828579)
(149.14371 8.2644667e-16 -22.081833)
(148.77062 -8.8079401e-16 -22.149871)
(148.50045 0 -21.695477)
(148.16934 7.4834536e-16 -21.532451)
(147.87071 -6.6783391e-16 -21.17556)
(147.55415 6.3413444e-16 -20.906857)
(147.24841 -6.3912004e-16 -20.564887)
(146.93978 4.9997438e-16 -20.239623)
(146.63715 -1.0850981e-15 -19.881415)
(146.33782 5.1518967e-16 -19.516988)
(146.04513 -4.8974798e-16 -19.132266)
(145.75947 5.2333628e-16 -18.734906)
(145.48277 -5.5347734e-17 -18.321471)
(145.21625 -5.2611107e-17 -17.894424)
(144.96147 -4.9889173e-17 -17.453478)
(144.71984 0 -16.999944)
(144.49277 4.511293e-17 -16.53458)
(144.28157 6.8747987e-16 -16.058638)
(144.08749 -7.3530873e-16 -15.57335)
(143.91166 5.4428372e-16 -15.080158)
(143.75507 -1.4776106e-16 -14.58059)
(143.61855 -6.3342281e-16 -14.076287)
(143.50277 -1.5273628e-19 -13.568968)
(143.40822 -5.1022951e-16 -13.060411)
(143.33519 4.8558708e-16 -12.552426)
(143.28379 1.1571234e-16 -12.046833)
(143.25392 -1.0994858e-16 -11.545431)
(143.24531 0 -11.049979)
(143.2575 -3.992121e-16 -10.562165)
(143.28988 4.7518053e-16 -10.083594)
(143.34168 -7.2432342e-16 -9.6157558)
(143.41202 8.626748e-16 -9.1600216)
(143.49989 -1.6423015e-16 -8.7176217)
(143.60422 7.8282994e-16 -8.2896405)
(143.72387 -1.3430742e-15 -7.8770093)
(143.85765 -1.4220842e-16 -7.4805021)
(144.00438 4.0672254e-16 -7.1007378)
(144.16286 0 -6.7381812)
(144.33192 1.2333084e-16 -6.3931484)
(144.51042 0 -6.0658139)
(144.69726 -2.2394193e-16 -5.7562185)
(144.89142 0 -5.4642791)
(145.09191 -4.0700459e-16 -5.1897982)
(145.29782 1.9411881e-16 -4.9324747)
(145.50833 -3.7010482e-16 -4.691914)
(145.72264 -1.7642758e-16 -4.4676383)
(145.94003 0 -4.2590998)
(146.15986 0 -4.0656965)
(146.38159 0 -3.8867575)
(146.60468 -5.8425705e-16 -3.7215602)
(146.82856 2.7895565e-16 -3.5693554)
(147.05273 1.6515876e-19 -3.4293517)
(147.27672 5.0750352e-16 -3.3007371)
(147.50012 0 -3.1826789)
(147.72252 6.9280107e-16 -3.0743231)
(147.9435 -6.6117565e-16 -2.9748017)
(148.16254 -2.1013371e-16 -2.8832331)
(148.3789 -2.0051859e-16 -2.798724)
(148.59146 7.6596617e-16 -2.7203798)
(148.7987 -3.6554836e-16 -2.6472756)
(148.99854 -5.2312659e-16 -2.5785467)
(149.18895 2.1822404e-19 -2.5131597)
(149.36732 2.1149334e-19 -2.4503255)
(149.53293 1.5169033e-15 -2.3889217)
(149.68139 -5.7939896e-16 -2.3283561)
(149.82367 5.5310937e-16 -2.2620119)
(149.90498 0 -2.2195673)
(150.05748 5.0452427e-16 -2.0591681)
(149.82932 -4.827687e-16 -2.2805721)
(150.23632 0 -1.4162366)
(149.30204 2.1400171e-16 -3.1558166)
(144.40981 1.4142084e-15 -29.730484)
(152.27109 -2.5946901e-15 -21.93972)
(148.35212 -3.9426385e-17 -28.231543)
(150.2649 -7.0418279e-19 -23.030631)
(148.56773 1.1060284e-15 -26.514635)
(149.08929 -1.0448841e-15 -23.665625)
(148.25117 2.0095068e-15 -25.232173)
(148.24418 -9.3593024e-16 -23.789052)
(147.73101 0 -24.297258)
(147.51795 0 -23.539076)
(147.12737 9.9533783e-17 -23.541746)
(146.83644 -7.5503932e-16 -23.059504)
(146.48943 7.6033315e-16 -22.837748)
(146.17405 0 -22.439623)
(145.84428 0 -22.114597)
(145.52644 6.115203e-16 -21.722443)
(145.20875 -5.0765765e-16 -21.339989)
(144.89938 0 -20.925764)
(144.59647 5.233358e-16 -20.501921)
(144.30326 -4.9675367e-16 -20.057309)
(144.02057 -5.8926075e-17 -19.598301)
(143.75043 5.5985579e-17 -19.122566)
(143.49429 5.3200101e-17 -18.632422)
(143.25383 0 -18.12815)
(143.03054 0 -17.611285)
(142.8259 0 -17.083021)
(142.64119 0 -16.544956)
(142.47762 0 -15.998717)
(142.33618 7.0794618e-16 -15.446114)
(142.21769 -5.2369066e-16 -14.889038)
(142.12275 0 -14.32947)
(142.05176 6.0926444e-16 -13.769437)
(142.00488 9.009738e-20 -13.210989)
(141.98205 6.4879435e-20 -12.656169)
(141.98298 -9.329145e-16 -12.106977)
(142.00718 4.4405485e-16 -11.565351)
(142.05394 5.2846129e-16 -11.033135)
(142.12241 -4.0237091e-16 -10.51205)
(142.21154 -3.8305504e-16 -10.003687)
(142.32017 -3.6467823e-16 -9.509481)
(142.44704 -1.7342657e-16 -9.0307014)
(142.5908 6.6156459e-16 -8.5684455)
(142.75004 -1.5762409e-16 -8.1236324)
(142.92335 -4.5011978e-16 -7.6970052)
(143.10931 1.4296363e-16 -7.2891322)
(143.30649 6.809106e-16 -6.9004133)
(143.51354 -2.5957842e-16 -6.5310887)
(143.72914 2.4724918e-16 -6.1812481)
(143.95206 -2.3551244e-16 -5.8508428)
(144.18111 2.2436913e-16 -5.5396971)
(144.41523 0 -5.2475207)
(144.65342 -1.480992e-19 -4.9739216)
(144.89476 -1.9424321e-16 -4.7184178)
(145.13845 1.8514367e-16 -4.4804491)
(145.38374 -3.5314836e-16 -4.2593879)
(145.62996 0 -4.0545484)
(145.87652 -3.2085384e-16 -3.8652112)
(146.12294 3.0564407e-16 -3.6906015)
(146.36878 -1.1662043e-15 -3.5299119)
(146.61355 5.561123e-16 -3.3823083)
(146.85683 5.2991943e-16 -3.2469372)
(147.09824 -2.5270698e-16 -3.1229276)
(147.33745 4.8168262e-16 -3.0094005)
(147.57413 -9.1862891e-16 -2.9054614)
(147.80796 -4.3780735e-16 -2.8102075)
(148.03853 8.351084e-16 -2.722725)
(148.26523 1.0001571e-19 -2.6420921)
(148.48709 3.7954881e-16 -2.567379)
(148.70272 3.6182432e-16 -2.4976445)
(148.91017 0 -2.4319609)
(149.10735 9.8637764e-16 -2.3692922)
(149.29188 -1.8815118e-15 -2.3087597)
(149.46196 1.0530429e-19 -2.2494157)
(149.61633 8.5521912e-16 -2.1889211)
(149.7553 -1.3593328e-15 -2.128371)
(149.85545 2.2341017e-19 -2.0700048)
(149.98165 2.4737895e-16 -1.9479304)
(149.8149 -4.7201811e-16 -2.0837801)
(150.15796 1.1258412e-15 -1.3512622)
(149.26638 -2.0782975e-16 -2.9075005)
(142.8566 0 -31.626377)
(150.69087 -1.3200297e-15 -23.570989)
(146.63499 1.2625859e-15 -29.9805)
(148.59239 3.7112624e-17 -24.677109)
(146.83259 1.1597789e-15 -28.136967)
(147.34314 -3.2427124e-17 -25.275203)
(146.47588 -1.005076e-15 -26.759784)
(146.44236 8.9229935e-16 -25.320483)
(145.90884 -9.0076054e-16 -25.742166)
(145.6692 -9.0725108e-16 -24.971015)
(145.26049 -3.9272183e-19 -24.898301)
(144.94743 7.6626405e-16 -24.382161)
(144.58434 1.3866468e-19 -24.093412)
(144.25239 -6.8937728e-16 -23.646162)
(143.91036 6.5343955e-16 -23.256715)
(143.58208 7.7651782e-17 -22.805898)
(143.25778 6.6234765e-16 -22.357984)
(142.94496 -5.5833512e-16 -21.879226)
(142.64258 -5.3034442e-16 -21.387722)
(142.35387 4.4018132e-16 -20.875034)
(142.08003 -4.7811722e-16 -20.346546)
(141.82319 4.5381495e-16 -19.801016)
(141.58501 -4.3128331e-16 -19.240788)
(141.36722 3.069274e-16 -18.666767)
(141.17135 0 -18.080838)
(140.99883 7.3971077e-16 -17.484692)
(140.85086 -7.0269472e-16 -16.880359)
(140.72845 -6.680973e-16 -16.269915)
(140.63235 -1.7421705e-19 -15.655584)
(140.56309 6.0356356e-16 -15.039642)
(140.5209 5.7396926e-16 -14.424413)
(140.50577 -5.4569346e-16 -13.81222)
(140.51742 1.2991561e-16 -13.205353)
(140.5553 -4.9361955e-16 -12.606037)
(140.61864 8.2180528e-16 -12.016391)
(140.70645 -4.4668622e-16 -11.438412)
(140.81753 -7.438166e-16 -10.873941)
(140.95053 4.0441238e-16 -10.324643)
(141.10397 0 -9.7920001)
(141.27626 -1.83293e-16 -9.2772903)
(141.46575 -6.9716777e-16 -8.7815916)
(141.67075 6.638277e-16 -8.3057764)
(141.88957 7.8967713e-16 -7.8505173)
(142.12052 -7.5225583e-16 -7.4162932)
(142.36198 -2.8617663e-16 -7.0033993)
(142.61238 6.822739e-16 -6.6119601)
(142.87022 2.5964185e-16 -6.241943)
(143.1341 2.4754027e-16 -5.8931724)
(143.40274 2.3568294e-16 -5.5653455)
(143.67494 -1.7265247e-19 -5.258047)
(143.94963 -6.4165399e-16 -4.9707642)
(144.22584 6.1093935e-16 -4.7029006)
(144.50272 3.8787337e-16 -4.4537887)
(144.7795 -7.3960906e-16 -4.2227022)
(145.05552 3.5213755e-16 -4.0088665)
(145.3302 -6.7101113e-16 -3.8114673)
(145.60304 1.5984185e-15 -3.6296688)
(145.87364 -3.0478149e-16 -3.4626062)
(146.14165 -2.9027318e-16 -3.3093981)
(146.40672 -2.7647672e-16 -3.1691363)
(146.6685 0 -3.0409159)
(146.92671 -7.5310499e-16 -2.9238205)
(147.18111 -4.7810103e-16 -2.8169364)
(147.43145 1.3672131e-15 -2.719341)
(147.67751 4.3406125e-16 -2.6301089)
(147.91899 -4.1354465e-16 -2.5483072)
(148.15541 -1.575803e-15 -2.4729963)
(148.38596 -3.7506853e-16 -2.4032274)
(148.60937 3.5763779e-16 -2.3380479)
(148.82385 0 -2.2764896)
(149.0273 9.7284502e-16 -2.2175117)
(149.2173 -6.1793223e-16 -2.1602486)
(149.39186 8.8271199e-16 -2.1034535)
(149.55035 -8.4063015e-16 -2.0449502)
(149.68835 1.8576122e-19 -1.9881171)
(149.80128 5.0862532e-16 -1.9205359)
(149.90726 2.4215414e-16 -1.8283175)
(149.79505 0 -1.8920777)
(150.07976 -2.1968505e-16 -1.2828124)
(149.22768 0 -2.6644148)
(141.08962 -1.4789269e-15 -33.547669)
(148.89412 -4.1930684e-17 -25.221197)
(144.69981 -4.0156485e-17 -31.728079)
(146.69198 -3.7643334e-17 -26.338663)
(144.87288 -3.5644867e-17 -29.744234)
(145.36268 -1.0799224e-15 -26.88435)
(144.46814 1.084914e-15 -28.263018)
(144.40198 6.0328748e-17 -26.831687)
(143.84804 9.7252815e-16 -27.151409)
(143.57883 -7.5781483e-16 -26.36293)
(143.15158 -1.0259804e-16 -26.204048)
(142.81561 8.2658696e-16 -25.645488)
(142.4369 -7.8264737e-16 -25.280204)
(142.08947 0 -24.773884)
(141.73723 0 -24.310384)
(141.40153 -7.0670239e-16 -23.790694)
(141.07461 4.4658398e-16 -23.267554)
(140.76339 0 -22.714323)
(140.46765 -6.0354636e-16 -22.14568)
(140.1906 1.0174691e-15 -21.555681)
(139.9338 2.7289518e-19 -20.949071)
(139.69947 -8.0201062e-16 -20.325684)
(139.48934 4.3508612e-16 -19.688097)
(139.30515 -7.2344472e-16 -19.0379)
(139.14834 8.8284669e-16 -18.377459)
(139.02017 -9.3320207e-17 -17.709032)
(138.92159 0 -17.035148)
(138.85327 0 -16.358372)
(138.81556 4.7894288e-16 -15.681356)
(138.8085 8.0854489e-20 -15.006757)
(138.83183 1.4446871e-16 -14.337209)
(138.88496 -1.0964933e-15 -13.675276)
(138.96702 5.2147073e-16 -13.023413)
(139.07688 -4.9539898e-16 -12.383933)
(139.21316 5.8896189e-16 -11.758972)
(139.37429 -4.4786959e-16 -11.150469)
(139.55853 6.3878055e-16 -10.560143)
(139.76403 0 -9.9894816)
(139.98883 0 -9.4397375)
(140.23092 3.6666014e-16 -8.9119219)
(140.48831 -1.7457219e-16 -8.4068146)
(140.75899 -8.2992384e-16 -7.9249688)
(141.04102 -1.5782448e-16 -7.4667251)
(141.33254 1.0525999e-15 -7.0322276)
(141.63176 2.8625425e-16 -6.6214388)
(141.93702 -1.089863e-15 -6.23416)
(142.24678 0 -5.8700482)
(142.55962 -7.4052752e-16 -5.5286363)
(142.87425 4.7028898e-16 -5.2093497)
(143.18954 2.2392416e-16 -4.9115241)
(143.50448 4.2602203e-16 -4.6344208)
(143.81816 -8.1179838e-16 -4.3772409)
(144.12984 7.7281976e-16 -4.1391382)
(144.43886 -1.1043962e-15 -3.9192299)
(144.74466 3.5054744e-16 -3.7166066)
(145.04678 3.3379376e-16 -3.5303395)
(145.34483 0 -3.359493)
(145.63852 0 -3.203127)
(145.92763 5.7632326e-16 -3.0602964)
(146.21192 5.4871001e-16 -2.9300414)
(146.49115 -5.2287717e-16 -2.8114175)
(146.76514 4.9735167e-16 -2.7034787)
(147.03375 -4.7378267e-16 -2.6052903)
(147.29682 4.5088642e-16 -2.515916)
(147.55421 -1.2884825e-15 -2.4344213)
(147.80573 -8.1750222e-16 -2.3598677)
(148.05102 1.1675778e-15 -2.29131)
(148.28943 3.7037704e-16 -2.2277958)
(148.51984 0 -2.1683682)
(148.74061 6.7089888e-16 -2.1120355)
(148.94967 -6.386698e-16 -2.0577836)
(149.14453 0 -2.0047278)
(149.32328 -5.782938e-16 -1.9513197)
(149.48462 -5.5025959e-16 -1.8963215)
(149.6231 0 -1.8421255)
(149.74395 0 -1.7711652)
(149.83515 0 -1.701485)
(149.77131 -4.5128903e-16 -1.7066455)
(150.00594 0 -1.2116979)
(149.19779 -7.7523891e-16 -2.4237677)
(139.08935 -4.7015622e-17 -35.492144)
(146.86018 0 -26.886768)
(142.52648 -1.2643399e-15 -33.467543)
(144.54218 1.2647183e-15 -28.009126)
(142.6676 0 -31.327328)
(143.12605 -1.0975609e-15 -28.482421)
(142.20607 9.7210708e-16 -29.730216)
(142.10115 0 -28.307789)
(141.52668 8.708568e-16 -28.50961)
(141.2254 -9.3338696e-16 -27.696091)
(140.77959 5.191221e-17 -27.439181)
(140.42086 7.3911693e-16 -26.826871)
(140.02799 -9.2915127e-17 -26.373839)
(139.66761 -6.1826985e-16 -25.796191)
(139.30884 5.8636158e-16 -25.247169)
(138.97071 8.0002749e-17 -24.646483)
(138.6474 -5.2665819e-16 -24.036709)
(138.34536 0 -23.397605)
(138.06508 6.7523673e-17 -22.74116)
(137.80981 1.9260578e-16 -22.063734)
(137.58132 -1.2194225e-16 -21.369801)
(137.38184 -2.3090693e-16 -20.660301)
(137.21308 0 -19.938249)
(137.07658 1.0412081e-16 -19.206004)
(136.97356 -9.845286e-17 -18.466516)
(136.90487 9.3446495e-17 -17.722671)
(136.87101 0 -16.977535)
(136.87212 -1.6898911e-16 -16.23416)
(136.90793 -4.8081691e-16 -15.495599)
(136.97781 4.5611212e-16 -14.764827)
(137.0808 -1.4427859e-16 -14.044703)
(137.21559 0 -13.337918)
(137.38059 3.9129621e-16 -12.646964)
(137.57396 -6.1969201e-16 -11.974098)
(137.79366 1.1815621e-16 -11.321323)
(138.0375 -2.2407366e-16 -10.690364)