/*--------------------------------*- C++ -*----------------------------------*\
| =========                 |                                                 |
| \\      /  F ield         | OpenFOAM: The Open Source CFD Toolbox           |
|  \\    /   O peration     | Version:  5.0                                   |
|   \\  /    A nd           | Web:      www.OpenFOAM.org                      |
|    \\/     M anipulation  |                                                 |
\*---------------------------------------------------------------------------*/
FoamFile
{
    version     2.0;
    format      ascii;
    class       volScalarField;
    location    "0";
    object      S;
}
// * * * * * * * * * * * * * * * * * * * * * * * * * * * * * * * * * * * * * //

dimensions      [0 0 -1 1 0 0 0];

internalField   nonuniform List<scalar> 
25000
(
0.59064
0.608689
0.627071
0.645783
0.664821
0.684183
0.703862
0.723857
0.74416
0.764767
0.785672
0.806869
0.828351
0.85011
0.87214
0.894431
0.916975
0.939763
0.962786
0.986033
1.00949
1.03316
1.05701
1.08105
1.10525
1.12961
1.15411
1.17874
1.20348
1.22833
1.25326
1.27825
1.30331
1.3284
1.35352
1.37864
1.40376
1.42884
1.45389
1.47887
1.50377
1.52858
1.55327
1.57783
1.60224
1.62648
1.65053
1.67437
1.69799
1.72137
1.74448
1.76732
1.78985
1.81207
1.83395
1.85548
1.87663
1.8974
1.91776
1.93769
1.95718
1.97622
1.99477
2.01284
2.0304
2.04744
2.06394
2.07989
2.09527
2.11007
2.12428
2.13788
2.15087
2.16322
2.17494
2.186
2.1964
2.20613
2.21518
2.22355
2.23122
2.23818
2.24445
2.24999
2.25482
2.25893
2.26232
2.26497
2.2669
2.26809
2.26856
2.26829
2.26729
2.26556
2.26311
2.25993
2.25604
2.25142
2.2461
2.24007
0.596636
0.6149
0.633502
0.65244
0.671709
0.691306
0.711228
0.73147
0.752026
0.772892
0.794062
0.815529
0.837286
0.859327
0.881643
0.904227
0.927069
0.950161
0.973492
0.997054
1.02083
1.04482
1.06901
1.09338
1.11793
1.14263
1.16748
1.19246
1.21757
1.24277
1.26807
1.29344
1.31887
1.34435
1.36985
1.39536
1.42086
1.44635
1.47179
1.49717
1.52248
1.54769
1.57279
1.59776
1.62258
1.64723
1.6717
1.69596
1.71999
1.74379
1.76732
1.79057
1.81352
1.83615
1.85845
1.88039
1.90196
1.92313
1.9439
1.96424
1.98414
2.00357
2.02253
2.04099
2.05894
2.07636
2.09324
2.10957
2.12532
2.14049
2.15505
2.16901
2.18234
2.19504
2.20708
2.21847
2.22919
2.23924
2.24859
2.25725
2.2652
2.27245
2.27898
2.28478
2.28986
2.29421
2.29782
2.3007
2.30283
2.30422
2.30487
2.30478
2.30395
2.30237
2.30006
2.29701
2.29323
2.28873
2.2835
2.27755
0.602483
0.620958
0.639776
0.658935
0.678431
0.698261
0.718421
0.738906
0.759712
0.780833
0.802263
0.823996
0.846026
0.868344
0.890943
0.913815
0.936951
0.960343
0.983979
1.00785
1.03195
1.05626
1.08077
1.10547
1.13035
1.1554
1.1806
1.20593
1.23139
1.25696
1.28262
1.30836
1.33417
1.36002
1.3859
1.4118
1.43769
1.46357
1.48941
1.51519
1.54089
1.56651
1.59202
1.61739
1.64263
1.66769
1.69257
1.71724
1.74169
1.7659
1.78985
1.81352
1.83689
1.85994
1.88265
1.905
1.92698
1.94857
1.96975
1.9905
2.0108
2.03063
2.04999
2.06884
2.08719
2.105
2.12226
2.13896
2.15509
2.17063
2.18556
2.19987
2.21355
2.22659
2.23898
2.2507
2.26174
2.2721
2.28176
2.29072
2.29896
2.30649
2.31329
2.31936
2.32469
2.32929
2.33313
2.33623
2.33858
2.34017
2.34102
2.34111
2.34044
2.33903
2.33686
2.33395
2.3303
2.3259
2.32077
2.31491
0.608176
0.626857
0.645887
0.665263
0.684982
0.705041
0.725435
0.74616
0.767211
0.788582
0.810269
0.832264
0.854561
0.877152
0.90003
0.923186
0.946613
0.9703
0.994237
1.01842
1.04282
1.06745
1.09229
1.11732
1.14253
1.16792
1.19346
1.21914
1.24495
1.27088
1.2969
1.32301
1.34918
1.37541
1.40167
1.42795
1.45423
1.4805
1.50673
1.5329
1.55901
1.58503
1.61094
1.63672
1.66236
1.68784
1.71313
1.73821
1.76308
1.78771
1.81207
1.83615
1.85994
1.8834
1.90653
1.9293
1.95169
1.97369
1.99528
2.01643
2.03714
2.05738
2.07714
2.09639
2.11512
2.13333
2.15098
2.16806
2.18456
2.20047
2.21577
2.23044
2.24448
2.25786
2.27059
2.28264
2.29401
2.30469
2.31467
2.32393
2.33247
2.34028
2.34736
2.3537
2.35929
2.36413
2.36822
2.37155
2.37412
2.37592
2.37696
2.37724
2.37675
2.3755
2.37349
2.37072
2.3672
2.36292
2.3579
2.35214
0.613708
0.632591
0.651829
0.671419
0.691357
0.711639
0.732263
0.753223
0.774515
0.796133
0.818071
0.840324
0.862884
0.885744
0.908896
0.932333
0.956045
0.980023
1.00426
1.02874
1.05345
1.0784
1.10355
1.1289
1.15445
1.18016
1.20604
1.23207
1.25823
1.28451
1.31089
1.33736
1.3639
1.3905
1.41714
1.4438
1.47046
1.49711
1.52373
1.5503
1.57681
1.60322
1.62954
1.65573
1.68177
1.70765
1.73335
1.75885
1.78413
1.80917
1.83395
1.85845
1.88265
1.90653
1.93007
1.95325
1.97606
1.99847
2.02047
2.04204
2.06315
2.08379
2.10395
2.1236
2.14273
2.16133
2.17936
2.19683
2.21371
2.22999
2.24566
2.2607
2.27509
2.28883
2.3019
2.31429
2.32599
2.33699
2.34728
2.35685
2.36569
2.3738
2.38116
2.38777
2.39363
2.39873
2.40306
2.40663
2.40942
2.41144
2.41268
2.41316
2.41285
2.41177
2.40992
2.4073
2.40392
2.39977
2.39486
2.3892
0.619074
0.638156
0.657598
0.677396
0.697548
0.71805
0.738899
0.76009
0.781618
0.803478
0.825664
0.848169
0.870988
0.894112
0.917534
0.941246
0.965239
0.989504
1.01403
1.03881
1.06383
1.08908
1.11455
1.14022
1.16609
1.19213
1.21835
1.24471
1.27122
1.29785
1.32458
1.35141
1.37832
1.40529
1.43229
1.45933
1.48637
1.51341
1.54041
1.56737
1.59427
1.62109
1.6478
1.67439
1.70084
1.72713
1.75324
1.77914
1.80483
1.83029
1.85548
1.88039
1.905
1.9293
1.95325
1.97685
2.00007
2.0229
2.04531
2.06728
2.0888
2.10985
2.13041
2.15046
2.16999
2.18897
2.2074
2.22525
2.24252
2.25917
2.27521
2.29061
2.30537
2.31946
2.33288
2.34561
2.35765
2.36898
2.37959
2.38947
2.39862
2.40702
2.41467
2.42156
2.42769
2.43304
2.43763
2.44143
2.44446
2.4467
2.44816
2.44883
2.44871
2.44781
2.44613
2.44367
2.44042
2.43641
2.43162
2.42607
0.62427
0.643546
0.663186
0.683189
0.703551
0.724268
0.745337
0.766754
0.788514
0.81061
0.833039
0.855793
0.878865
0.902249
0.925936
0.949918
0.974188
0.998734
1.02355
1.04862
1.07394
1.09949
1.12527
1.15126
1.17744
1.20381
1.23036
1.25706
1.28391
1.31088
1.33797
1.36515
1.39242
1.41975
1.44712
1.47453
1.50195
1.52936
1.55675
1.5841
1.61139
1.63859
1.6657
1.69269
1.71954
1.74624
1.77275
1.79907
1.82517
1.85103
1.87663
1.90196
1.92698
1.95169
1.97606
2.00007
2.02371
2.04694
2.06976
2.09215
2.11407
2.13553
2.15649
2.17694
2.19687
2.21625
2.23507
2.25331
2.27095
2.28799
2.3044
2.32017
2.33529
2.34974
2.36351
2.37659
2.38896
2.40062
2.41155
2.42175
2.43121
2.43991
2.44785
2.45503
2.46143
2.46706
2.4719
2.47595
2.47921
2.48168
2.48335
2.48423
2.48431
2.4836
2.48209
2.47978
2.47669
2.47282
2.46816
2.46272
0.629291
0.648755
0.66859
0.688792
0.709359
0.730286
0.751571
0.773209
0.795195
0.817524
0.84019
0.863187
0.886508
0.910146
0.934093
0.958341
0.982881
1.0077
1.0328
1.05816
1.08377
1.10962
1.1357
1.162
1.1885
1.2152
1.24207
1.2691
1.29628
1.3236
1.35103
1.37856
1.40618
1.43387
1.46161
1.48938
1.51718
1.54497
1.57274
1.60047
1.62814
1.65574
1.68324
1.71062
1.73787
1.76497
1.79189
1.81861
1.84512
1.87139
1.8974
1.92313
1.94857
1.97369
1.99847
2.0229
2.04694
2.07059
2.09382
2.11661
2.13895
2.16081
2.18217
2.20303
2.22335
2.24313
2.26234
2.28097
2.299
2.31641
2.3332
2.34934
2.36482
2.37963
2.39376
2.40719
2.4199
2.4319
2.44316
2.45368
2.46345
2.47246
2.4807
2.48816
2.49484
2.50074
2.50584
2.51014
2.51365
2.51635
2.51825
2.51933
2.51962
2.51909
2.51776
2.51563
2.5127
2.50897
2.50444
2.49913
0.634131
0.65378
0.673804
0.694201
0.714967
0.7361
0.757595
0.779449
0.801656
0.824212
0.847111
0.870345
0.89391
0.917797
0.941999
0.966507
0.991313
1.01641
1.04178
1.06742
1.09332
1.11947
1.14585
1.17245
1.19926
1.22627
1.25346
1.28082
1.30833
1.33598
1.36375
1.39163
1.4196
1.44765
1.47575
1.50388
1.53204
1.5602
1.58835
1.61646
1.64452
1.6725
1.70039
1.72817
1.75581
1.78331
1.81062
1.83775
1.86466
1.89134
1.91776
1.9439
1.96975
1.99528
2.02047
2.04531
2.06976
2.09382
2.11746
2.14066
2.1634
2.18567
2.20744
2.22869
2.24942
2.26959
2.28919
2.30821
2.32663
2.34442
2.36159
2.3781
2.39395
2.40913
2.42361
2.43739
2.45045
2.46278
2.47438
2.48522
2.49531
2.50463
2.51317
2.52092
2.52789
2.53406
2.53943
2.54399
2.54775
2.55069
2.55281
2.55412
2.55461
2.55428
2.55314
2.55118
2.54841
2.54484
2.54045
2.53527
0.638787
0.658615
0.678824
0.69941
0.720371
0.741703
0.763404
0.785468
0.807892
0.830669
0.853794
0.877261
0.901064
0.925194
0.949645
0.974408
0.999475
1.02483
1.05048
1.0764
1.10258
1.12901
1.15569
1.18259
1.20971
1.23702
1.26453
1.29221
1.32004
1.34802
1.37613
1.40435
1.43267
1.46106
1.48952
1.51801
1.54653
1.57506
1.60358
1.63207
1.6605
1.68887
1.71714
1.74531
1.77335
1.80123
1.82895
1.85647
1.88379
1.91087
1.93769
1.96424
1.9905
2.01643
2.04204
2.06728
2.09215
2.11661
2.14066
2.16427
2.18742
2.21009
2.23226
2.25392
2.27504
2.29561
2.31561
2.33502
2.35382
2.372
2.38955
2.40644
2.42266
2.4382
2.45304
2.46717
2.48058
2.49325
2.50518
2.51636
2.52676
2.53639
2.54524
2.5533
2.56055
2.56701
2.57265
2.57747
2.58148
2.58466
2.58702
2.58855
2.58926
2.58914
2.58819
2.58641
2.58381
2.58039
2.57616
2.57111
0.643254
0.663256
0.683644
0.704414
0.725564
0.747091
0.768992
0.791261
0.813895
0.836888
0.860234
0.883928
0.907963
0.932332
0.957026
0.982038
1.00736
1.03298
1.05889
1.08508
1.11154
1.13825
1.16522
1.19241
1.21983
1.24745
1.27526
1.30326
1.33141
1.35972
1.38816
1.41671
1.44537
1.4741
1.50291
1.53176
1.56064
1.58953
1.61841
1.64727
1.67608
1.70483
1.73348
1.76203
1.79046
1.81874
1.84685
1.87477
1.90248
1.92996
1.95718
1.98414
2.0108
2.03714
2.06315
2.0888
2.11407
2.13895
2.1634
2.18742
2.21097
2.23405
2.25663
2.27869
2.30021
2.32117
2.34156
2.36137
2.38056
2.39912
2.41705
2.43431
2.45091
2.46681
2.48202
2.49651
2.51027
2.52329
2.53555
2.54706
2.55779
2.56774
2.5769
2.58525
2.5928
2.59954
2.60546
2.61055
2.61482
2.61825
2.62085
2.62261
2.62354
2.62363
2.62288
2.62129
2.61887
2.61562
2.61154
2.60664
0.647528
0.667699
0.68826
0.709208
0.730543
0.752259
0.774353
0.796822
0.81966
0.842863
0.866425
0.89034
0.914602
0.939202
0.964133
0.989388
1.01496
1.04083
1.067
1.09346
1.12019
1.14718
1.17442
1.2019
1.22961
1.25753
1.28565
1.31395
1.34242
1.37105
1.39981
1.4287
1.45769
1.48676
1.51591
1.54511
1.57434
1.60359
1.63284
1.66206
1.69124
1.72036
1.74939
1.77833
1.80713
1.8358
1.8643
1.89261
1.92071
1.94859
1.97622
2.00357
2.03063
2.05738
2.08379
2.10985
2.13553
2.16081
2.18567
2.21009
2.23405
2.25753
2.28051
2.30297
2.32489
2.34625
2.36704
2.38723
2.40681
2.42576
2.44407
2.46172
2.47868
2.49496
2.51053
2.52537
2.53949
2.55285
2.56546
2.5773
2.58836
2.59863
2.6081
2.61677
2.62462
2.63165
2.63785
2.64321
2.64774
2.65143
2.65427
2.65627
2.65742
2.65773
2.65718
2.65579
2.65355
2.65048
2.64656
2.64181
0.651604
0.671938
0.692667
0.713789
0.735301
0.7572
0.779483
0.802146
0.825183
0.84859
0.872361
0.896491
0.920973
0.945799
0.970962
0.996453
1.02226
1.04839
1.07481
1.10153
1.12852
1.15578
1.1833
1.21106
1.23906
1.26727
1.29569
1.32429
1.35307
1.38201
1.41109
1.4403
1.46962
1.49903
1.52851
1.55806
1.58764
1.61724
1.64684
1.67642
1.70597
1.73545
1.76486
1.79417
1.82336
1.8524
1.88129
1.90999
1.93848
1.96675
1.99477
2.02253
2.04999
2.07714
2.10395
2.13041
2.15649
2.18217
2.20744
2.23226
2.25663
2.28051
2.30389
2.32675
2.34907
2.37083
2.39201
2.4126
2.43257
2.4519
2.47059
2.48862
2.50596
2.5226
2.53854
2.55375
2.56822
2.58193
2.59489
2.60707
2.61846
2.62905
2.63884
2.64782
2.65597
2.66329
2.66978
2.67542
2.68022
2.68417
2.68727
2.68951
2.69089
2.69141
2.69108
2.68989
2.68784
2.68495
2.6812
2.67661
0.655479
0.675971
0.696862
0.718151
0.739836
0.761912
0.784377
0.807227
0.830457
0.854062
0.878037
0.902375
0.927071
0.952116
0.977504
1.00323
1.02927
1.05564
1.08231
1.10927
1.13653
1.16405
1.19184
1.21988
1.24815
1.27665
1.30536
1.33426
1.36334
1.39259
1.42198
1.45151
1.48115
1.51089
1.5407
1.57058
1.60051
1.63045
1.66041
1.69035
1.72025
1.7501
1.77987
1.80955
1.83911
1.86854
1.8978
1.92689
1.95577
1.98443
2.01284
2.04099
2.06884
2.09639
2.1236
2.15046
2.17694
2.20303
2.22869
2.25392
2.27869
2.30297
2.32675
2.35001
2.37273
2.39488
2.41646
2.43744
2.4578
2.47752
2.49659
2.515
2.53272
2.54973
2.56604
2.58161
2.59643
2.6105
2.62381
2.63632
2.64805
2.65897
2.66908
2.67837
2.68683
2.69445
2.70123
2.70716
2.71223
2.71645
2.7198
2.72228
2.7239
2.72466
2.72454
2.72356
2.72171
2.719
2.71543
2.711
0.659149
0.679792
0.70084
0.722291
0.744141
0.766389
0.78903
0.812061
0.835478
0.859275
0.883446
0.907987
0.93289
0.958148
0.983754
1.0097
1.03598
1.06258
1.08949
1.1167
1.1442
1.17199
1.20004
1.22834
1.25689
1.28567
1.31466
1.34385
1.37323
1.40277
1.43247
1.46231
1.49227
1.52233
1.55247
1.58268
1.61294
1.64323
1.67353
1.70381
1.73407
1.76428
1.79441
1.82446
1.85439
1.88419
1.91383
1.94329
1.97256
2.0016
2.0304
2.05894
2.08719
2.11512
2.14273
2.16999
2.19687
2.22335
2.24942
2.27504
2.30021
2.32489
2.34907
2.37273
2.39584
2.41839
2.44036
2.46173
2.48248
2.50259
2.52205
2.54083
2.55893
2.57632
2.59299
2.60893
2.62411
2.63854
2.65219
2.66505
2.67712
2.68837
2.69881
2.70841
2.71718
2.72511
2.73218
2.73839
2.74375
2.74823
2.75184
2.75458
2.75645
2.75743
2.75754
2.75677
2.75513
2.75261
2.74922
2.74497
0.662611
0.6834
0.704598
0.726204
0.748215
0.770627
0.793439
0.816644
0.840241
0.864223
0.888584
0.913321
0.938424
0.963889
0.989707
1.01587
1.04237
1.0692
1.09634
1.12379
1.15154
1.17957
1.20788
1.23645
1.26526
1.29431
1.32358
1.35305
1.38272
1.41256
1.44256
1.4727
1.50296
1.53334
1.5638
1.59434
1.62493
1.65555
1.68619
1.71682
1.74742
1.77798
1.80847
1.83888
1.86917
1.89934
1.92935
1.95919
1.98883
2.01826
2.04744
2.07636
2.105
2.13333
2.16133
2.18897
2.21625
2.24313
2.26959
2.29561
2.32117
2.34625
2.37083
2.39488
2.41839
2.44134
2.4637
2.48546
2.5066
2.5271
2.54694
2.5661
2.58458
2.60234
2.61938
2.63569
2.65124
2.66602
2.68002
2.69323
2.70563
2.71722
2.72798
2.73791
2.74699
2.75523
2.7626
2.7691
2.77474
2.7795
2.78338
2.78638
2.78849
2.78972
2.79005
2.7895
2.78807
2.78575
2.78255
2.77848
0.66586
0.68679
0.708132
0.729887
0.752052
0.774623
0.797597
0.820972
0.844741
0.868901
0.893447
0.918372
0.943669
0.969333
0.995356
1.02173
1.04844
1.07549
1.10286
1.13054
1.15853
1.18681
1.21536
1.24418
1.27326
1.30257
1.33211
1.36186
1.39181
1.42193
1.45222
1.48266
1.51323
1.54391
1.57469
1.60554
1.63646
1.66741
1.69838
1.72934
1.76029
1.7912
1.82204
1.8528
1.88345
1.91398
1.94436
1.97456
2.00458
2.03438
2.06394
2.09324
2.12226
2.15098
2.17936
2.2074
2.23507
2.26234
2.28919
2.31561
2.34156
2.36704
2.39201
2.41646
2.44036
2.4637
2.48646
2.50861
2.53013
2.55102
2.57124
2.59079
2.60964
2.62778
2.64519
2.66186
2.67777
2.69291
2.70727
2.72083
2.73357
2.7455
2.75659
2.76684
2.77624
2.78479
2.79246
2.79927
2.80519
2.81023
2.81438
2.81764
2.82001
2.82148
2.82205
2.82173
2.82051
2.8184
2.81539
2.8115
0.668896
0.689958
0.711439
0.733337
0.755648
0.778371
0.801503
0.825039
0.848975
0.873307
0.898029
0.923135
0.94862
0.974476
1.0007
1.02727
1.05419
1.08146
1.10904
1.13695
1.16517
1.19368
1.22248
1.25154
1.28087
1.31044
1.34024
1.37026
1.40048
1.43089
1.46146
1.49219
1.52306
1.55404
1.58512
1.61629
1.64752
1.67879
1.71008
1.74138
1.77266
1.80391
1.8351
1.8662
1.89721
1.92809
1.95883
1.9894
2.01978
2.04995
2.07989
2.10957
2.13896
2.16806
2.19683
2.22525
2.25331
2.28097
2.30821
2.33502
2.36137
2.38723
2.4126
2.43744
2.46173
2.48546
2.50861
2.53114
2.55306
2.57433
2.59494
2.61486
2.63409
2.65261
2.67039
2.68743
2.70371
2.71921
2.73392
2.74782
2.76092
2.77318
2.78461
2.79519
2.80491
2.81377
2.82175
2.82885
2.83507
2.84039
2.84482
2.84835
2.85097
2.85269
2.85351
2.85342
2.85242
2.85052
2.84772
2.84402
0.671713
0.692903
0.714516
0.736549
0.759002
0.78187
0.805151
0.828842
0.852938
0.877434
0.902326
0.927607
0.953272
0.979313
1.00572
1.03249
1.05962
1.08708
1.11489
1.14301
1.17145
1.20019
1.22922
1.25852
1.28809
1.31791
1.34797
1.37825
1.40874
1.43942
1.47027
1.50128
1.53244
1.56371
1.59509
1.62656
1.6581
1.68968
1.7213
1.75292
1.78453
1.81611
1.84763
1.87908
1.91043
1.94167
1.97276
2.00369
2.03443
2.06497
2.09527
2.12532
2.15509
2.18456
2.21371
2.24252
2.27095
2.299
2.32663
2.35382
2.38056
2.40681
2.43257
2.4578
2.48248
2.5066
2.53013
2.55306
2.57536
2.59701
2.618
2.63831
2.65792
2.67681
2.69497
2.71237
2.72901
2.74487
2.75994
2.7742
2.78764
2.80025
2.81201
2.82292
2.83297
2.84214
2.85043
2.85784
2.86435
2.86997
2.87467
2.87848
2.88136
2.88334
2.8844
2.88455
2.88378
2.8821
2.87951
2.87601
0.67431
0.695621
0.717359
0.739522
0.762108
0.785115
0.80854
0.832378
0.856627
0.88128
0.906335
0.931783
0.95762
0.983838
1.01043
1.03739
1.06471
1.09237
1.12038
1.14871
1.17736
1.20632
1.23558
1.26512
1.29492
1.32499
1.35529
1.38583
1.41657
1.44751
1.47864
1.50992
1.54136
1.57292
1.60459
1.63636
1.66819
1.70009
1.73201
1.76395
1.79588
1.82779
1.85964
1.89143
1.92312
1.95469
1.98613
2.01741
2.04851
2.07941
2.11007
2.14049
2.17063
2.20047
2.22999
2.25917
2.28799
2.31641
2.34442
2.372
2.39912
2.42576
2.4519
2.47752
2.50259
2.5271
2.55102
2.57433
2.59701
2.61905
2.64042
2.66111
2.6811
2.70036
2.71889
2.73667
2.75367
2.76989
2.78532
2.79993
2.81372
2.82667
2.83877
2.85001
2.86039
2.86988
2.87849
2.8862
2.89302
2.89892
2.90392
2.908
2.91115
2.91339
2.91471
2.91509
2.91456
2.9131
2.91073
2.90743
0.676684
0.69811
0.719966
0.742252
0.764965
0.788104
0.811664
0.835644
0.860037
0.884841
0.91005
0.935659
0.961661
0.988049
1.01482
1.04196
1.06946
1.09731
1.12551
1.15405
1.18291
1.21208
1.24155
1.27131
1.30135
1.33165
1.36219
1.39297
1.42397
1.45517
1.48655
1.5181
1.54981
1.58165
1.61361
1.64566
1.67779
1.70998
1.74221
1.77446
1.80671
1.83893
1.87111
1.90322
1.93524
1.96716
1.99894
2.03056
2.06201
2.09326
2.12428
2.15505
2.18556
2.21577
2.24566
2.27521
2.3044
2.3332
2.36159
2.38955
2.41705
2.44407
2.47059
2.49659
2.52205
2.54694
2.57124
2.59494
2.618
2.64042
2.66218
2.68324
2.7036
2.72324
2.74214
2.76029
2.77766
2.79425
2.81003
2.825
2.83913
2.85243
2.86487
2.87645
2.88715
2.89697
2.9059
2.91392
2.92104
2.92724
2.93253
2.93689
2.94032
2.94282
2.94439
2.94503
2.94474
2.94351
2.94135
2.93827
0.678834
0.700367
0.722335
0.744736
0.76757
0.790833
0.814523
0.838635
0.863167
0.888114
0.91347
0.939231
0.96539
0.99194
1.01888
1.04619
1.07387
1.1019
1.13029
1.15902
1.18808
1.21746
1.24714
1.27711
1.30737
1.33789
1.36867
1.39968
1.43092
1.46237
1.49401
1.52582
1.55779
1.5899
1.62213
1.65447
1.68688
1.71937
1.75189
1.78444
1.81699
1.84953
1.88202
1.91446
1.94681
1.97905
2.01116
2.04313
2.07492
2.10651
2.13788
2.16901
2.19987
2.23044
2.2607
2.29061
2.32017
2.34934
2.3781
2.40644
2.43431
2.46172
2.48862
2.515
2.54083
2.5661
2.59079
2.61486
2.63831
2.66111
2.68324
2.70469
2.72542
2.74544
2.76471
2.78322
2.80096
2.81791
2.83405
2.84937
2.86386
2.87751
2.89029
2.90221
2.91324
2.92339
2.93263
2.94097
2.94839
2.9549
2.96048
2.96512
2.96883
2.97161
2.97344
2.97433
2.97428
2.97329
2.97136
2.96849
0.680756
0.70239
0.724463
0.746973
0.76992
0.793301
0.817112
0.841351
0.866013
0.891095
0.916591
0.942496
0.968805
0.995509
1.0226
1.05008
1.07793
1.10614
1.13471
1.16362
1.19287
1.22244
1.25233
1.28251
1.31298
1.34372
1.37472
1.40596
1.43743
1.46912
1.501
1.53307
1.56529
1.59766
1.63016
1.66277
1.69546
1.72823
1.76104
1.79389
1.82674
1.85957
1.89238
1.92512
1.95779
1.99036
2.0228
2.05509
2.08722
2.11915
2.15087
2.18234
2.21355
2.24448
2.27509
2.30537
2.33529
2.36482
2.39395
2.42266
2.45091
2.47868
2.50596
2.53272
2.55893
2.58458
2.60964
2.63409
2.65792
2.6811
2.7036
2.72542
2.74653
2.76692
2.78656
2.80545
2.82355
2.84086
2.85736
2.87304
2.88788
2.90188
2.915
2.92726
2.93863
2.9491
2.95867
2.96732
2.97506
2.98187
2.98774
2.99268
2.99667
2.99972
3.00182
3.00297
3.00317
3.00242
3.00073
2.99808
0.682449
0.704177
0.726348
0.748961
0.772014
0.795504
0.81943
0.843787
0.868572
0.893782
0.91941
0.945452
0.971902
0.998752
1.026
1.05363
1.08164
1.11002
1.13876
1.16785
1.19728
1.22704
1.25711
1.28749
1.31816
1.34911
1.38033
1.41179
1.44349
1.47541
1.50752
1.53983
1.5723
1.60493
1.63768
1.67056
1.70352
1.73656
1.76965
1.80278
1.83592
1.86906
1.90216
1.93521
1.96819
2.00107
2.03383
2.06645
2.0989
2.13117
2.16322
2.19504
2.22659
2.25786
2.28883
2.31946
2.34974
2.37963
2.40913
2.4382
2.46681
2.49496
2.5226
2.54973
2.57632
2.60234
2.62778
2.65261
2.67681
2.70036
2.72324
2.74544
2.76692
2.78768
2.80769
2.82694
2.84541
2.86308
2.87995
2.89598
2.91118
2.92552
2.93899
2.95159
2.96329
2.97409
2.98399
2.99296
3.00101
3.00813
3.0143
3.01953
3.02381
3.02714
3.02951
3.03093
3.03139
3.03088
3.02943
3.02701
0.683913
0.705728
0.72799
0.750697
0.773848
0.797441
0.821474
0.845942
0.870843
0.896172
0.921924
0.948095
0.974678
1.00167
1.02905
1.05683
1.085
1.11353
1.14244
1.17169
1.2013
1.23123
1.26149
1.29206
1.32293
1.35408
1.3855
1.41717
1.44909
1.48122
1.51357
1.54611
1.57882
1.61169
1.6447
1.67782
1.71105
1.74435
1.77772
1.81112
1.84455
1.87797
1.91136
1.94471
1.97799
2.01118
2.04425
2.07719
2.10996
2.14255
2.17494
2.20708
2.23898
2.27059
2.3019
2.33288
2.36351
2.39376
2.42361
2.45304
2.48202
2.51053
2.53854
2.56604
2.59299
2.61938
2.64519
2.67039
2.69497
2.71889
2.74214
2.76471
2.78656
2.80769
2.82807
2.84769
2.86652
2.88456
2.90178
2.91817
2.93372
2.94841
2.96223
2.97517
2.98721
2.99835
3.00857
3.01787
3.02623
3.03366
3.04014
3.04566
3.05024
3.05385
3.0565
3.05818
3.0589
3.05865
3.05743
3.05525
0.685144
0.70704
0.729385
0.75218
0.775423
0.799111
0.823243
0.847814
0.872822
0.898263
0.924132
0.950423
0.977131
1.00425
1.03177
1.05969
1.088
1.11668
1.14574
1.17516
1.20492
1.23503
1.26546
1.29621
1.32726
1.35861
1.39022
1.4221
1.45422
1.48657
1.51914
1.5519
1.58484
1.61794
1.65119
1.68456
1.71804
1.7516
1.78523
1.8189
1.8526
1.8863
1.91998
1.95362
1.98719
2.02068
2.05405
2.0873
2.12039
2.15329
2.186
2.21847
2.2507
2.28264
2.31429
2.34561
2.37659
2.40719
2.43739
2.46717
2.49651
2.52537
2.55375
2.58161
2.60893
2.63569
2.66186
2.68743
2.71237
2.73667
2.76029
2.78322
2.80545
2.82694
2.84769
2.86767
2.88687
2.90526
2.92284
2.93959
2.9555
2.97054
2.9847
2.99798
3.01036
3.02183
3.03239
3.04201
3.05069
3.05843
3.06522
3.07105
3.07591
3.07981
3.08274
3.0847
3.08568
3.08569
3.08473
3.08279
0.686144
0.708112
0.730534
0.753409
0.776736
0.800512
0.824735
0.849402
0.874509
0.900054
0.92603
0.952434
0.979259
1.0065
1.03415
1.0622
1.09064
1.11946
1.14867
1.17823
1.20816
1.23842
1.26902
1.29994
1.33117
1.36269
1.3945
1.42656
1.45888
1.49144
1.52421
1.55719
1.59035
1.62368
1.65716
1.69077
1.72449
1.7583
1.79218
1.82611
1.86007
1.89404
1.928
1.96192
1.99578
2.02955
2.06323
2.09677
2.13016
2.16338
2.1964
2.22919
2.26174
2.29401
2.32599
2.35765
2.38896
2.4199
2.45045
2.48058
2.51027
2.53949
2.56822
2.59643
2.62411
2.65124
2.67777
2.70371
2.72901
2.75367
2.77766
2.80096
2.82355
2.84541
2.86652
2.88687
2.90643
2.92518
2.94312
2.96023
2.97648
2.99187
3.00639
3.02001
3.03273
3.04454
3.05542
3.06537
3.07438
3.08243
3.08953
3.09566
3.10083
3.10502
3.10823
3.11047
3.11172
3.11199
3.11128
3.10959
0.686909
0.708944
0.731435
0.754383
0.777786
0.801642
0.825948
0.850703
0.875902
0.901542
0.927618
0.954126
0.981059
1.00841
1.03618
1.06435
1.09292
1.12188
1.15121
1.18092
1.21099
1.24141
1.27217
1.30325
1.33464
1.36634
1.39832
1.43057
1.46308
1.49583
1.5288
1.56198
1.59536
1.6289
1.6626
1.69644
1.73039
1.76444
1.79857
1.83275
1.86696
1.90119
1.93541
1.9696
2.00374
2.0378
2.07176
2.1056
2.13929
2.17281
2.20613
2.23924
2.2721
2.30469
2.33699
2.36898
2.40062
2.4319
2.46278
2.49325
2.52329
2.55285
2.58193
2.6105
2.63854
2.66602
2.69291
2.71921
2.74487
2.76989
2.79425
2.81791
2.84086
2.86308
2.88456
2.90526
2.92518
2.9443
2.9626
2.98006
2.99667
3.01241
3.02727
3.04124
3.0543
3.06644
3.07766
3.08793
3.09726
3.10564
3.11305
3.11949
3.12496
3.12944
3.13294
3.13546
3.13699
3.13753
3.13707
3.13563
0.687441
0.709534
0.732087
0.755101
0.778572
0.8025
0.826883
0.851717
0.877
0.902727
0.928895
0.955498
0.982531
1.00999
1.03786
1.06615
1.09483
1.12391
1.15338
1.18322
1.21343
1.24399
1.27489
1.30612
1.33767
1.36953
1.40168
1.43411
1.46679
1.49973
1.53289
1.56627
1.59984
1.6336
1.66751
1.70156
1.73574
1.77002
1.80438
1.8388
1.87326
1.90774
1.94222
1.97667
2.01108
2.04541
2.07965
2.11377
2.14775
2.18156
2.21518
2.24859
2.28176
2.31467
2.34728
2.37959
2.41155
2.44316
2.47438
2.50518
2.53555
2.56546
2.59489
2.62381
2.65219
2.68002
2.70727
2.73392
2.75994
2.78532
2.81003
2.83405
2.85736
2.87995
2.90178
2.92284
2.94312
2.9626
2.98125
2.99906
3.01602
3.03212
3.04732
3.06164
3.07504
3.08752
3.09907
3.10968
3.11933
3.12803
3.13575
3.1425
3.14827
3.15306
3.15685
3.15966
3.16146
3.16227
3.16209
3.1609
0.687738
0.709883
0.732491
0.755562
0.779094
0.803087
0.827538
0.852443
0.877802
0.903608
0.929859
0.956549
0.983673
1.01123
1.0392
1.06759
1.09638
1.12558
1.15516
1.18512
1.21546
1.24615
1.27719
1.30857
1.34027
1.37228
1.40458
1.43717
1.47003
1.50314
1.53648
1.57005
1.60381
1.63776
1.67188
1.70614
1.74053
1.77503
1.80961
1.84427
1.87897
1.91369
1.94841
1.98312
2.01778
2.05238
2.08688
2.12128
2.15554
2.18963
2.22355
2.25725
2.29072
2.32393
2.35685
2.38947
2.42175
2.45368
2.48522
2.51636
2.54706
2.5773
2.60707
2.63632
2.66505
2.69323
2.72083
2.74782
2.7742
2.79993
2.825
2.84937
2.87304
2.89598
2.91817
2.93959
2.96023
2.98006
2.99906
3.01723
3.03454
3.05098
3.06654
3.0812
3.09494
3.10776
3.11964
3.13058
3.14056
3.14958
3.15762
3.16469
3.17077
3.17585
3.17994
3.18303
3.18512
3.18621
3.18629
3.18537
0.687801
0.70999
0.732645
0.755766
0.779352
0.803401
0.827912
0.852881
0.878307
0.904184
0.930509
0.957278
0.984485
1.01212
1.04019
1.06867
1.09757
1.12686
1.15656
1.18663
1.21708
1.2479
1.27907
1.31058
1.34242
1.37457
1.40703
1.43977
1.47279
1.50606
1.53957
1.57331
1.60726
1.6414
1.6757
1.71017
1.74476
1.77947
1.81427
1.84914
1.88407
1.91902
1.95398
1.98893
2.02384
2.0587
2.09346
2.12812
2.16265
2.19702
2.23122
2.2652
2.29896
2.33247
2.36569
2.39862
2.43121
2.46345
2.49531
2.52676
2.55779
2.58836
2.61846
2.64805
2.67712
2.70563
2.73357
2.76092
2.78764
2.81372
2.83913
2.86386
2.88788
2.91118
2.93372
2.9555
2.97648
2.99667
3.01602
3.03454
3.0522
3.06899
3.0849
3.0999
3.11398
3.12714
3.13936
3.15063
3.16094
3.17028
3.17864
3.18602
3.19241
3.1978
3.20219
3.20557
3.20795
3.20932
3.20967
3.20902
0.68763
0.709856
0.73255
0.755714
0.779345
0.803444
0.828006
0.853031
0.878515
0.904455
0.930846
0.957684
0.984965
1.01268
1.04083
1.0694
1.09838
1.12778
1.15757
1.18775
1.21831
1.24924
1.28052
1.31216
1.34412
1.37641
1.409
1.44189
1.47506
1.50849
1.54216
1.57606
1.61018
1.6445
1.67899
1.71363
1.74842
1.78333
1.81834
1.85342
1.88856
1.92374
1.95893
1.99411
2.02926
2.06436
2.09938
2.13429
2.16908
2.20372
2.23818
2.27245
2.30649
2.34028
2.3738
2.40702
2.43991
2.47246
2.50463
2.53639
2.56774
2.59863
2.62905
2.65897
2.68837
2.71722
2.7455
2.77318
2.80025
2.82667
2.85243
2.87751
2.90188
2.92552
2.94841
2.97054
2.99187
3.01241
3.03212
3.05098
3.06899
3.08613
3.10238
3.11772
3.13215
3.14565
3.1582
3.1698
3.18044
3.19011
3.19879
3.20649
3.21319
3.21888
3.22357
3.22725
3.22992
3.23157
3.2322
3.23182
0.687225
0.70948
0.732207
0.755405
0.779075
0.803213
0.82782
0.852892
0.878426
0.90442
0.930869
0.957768
0.985114
1.0129
1.04112
1.06977
1.09883
1.12831
1.15819
1.18847
1.21912
1.25016
1.28155
1.3133
1.34538
1.37779
1.41052
1.44354
1.47684
1.51041
1.54424
1.5783
1.61258
1.64706
1.68172
1.71655
1.75152
1.78661
1.82181
1.8571
1.89245
1.92784
1.96325
1.99865
2.03403
2.06936
2.10462
2.13978
2.17482
2.20972
2.24445
2.27898
2.31329
2.34736
2.38116
2.41467
2.44785
2.4807
2.51317
2.54524
2.5769
2.6081
2.63884
2.66908
2.69881
2.72798
2.75659
2.78461
2.81201
2.83877
2.86487
2.89029
2.915
2.93899
2.96223
2.9847
3.00639
3.02727
3.04732
3.06654
3.0849
3.10238
3.11897
3.13466
3.14942
3.16326
3.17615
3.18808
3.19905
3.20904
3.21805
3.22606
3.23308
3.23908
3.24408
3.24806
3.25102
3.25296
3.25387
3.25376
0.686586
0.708863
0.731615
0.754841
0.77854
0.802712
0.827354
0.852465
0.878041
0.90408
0.930578
0.95753
0.984931
1.01278
1.04106
1.06977
1.09891
1.12847
1.15843
1.18879
1.21953
1.25066
1.28215
1.314
1.3462
1.37872
1.41156
1.44471
1.47814
1.51185
1.54581
1.58001
1.61444
1.64908
1.6839
1.7189
1.75404
1.78931
1.8247
1.86018
1.89572
1.93131
1.96693
2.00255
2.03814
2.0737
2.10919
2.14459
2.17987
2.21501
2.24999
2.28478
2.31936
2.3537
2.38777
2.42156
2.45503
2.48816
2.52092
2.5533
2.58525
2.61677
2.64782
2.67837
2.70841
2.73791
2.76684
2.79519
2.82292
2.85001
2.87645
2.90221
2.92726
2.95159
2.97517
2.99798
3.02001
3.04124
3.06164
3.0812
3.0999
3.11772
3.13466
3.15068
3.16579
3.17996
3.19319
3.20546
3.21675
3.22707
3.2364
3.24474
3.25207
3.25839
3.26369
3.26797
3.27122
3.27345
3.27465
3.27482
0.685716
0.708007
0.730776
0.754021
0.777743
0.801939
0.826609
0.851751
0.877361
0.903437
0.929975
0.95697
0.984418
1.01231
1.04065
1.06942
1.09862
1.12824
1.15828
1.18871
1.21954
1.25075
1.28233
1.31427
1.34656
1.37919
1.41214
1.4454
1.47895
1.51278
1.54687
1.58121
1.61578
1.65056
1.68553
1.72068
1.75599
1.79143
1.82699
1.86265
1.89838
1.93416
1.96997
2.00579
2.0416
2.07737
2.11308
2.1487
2.18422
2.2196
2.25482
2.28986
2.32469
2.35929
2.39363
2.42769
2.46143
2.49484
2.52789
2.56055
2.5928
2.62462
2.65597
2.68683
2.71718
2.74699
2.77624
2.80491
2.83297
2.86039
2.88715
2.91324
2.93863
2.96329
2.98721
3.01036
3.03273
3.0543
3.07504
3.09494
3.11398
3.13215
3.14942
3.16579
3.18123
3.19574
3.20931
3.22191
3.23353
3.24418
3.25384
3.26249
3.27014
3.27677
3.28238
3.28696
3.29052
3.29304
3.29453
3.29498
0.684614
0.706912
0.729691
0.752948
0.776683
0.800897
0.825586
0.85075
0.876385
0.90249
0.929059
0.956089
0.983575
1.01151
1.0399
1.06872
1.09797
1.12765
1.15774
1.18824
1.21914
1.25042
1.28208
1.31411
1.34648
1.3792
1.41225
1.44561
1.47927
1.51321
1.54742
1.58188
1.61658
1.6515
1.68661
1.72191
1.75737
1.79297
1.82869
1.86451
1.90042
1.93638
1.97238
2.00839
2.0444
2.08037
2.11629
2.15213
2.18787
2.22348
2.25893
2.29421
2.32929
2.36413
2.39873
2.43304
2.46706
2.50074
2.53406
2.56701
2.59954
2.63165
2.66329
2.69445
2.72511
2.75523
2.78479
2.81377
2.84214
2.86988
2.89697
2.92339
2.9491
2.97409
2.99835
3.02183
3.04454
3.06644
3.08752
3.10776
3.12714
3.14565
3.16326
3.17996
3.19574
3.21059
3.22448
3.23742
3.24938
3.26035
3.27033
3.27931
3.28727
3.29422
3.30014
3.30503
3.30889
3.31171
3.31349
3.31423
0.683281
0.70558
0.72836
0.751621
0.775364
0.799586
0.824287
0.849464
0.875117
0.90124
0.927832
0.954888
0.982404
1.01037
1.03879
1.06765
1.09695
1.12667
1.15682
1.18737
1.21833
1.24968