/*--------------------------------*- C++ -*----------------------------------*\
| =========                 |                                                 |
| \\      /  F ield         | OpenFOAM: The Open Source CFD Toolbox           |
|  \\    /   O peration     | Version:  v2006                                 |
|   \\  /    A nd           | Website:  www.openfoam.com                      |
|    \\/     M anipulation  |                                                 |
\*---------------------------------------------------------------------------*/
FoamFile
{
    version     2.0;
    format      ascii;
    class       volVectorField;
    location    "0";
    object      wallShearStress;
}
// * * * * * * * * * * * * * * * * * * * * * * * * * * * * * * * * * * * * * //

dimensions      [1 -1 -2 0 0 0 0];


internalField   uniform (0 0 0);

boundaryField
{
    aerofoil
    {
        type            calculated;
        value           nonuniform List<vector> 
300
(
(-22.525857 0 -0.021241622)
(-22.685097 0 -0.05107216)
(-22.840818 -2.4697455e-21 -0.081939883)
(-22.992988 0 -0.11353644)
(-23.141627 9.5140858e-21 -0.14588459)
(-23.286652 0 -0.1792002)
(-23.427996 0 -0.21335054)
(-23.565744 1.7603975e-20 -0.24826497)
(-23.699985 0 -0.28392769)
(-23.830609 0 -0.3205043)
(-23.957638 5.4647111e-20 -0.35799462)
(-24.081271 0 -0.3960571)
(-24.201334 0 -0.43525476)
(-24.318106 0 -0.47501205)
(-24.431631 0 -0.51555046)
(-24.541818 0 -0.5571981)
(-24.649021 -1.0518817e-19 -0.59946154)
(-24.753162 0 -0.64279218)
(-24.85448 0 -0.6867935)
(-24.953073 0 -0.73163088)
(-25.049045 0 -0.77753546)
(-25.142658 -1.6206331e-19 -0.82415401)
(-25.233809 -1.7542037e-19 -0.87201995)
(-25.323271 0 -0.920342)
(-25.410508 0 -0.97009228)
(-25.496038 0 -1.0207948)
(-25.580316 0 -1.0723308)
(-25.663161 0 -1.1252654)
(-25.74509 0 -1.179114)
(-25.826123 0 -1.234196)
(-25.906626 0 -1.2905944)
(-25.986664 0 -1.3483609)
(-26.066707 0 -1.4074646)
(-26.147207 0 -1.4678548)
(-26.22806 0 -1.5298347)
(-26.309343 -4.3205639e-19 -1.59364)
(-26.391671 0 -1.6590863)
(-26.475424 0 -1.7261995)
(-26.560672 0 -1.7952043)
(-26.647475 0 -1.8663547)
(-26.736422 0 -1.9395467)
(-26.827467 0 -2.015055)
(-26.921302 6.7006098e-19 -2.0926689)
(-27.016767 0 -2.173373)
(-27.116103 0 -2.256053)
(-27.217577 -8.0737998e-19 -2.3419153)
(-27.322476 8.5920392e-19 -2.4304007)
(-27.430265 0 -2.5219034)
(-27.540584 9.7368043e-19 -2.6166763)
(-27.654003 0 -2.7144703)
(-27.770431 0 -2.8153195)
(-27.888751 1.1768053e-18 -2.9195551)
(-28.008949 0 -3.0268907)
(-28.130706 -1.3375468e-18 -3.1370476)
(-28.252884 0 -3.2499052)
(-28.374785 0 -3.3649685)
(-28.496456 0 -3.4812532)
(-28.613487 0 -3.5985746)
(-28.72858 0 -3.7145618)
(-28.83663 1.9820734e-18 -3.8280794)
(-28.938741 -2.1185195e-18 -3.9360798)
(-29.031648 0 -4.0353633)
(-29.113558 0 -4.1212703)
(-29.184782 0 -4.1876385)
(-29.24502 0 -4.2266312)
(-29.294194 0 -4.2280049)
(-29.335022 0 -4.1788969)
(-29.373282 0 -4.0641826)
(-29.415718 1.7770733e-18 -3.8662424)
(-29.471348 1.8830111e-18 -3.5669067)
(-29.550445 0 -3.1512669)
(-29.6613 0 -2.6121211)
(-29.807428 0 -1.9550928)
(-29.987388 1.1387356e-18 -1.2083452)
(-30.191961 0 -0.41116245)
(-22.760351 0 1.0582112)
(-22.753017 0 1.0459304)
(-22.745848 0 1.0337475)
(-22.738954 0 1.0218301)
(-22.732322 0 1.0101218)
(-22.725842 -4.5811948e-19 0.99854568)
(-22.719605 0 0.98723122)
(-22.713651 0 0.97613892)
(-22.707711 0 0.96504861)
(-22.702066 4.3759189e-19 0.95429776)
(-22.696565 -4.3265597e-19 0.94364112)
(-22.691136 4.2773251e-19 0.9330068)
(-22.685932 0 0.92255475)
(-22.680949 4.1817966e-19 0.91235621)
(-22.675941 0 0.90209963)
(-22.67107 0 0.89202999)
(-22.666367 0 0.8820823)
(-22.661721 0 0.87208605)
(-22.657213 0 0.8622722)
(-22.652794 0 0.85242199)
(-22.648483 0 0.84274173)
(-22.644152 0 0.83295562)
(-22.639974 0 0.82336468)
(-22.635748 3.7263816e-19 0.81361745)
(-22.631698 0 0.80403336)
(-22.627632 0 0.79427703)
(-22.62367 0 0.78469602)
(-22.619633 0 0.77490034)
(-22.615713 0 0.76520018)
(-22.611757 0 0.75535237)
(-22.607801 0 0.74537045)
(-22.604015 0 0.73558813)
(-22.600124 0 0.72551135)
(-22.59626 -3.2751388e-19 0.71534452)
(-22.592353 0 0.70504642)
(-22.588492 0 0.69470221)
(-22.584655 0 0.68417731)
(-22.580766 0 0.67353299)
(-22.576803 0 0.66262743)
(-22.572918 -2.9836166e-19 0.65164904)
(-22.568959 0 0.64043073)
(-22.564999 0 0.62900512)
(-22.561037 1.4133482e-19 0.61730123)
(-22.557042 0 0.6054777)
(-22.552967 -1.3585427e-19 0.59328485)
(-22.548946 0 0.58090394)
(-22.544885 1.3013801e-19 0.56821586)
(-22.540781 0 0.55518929)
(-22.536623 0 0.54181999)
(-22.532478 1.2103123e-19 0.52823738)
(-22.52833 0 0.51425217)
(-22.524126 -1.145539e-19 0.49977338)
(-22.51996 1.1120361e-19 0.48504202)
(-22.515769 0 0.46989291)
(-22.511548 0 0.45421474)
(-22.507365 -1.0054537e-19 0.43814007)
(-22.503141 0 0.42159144)
(-22.49897 0 0.40454865)
(-22.494837 -8.89196e-20 0.38691979)
(-22.490756 0 0.36886952)
(-22.486707 8.0563968e-20 0.35007155)
(-22.482777 0 0.3308296)
(-22.478893 -3.5842026e-20 0.31088306)
(-22.475126 -3.3510695e-20 0.29029495)
(-22.47147 -3.110008e-20 0.26900008)
(-22.467935 0 0.24694867)
(-22.464636 2.6029513e-20 0.2241851)
(-22.461493 0 0.20052042)
(-22.45858 0 0.1761258)
(-22.455965 0 0.15084795)
(-22.453642 0 0.12451148)
(-22.451644 -5.8452171e-21 0.097333507)
(-22.450086 0 0.068988845)
(-22.448967 -1.2927267e-21 0.039621124)
(-22.448363 0 0.0090509705)
(-22.52585 0 0.0047588988)
(-22.685073 0 0.034473204)
(-22.840778 2.3333943e-21 0.065227588)
(-22.992931 0 0.096713741)
(-23.141551 -9.2255625e-21 0.12895443)
(-23.286558 0 0.1621656)
(-23.427884 0 0.19621459)
(-23.565612 -1.7290515e-20 0.23103072)
(-23.699834 0 0.26659815)
(-23.830438 0 0.30308259)
(-23.957446 -5.3967354e-20 0.34048387)
(-24.081058 0 0.37846028)
(-24.2011 6.8928646e-20 0.41757507)
(-24.31785 0 0.45725244)
(-24.431353 0 0.49771387)
(-24.541517 0 0.53928765)
(-24.648697 0 0.58148005)
(-24.752814 0 0.62474261)
(-24.854108 0 0.66867861)
(-24.952676 0 0.71345341)
(-25.048623 0 0.75929818)
(-25.142211 1.6116293e-19 0.80585944)
(-25.233335 1.7449771e-19 0.85367087)
(-25.322771 0 0.90194044)
(-25.409981 0 0.95164101)
(-25.495483 0 1.0022961)
(-25.579732 0 1.0537867)
(-25.662548 0 1.1066781)
(-25.744448 0 1.1604854)
(-25.82545 0 1.2155281)
(-25.905923 0 1.2718891)
(-25.985929 0 1.3296202)
(-26.06594 0 1.38869)
(-26.146407 0 1.4490477)
(-26.227225 0 1.5109967)
(-26.308474 4.3080548e-19 1.5747731)
(-26.390766 0 1.6401918)
(-26.474482 0 1.7072788)
(-26.559692 0 1.7762589)
(-26.646456 0 1.8473864)
(-26.735363 0 1.920557)
(-26.826366 0 1.9960459)
(-26.920159 -6.6860196e-19 2.0736419)
(-27.01558 0 2.1543315)
(-27.11487 0 2.2369981)
(-27.216297 0 2.3228509)
(-27.321147 -8.576183e-19 2.4113296)
(-27.428887 0 2.5028297)
(-27.539153 -9.7203094e-19 2.5976053)
(-27.652518 0 2.6954071)
(-27.768891 0 2.7962704)
(-27.887154 -1.1750624e-18 2.9005285)
(-28.007293 0 3.007896)
(-28.128989 1.335746e-18 3.1180957)
(-28.251106 0 3.2310094)
(-28.372943 0 3.3461445)
(-28.49455 0 3.4625181)
(-28.611517 0 3.5799526)
(-28.726546 0 3.6960755)
(-28.834534 -1.9801612e-18 3.8097601)
(-28.936586 0 3.9179596)
(-29.029438 0 4.0174812)
(-29.111301 0 4.103671)
(-29.182488 0 4.1703692)
(-29.242705 0 4.2097431)
(-29.291878 0 4.211553)
(-29.332733 0 4.1629353)
(-29.371056 0 4.0487583)
(-29.4136 -1.7763512e-18 3.8513907)
(-29.469394 -1.8823658e-18 3.5526418)
(-29.548719 0 3.1375702)
(-29.65987 0 2.5989324)
(-29.806359 0 1.9423069)
(-29.986729 0 1.1958138)
(-30.191739 0 0.3987147)
(-22.760936 -0 -1.0746684)
(-22.753596 -0 -1.0623868)
(-22.74642 -4.7633636e-19 -1.0502032)
(-22.73952 -0 -1.0382851)
(-22.732881 -0 -1.0265762)
(-22.726395 4.5996929e-19 -1.0149994)
(-22.720151 -0 -1.0036843)
(-22.714191 -0 -0.99259154)
(-22.708245 -0 -0.98150068)
(-22.702594 -4.3944222e-19 -0.97074934)
(-22.697088 4.3450642e-19 -0.96009224)
(-22.691652 -4.2958308e-19 -0.94945747)
(-22.686443 -0 -0.93900503)
(-22.681454 -4.2003048e-19 -0.92880615)
(-22.676441 -0 -0.91854918)
(-22.671565 -0 -0.90847915)
(-22.666855 -0 -0.89853113)
(-22.662204 -0 -0.88853456)
(-22.65769 -0 -0.8787204)
(-22.653267 -0 -0.86886994)
(-22.64895 -0 -0.85918941)
(-22.644614 -0 -0.84940301)
(-22.64043 -0 -0.8398118)
(-22.636199 -3.744901e-19 -0.83006428)
(-22.632143 -0 -0.82047995)
(-22.628073 -0 -0.81072338)
(-22.624105 -3.6119125e-19 -0.80114213)
(-22.620062 -0 -0.79134617)
(-22.616137 -0 -0.78164577)
(-22.612176 3.477145e-19 -0.77179769)
(-22.608214 -0 -0.76181549)
(-22.604423 -0 -0.75203295)
(-22.600527 -0 -0.7419559)
(-22.596657 3.2936682e-19 -0.73178881)
(-22.592744 -0 -0.72149041)
(-22.588878 3.1991207e-19 -0.71114591)
(-22.585035 -0 -0.70062074)
(-22.58114 -0 -0.6899761)
(-22.577171 -0 -0.6790702)
(-22.57328 3.0021513e-19 -0.66809148)
(-22.569315 -0 -0.65687282)
(-22.565348 -0 -0.64544684)
(-22.56138 -1.4226168e-19 -0.6337426)
(-22.557379 -0 -0.62191868)
(-22.553297 1.3678122e-19 -0.6097254)
(-22.54927 -0 -0.59734409)
(-22.545202 -1.3106503e-19 -0.58465559)
(-22.54109 -0 -0.57162857)
(-22.536925 -0 -0.55825879)
(-22.532773 -1.2195836e-19 -0.54467569)
(-22.528616 -0 -0.53068998)
(-22.524405 1.154811e-19 -0.51621069)
(-22.520231 -1.1213083e-19 -0.50147881)
(-22.516031 -0 -0.48632916)
(-22.511802 1.0512424e-19 -0.47065044)
(-22.50761 -0 -0.45457522)
(-22.503377 -9.7715168e-20 -0.43802599)
(-22.499196 -0 -0.4209826)
(-22.495054 8.9846997e-20 -0.40335316)
(-22.490963 -8.5753246e-20 -0.3853023)
(-22.486903 -8.1491415e-20 -0.36650374)
(-22.482963 -0 -0.3472612)
(-22.479068 3.6305771e-20 -0.32731407)
(-22.47529 3.3974451e-20 -0.30672538)
(-22.471622 3.1563844e-20 -0.28542993)
(-22.468075 -0 -0.26337794)
(-22.464763 -0 -0.24061386)
(-22.461607 2.3816917e-20 -0.21694866)
(-22.458681 -0 -0.19255355)
(-22.456052 -0 -0.16727526)
(-22.453715 -0 -0.14093841)
(-22.451701 6.0771212e-21 -0.11376007)
(-22.450129 -0 -0.085415151)
(-22.448993 1.40868e-21 -0.056047234)
(-22.448372 -0 -0.025476974)
)
;
    }
    inlet
    {
        type            calculated;
        value           uniform (0 0 0);
    }
    outlet
    {
        type            calculated;
        value           uniform (0 0 0);
    }
    back
    {
        type            empty;
    }
    front
    {
        type            empty;
    }
}


// ************************************************************************* //
