/*--------------------------------*- C++ -*----------------------------------*\
| =========                 |                                                 |
| \\      /  F ield         | OpenFOAM: The Open Source CFD Toolbox           |
|  \\    /   O peration     | Version:  v2006                                 |
|   \\  /    A nd           | Website:  www.openfoam.com                      |
|    \\/     M anipulation  |                                                 |
\*---------------------------------------------------------------------------*/
FoamFile
{
    version     2.0;
    format      ascii;
    class       volScalarField;
    location    "0";
    object      yPlus;
}
// * * * * * * * * * * * * * * * * * * * * * * * * * * * * * * * * * * * * * //

dimensions      [0 0 0 0 0 0 0];


internalField   uniform 0;

boundaryField
{
    aerofoil
    {
        type            calculated;
        value           nonuniform List<scalar> 
300
(
97.536885
97.400809
97.270053
97.144472
97.023884
96.908205
96.797337
96.691067
96.589191
96.491678
96.398393
96.309053
96.223724
96.142061
96.063962
95.989441
95.918126
95.85005
95.784945
95.722708
95.663247
95.606301
95.551975
95.499614
95.449693
95.401782
95.355555
95.311217
95.268353
95.227013
95.186991
95.148275
95.110588
95.073664
95.03767
95.002658
94.968258
94.934299
94.900861
94.868054
94.835581
94.803645
94.771878
94.741415
94.710697
94.68133
94.652541
94.625008
94.599304
94.575283
94.553357
94.534761
94.519878
94.509374
94.504637
94.506792
94.516408
94.537806
94.569663
94.617317
94.681243
94.765992
94.875443
95.012174
95.179931
95.383026
95.623374
95.899019
96.204867
96.528268
96.846543
97.128327
97.337849
97.440876
97.421741
97.467519
97.470738
97.473879
97.476885
97.479753
97.482558
97.485249
97.487779
97.49033
97.492735
97.495066
97.497369
97.499546
97.501616
97.50372
97.505772
97.507731
97.509655
97.511522
97.513329
97.515101
97.516892
97.518614
97.520369
97.522027
97.523688
97.525316
97.526993
97.528608
97.530252
97.531896
97.533451
97.535071
97.536676
97.538323
97.539947
97.541547
97.543201
97.544905
97.546559
97.54827
97.549981
97.551685
97.553433
97.555232
97.556994
97.558787
97.560611
97.562478
97.56435
97.566221
97.568127
97.570021
97.571943
97.573888
97.575817
97.577795
97.579746
97.581677
97.5836
97.58551
97.587364
97.589214
97.591011
97.592765
97.594476
97.596057
97.59758
97.599002
97.600272
97.601404
97.602395
97.603154
97.603708
97.604009
97.536885
97.400809
97.270053
97.144472
97.023884
96.908205
96.797337
96.691067
96.589191
96.491678
96.398393
96.309053
96.223724
96.142061
96.063962
95.989441
95.918126
95.85005
95.784945
95.722708
95.663247
95.606301
95.551975
95.499614
95.449693
95.401782
95.355555
95.311217
95.268353
95.227013
95.186991
95.148275
95.110588
95.073664
95.03767
95.002658
94.968258
94.934299
94.900861
94.868054
94.835581
94.803645
94.771878
94.741415
94.710697
94.68133
94.652541
94.625008
94.599304
94.575283
94.553357
94.534761
94.519878
94.509374
94.504637
94.506792
94.516408
94.537806
94.569663
94.617317
94.681243
94.765992
94.875443
95.012174
95.179931
95.383026
95.623374
95.899019
96.204867
96.528268
96.846543
97.128327
97.337849
97.440876
97.421741
97.467519
97.470738
97.473879
97.476885
97.479753
97.482558
97.485249
97.487779
97.49033
97.492735
97.495066
97.497369
97.499546
97.501616
97.50372
97.505772
97.507731
97.509655
97.511522
97.513329
97.515101
97.516892
97.518614
97.520369
97.522027
97.523688
97.525316
97.526993
97.528608
97.530252
97.531896
97.533451
97.535071
97.536676
97.538323
97.539947
97.541547
97.543201
97.544905
97.546559
97.54827
97.549981
97.551685
97.553433
97.555232
97.556994
97.558787
97.560611
97.562478
97.56435
97.566221
97.568127
97.570021
97.571943
97.573888
97.575817
97.577795
97.579746
97.581677
97.5836
97.58551
97.587364
97.589214
97.591011
97.592765
97.594476
97.596057
97.59758
97.599002
97.600272
97.601404
97.602395
97.603154
97.603708
97.604009
)
;
    }
    inlet
    {
        type            calculated;
        value           uniform 0;
    }
    outlet
    {
        type            calculated;
        value           uniform 0;
    }
    back
    {
        type            empty;
    }
    front
    {
        type            empty;
    }
}


// ************************************************************************* //
