/*--------------------------------*- C++ -*----------------------------------*\
  =========                 |
  \\      /  F ield         | OpenFOAM: The Open Source CFD Toolbox
   \\    /   O peration     | Website:  https://openfoam.org
    \\  /    A nd           | Version:  6
     \\/     M anipulation  |
\*---------------------------------------------------------------------------*/
FoamFile
{
    version     2.0;
    format      ascii;
    class       volVectorField;
    location    "6000";
    object      U;
}
// * * * * * * * * * * * * * * * * * * * * * * * * * * * * * * * * * * * * * //

dimensions      [0 1 -1 0 0 0 0];

internalField   nonuniform List<vector> 
12225
(
(0.944904 0.0230772 0)
(0.869965 0.0165797 0)
(0.814298 0.00806362 0)
(0.770615 0.00304046 0)
(0.737728 0.00213607 0)
(0.711838 0.002465 0)
(0.692588 0.000733295 0)
(0.677493 0.0011857 0)
(0.666179 0.00111661 0)
(0.657795 -0.000758636 0)
(0.651294 -0.000220737 0)
(0.646391 -2.62742e-05 0)
(0.642823 -0.00148133 0)
(0.640032 -0.000779634 0)
(0.637937 -0.000461184 0)
(0.636764 -0.0017726 0)
(0.636079 -0.000838743 0)
(0.636816 -0.000582808 0)
(1.01677 0.00923619 0)
(1.04027 0.0133376 0)
(1.0475 0.0126943 0)
(1.04414 0.0119183 0)
(1.03783 0.0109413 0)
(1.02758 0.00959826 0)
(1.01705 0.00838216 0)
(1.00633 0.00714643 0)
(0.993588 0.00613268 0)
(0.982177 0.00543071 0)
(0.971678 0.00468693 0)
(0.960525 0.00407516 0)
(0.950841 0.00367789 0)
(0.94215 0.00318819 0)
(0.933191 0.00274752 0)
(0.925519 0.00241204 0)
(0.918816 0.00176619 0)
(0.911674 0.00103548 0)
(1.003 0.00866247 0)
(1.01534 0.012054 0)
(1.0248 0.0102199 0)
(1.03005 0.00865074 0)
(1.03367 0.00789413 0)
(1.03679 0.00741995 0)
(1.03911 0.0068753 0)
(1.0404 0.00651936 0)
(1.04077 0.00617444 0)
(1.04036 0.00580041 0)
(1.03936 0.0055763 0)
(1.03792 0.00533113 0)
(1.0361 0.00503106 0)
(1.03398 0.00483243 0)
(1.03168 0.00458084 0)
(1.02921 0.00421632 0)
(1.02668 0.0038389 0)
(1.02381 0.00314991 0)
(1.00163 0.00677275 0)
(1.00857 0.0100175 0)
(1.01399 0.0085609 0)
(1.01646 0.0074601 0)
(1.01791 0.00720765 0)
(1.0196 0.00707001 0)
(1.02139 0.00672989 0)
(1.02298 0.00643998 0)
(1.02438 0.00612937 0)
(1.02561 0.00578375 0)
(1.02671 0.00555395 0)
(1.02776 0.00532556 0)
(1.02868 0.00507 0)
(1.02952 0.00489138 0)
(1.0303 0.00467667 0)
(1.03098 0.00437449 0)
(1.03154 0.00406144 0)
(1.03198 0.0035921 0)
(1.00113 0.00511902 0)
(1.00646 0.00868354 0)
(1.01115 0.00809259 0)
(1.01337 0.0073363 0)
(1.01438 0.00711393 0)
(1.0154 0.00688187 0)
(1.01647 0.00644472 0)
(1.0174 0.00603165 0)
(1.01818 0.0056481 0)
(1.01886 0.00528811 0)
(1.0195 0.00501856 0)
(1.02014 0.00476973 0)
(1.02076 0.0045212 0)
(1.02136 0.00431377 0)
(1.02197 0.00408273 0)
(1.02257 0.00379965 0)
(1.02311 0.00349217 0)
(1.02361 0.00311695 0)
(1.00077 0.00391894 0)
(1.00484 0.00753039 0)
(1.00895 0.00749001 0)
(1.01121 0.00684226 0)
(1.01231 0.00657258 0)
(1.0133 0.00635837 0)
(1.01434 0.00601111 0)
(1.01525 0.0056704 0)
(1.01599 0.00536218 0)
(1.01661 0.00508082 0)
(1.01718 0.00484838 0)
(1.01773 0.00462656 0)
(1.01824 0.00440492 0)
(1.01874 0.00419733 0)
(1.01922 0.00396997 0)
(1.01968 0.00370831 0)
(1.0201 0.00342021 0)
(1.02047 0.00309822 0)
(1.00053 0.00303062 0)
(1.0036 0.00640248 0)
(1.00709 0.00676076 0)
(1.00928 0.00629946 0)
(1.01045 0.0060868 0)
(1.01143 0.0059573 0)
(1.01245 0.00570856 0)
(1.01335 0.00541483 0)
(1.0141 0.00512671 0)
(1.01474 0.00485621 0)
(1.01531 0.00461258 0)
(1.01586 0.00437743 0)
(1.01638 0.004146 0)
(1.01686 0.00392082 0)
(1.01733 0.00368326 0)
(1.01776 0.00342436 0)
(1.01816 0.00314548 0)
(1.01851 0.00284874 0)
(1.00037 0.00236224 0)
(1.00268 0.00537231 0)
(1.00558 0.00603267 0)
(1.00765 0.00579208 0)
(1.00885 0.00563754 0)
(1.00982 0.00554655 0)
(1.01079 0.00534661 0)
(1.01167 0.00507797 0)
(1.01242 0.00480517 0)
(1.01305 0.00455177 0)
(1.01363 0.00431984 0)
(1.01418 0.00409718 0)
(1.01469 0.00387919 0)
(1.01517 0.0036634 0)
(1.01562 0.0034387 0)
(1.01605 0.00319938 0)
(1.01642 0.00294536 0)
(1.01677 0.00268222 0)
(1.00026 0.00185617 0)
(1.002 0.00447013 0)
(1.00438 0.00531742 0)
(1.00628 0.00527333 0)
(1.0075 0.00516994 0)
(1.00845 0.00510256 0)
(1.00937 0.0049489 0)
(1.01023 0.00472232 0)
(1.01097 0.00448172 0)
(1.01161 0.00425404 0)
(1.01219 0.00403922 0)
(1.01273 0.00382848 0)
(1.01323 0.00361835 0)
(1.0137 0.0034065 0)
(1.01414 0.00318711 0)
(1.01454 0.00295735 0)
(1.01491 0.00271735 0)
(1.01524 0.00247389 0)
(1.00019 0.00146944 0)
(1.0015 0.00369499 0)
(1.00344 0.0046237 0)
(1.00515 0.00473902 0)
(1.00634 0.00469307 0)
(1.00728 0.00465054 0)
(1.00816 0.00453943 0)
(1.00899 0.00435493 0)
(1.00972 0.00414393 0)
(1.01035 0.00393565 0)
(1.01093 0.00373338 0)
(1.01146 0.00353208 0)
(1.01196 0.00332974 0)
(1.01242 0.00312515 0)
(1.01284 0.00291552 0)
(1.01324 0.00269959 0)
(1.01359 0.00247766 0)
(1.01392 0.00225575 0)
(1.00014 0.00116896 0)
(1.00113 0.00303757 0)
(1.0027 0.00397056 0)
(1.00421 0.00420339 0)
(1.00536 0.00421458 0)
(1.00627 0.00419403 0)
(1.00712 0.0041148 0)
(1.00792 0.00396599 0)
(1.00863 0.00378257 0)
(1.00926 0.00359381 0)
(1.00983 0.00340668 0)
(1.01036 0.00321872 0)
(1.01085 0.00302846 0)
(1.0113 0.00283538 0)
(1.01171 0.00263833 0)
(1.0121 0.00243709 0)
(1.01244 0.00223205 0)
(1.01276 0.00202849 0)
(1.00011 0.000945712 0)
(1.00089 0.00251713 0)
(1.00218 0.00340787 0)
(1.00351 0.00371318 0)
(1.0046 0.00377186 0)
(1.00549 0.00376951 0)
(1.0063 0.00371283 0)
(1.00707 0.00359284 0)
(1.00777 0.0034346 0)
(1.00839 0.00326471 0)
(1.00895 0.00309247 0)
(1.00947 0.00291746 0)
(1.00995 0.00273884 0)
(1.0104 0.00255681 0)
(1.01081 0.00237144 0)
(1.01118 0.00218333 0)
(1.01152 0.00199302 0)
(1.01183 0.00180525 0)
(1.00008 0.00076939 0)
(1.00071 0.00207899 0)
(1.00177 0.00289142 0)
(1.00293 0.00323108 0)
(1.00395 0.00332774 0)
(1.00481 0.0033428 0)
(1.00559 0.00330392 0)
(1.00633 0.00320828 0)
(1.00701 0.00307362 0)
(1.00762 0.00292243 0)
(1.00818 0.00276522 0)
(1.00869 0.00260355 0)
(1.00917 0.0024375 0)
(1.0096 0.00226783 0)
(1.01 0.00209533 0)
(1.01037 0.00192112 0)
(1.0107 0.00174574 0)
(1.01101 0.00157364 0)
(1.00006 0.000604236 0)
(1.00055 0.00165086 0)
(1.00141 0.00235182 0)
(1.00241 0.00269487 0)
(1.00333 0.00281944 0)
(1.00415 0.00285087 0)
(1.0049 0.00282757 0)
(1.00561 0.00275421 0)
(1.00626 0.0026435 0)
(1.00686 0.00251302 0)
(1.00741 0.00237333 0)
(1.00791 0.00222769 0)
(1.00838 0.00207711 0)
(1.00881 0.00192276 0)
(1.0092 0.00176587 0)
(1.00956 0.00160789 0)
(1.00988 0.00144936 0)
(1.01019 0.0012945 0)
(1.00005 0.000450358 0)
(1.00043 0.00124092 0)
(1.00111 0.00180483 0)
(1.00195 0.00211596 0)
(1.00278 0.00224865 0)
(1.00354 0.00228978 0)
(1.00425 0.00227778 0)
(1.00493 0.00222279 0)
(1.00556 0.00213451 0)
(1.00614 0.00202575 0)
(1.00667 0.00190582 0)
(1.00717 0.00177887 0)
(1.00762 0.00164668 0)
(1.00804 0.00151069 0)
(1.00842 0.00137233 0)
(1.00878 0.00123324 0)
(1.0091 0.00109389 0)
(1.00939 0.000958305 0)
(1.00004 0.000307142 0)
(1.00033 0.000850209 0)
(1.00088 0.00125625 0)
(1.00158 0.00149992 0)
(1.00232 0.00161487 0)
(1.00302 0.0016538 0)
(1.00369 0.00164676 0)
(1.00433 0.00160505 0)
(1.00493 0.00153624 0)
(1.00549 0.00144901 0)
(1.00601 0.00135047 0)
(1.00649 0.00124465 0)
(1.00693 0.00113365 0)
(1.00734 0.00101902 0)
(1.00772 0.000902188 0)
(1.00806 0.000784711 0)
(1.00838 0.000667001 0)
(1.00867 0.000552773 0)
(1.00003 0.000171074 0)
(1.00027 0.000471226 0)
(1.00072 0.0007018 0)
(1.00132 0.000846067 0)
(1.00197 0.000915606 0)
(1.00262 0.000936258 0)
(1.00325 0.000925312 0)
(1.00386 0.000890836 0)
(1.00443 0.000837793 0)
(1.00497 0.00077114 0)
(1.00547 0.000695217 0)
(1.00594 0.00061291 0)
(1.00637 0.000525991 0)
(1.00677 0.000435814 0)
(1.00713 0.000343561 0)
(1.00747 0.000250561 0)
(1.00778 0.000157079 0)
(1.00807 6.64357e-05 0)
(1.00003 3.36114e-05 0)
(1.00023 8.35792e-05 0)
(1.00063 0.000119856 0)
(1.00117 0.000137216 0)
(1.00178 0.000135597 0)
(1.0024 0.000120239 0)
(1.003 9.45382e-05 0)
(1.00358 6.03601e-05 0)
(1.00413 1.8938e-05 0)
(1.00466 -2.85682e-05 0)
(1.00514 -8.10595e-05 0)
(1.0056 -0.000137631 0)
(1.00602 -0.000197542 0)
(1.0064 -0.000260085 0)
(1.00676 -0.000324565 0)
(1.00709 -0.000390046 0)
(1.0074 -0.000456425 0)
(1.00767 -0.000520856 0)
(1.00003 -0.000125577 0)
(1.00024 -0.0003652 0)
(1.00065 -0.000555115 0)
(1.0012 -0.000687963 0)
(1.00182 -0.000776214 0)
(1.00244 -0.000836781 0)
(1.00304 -0.0008817 0)
(1.00362 -0.000916649 0)
(1.00417 -0.000945221 0)
(1.00468 -0.000970882 0)
(1.00516 -0.000996361 0)
(1.00561 -0.00102315 0)
(1.00602 -0.00105186 0)
(1.00639 -0.00108262 0)
(1.00674 -0.00111544 0)
(1.00707 -0.00114991 0)
(1.00737 -0.00118623 0)
(1.00764 -0.0012223 0)
(1.00003 -0.000298539 0)
(1.00031 -0.00085025 0)
(1.00082 -0.00127118 0)
(1.00149 -0.00154148 0)
(1.00219 -0.00169828 0)
(1.00287 -0.00178922 0)
(1.0035 -0.0018419 0)
(1.00411 -0.00186744 0)
(1.00467 -0.00187408 0)
(1.0052 -0.00187068 0)
(1.00568 -0.00186411 0)
(1.00612 -0.00185812 0)
(1.00653 -0.00185447 0)
(1.0069 -0.00185397 0)
(1.00724 -0.001857 0)
(1.00756 -0.00186332 0)
(1.00785 -0.00187293 0)
(1.00812 -0.00188404 0)
(1.00005 -0.000487084 0)
(1.00042 -0.0013667 0)
(1.00112 -0.0019953 0)
(1.00196 -0.00235284 0)
(1.00278 -0.00253162 0)
(1.00353 -0.002622 0)
(1.00421 -0.00266196 0)
(1.00485 -0.00266306 0)
(1.00544 -0.00263758 0)
(1.00598 -0.00259949 0)
(1.00647 -0.00255825 0)
(1.00691 -0.00251838 0)
(1.00731 -0.00248221 0)
(1.00768 -0.00245131 0)
(1.00801 -0.00242659 0)
(1.00832 -0.00240808 0)
(1.00861 -0.00239576 0)
(1.00887 -0.00238835 0)
(1.00007 -0.000729289 0)
(1.00063 -0.00200035 0)
(1.0016 -0.00281524 0)
(1.0027 -0.00319891 0)
(1.00366 -0.00335389 0)
(1.00448 -0.00341796 0)
(1.00521 -0.00342471 0)
(1.0059 -0.00338298 0)
(1.00651 -0.00331349 0)
(1.00706 -0.00323668 0)
(1.00755 -0.00316236 0)
(1.00799 -0.00309323 0)
(1.00839 -0.00303043 0)
(1.00875 -0.00297496 0)
(1.00908 -0.00292725 0)
(1.00938 -0.00288685 0)
(1.00966 -0.00285324 0)
(1.00991 -0.00282474 0)
(1.00011 -0.00106018 0)
(1.00097 -0.0028082 0)
(1.00236 -0.00375288 0)
(1.00376 -0.00407689 0)
(1.00486 -0.00416863 0)
(1.00574 -0.00419465 0)
(1.00653 -0.00415562 0)
(1.00726 -0.00405433 0)
(1.0079 -0.00392419 0)
(1.00845 -0.00379321 0)
(1.00893 -0.00367202 0)
(1.00937 -0.00356331 0)
(1.00976 -0.00346885 0)
(1.01012 -0.00338986 0)
(1.01044 -0.00332612 0)
(1.01074 -0.00327613 0)
(1.01101 -0.00323832 0)
(1.01127 -0.00321111 0)
(1.00019 -0.00153289 0)
(1.00153 -0.00384656 0)
(1.00351 -0.00480717 0)
(1.00522 -0.00496168 0)
(1.00642 -0.00494533 0)
(1.00735 -0.0049134 0)
(1.00821 -0.00482049 0)
(1.00898 -0.00466925 0)
(1.00964 -0.00449969 0)
(1.0102 -0.00433437 0)
(1.01068 -0.00417689 0)
(1.0111 -0.00402824 0)
(1.01148 -0.00389172 0)
(1.01182 -0.00377033 0)
(1.01212 -0.00366499 0)
(1.0124 -0.0035751 0)
(1.01266 -0.00349966 0)
(1.01288 -0.00343676 0)
(1.00033 -0.00223011 0)
(1.00244 -0.00513725 0)
(1.00517 -0.00594894 0)
(1.00719 -0.00587756 0)
(1.00843 -0.00573917 0)
(1.00938 -0.00559024 0)
(1.01028 -0.00536475 0)
(1.01108 -0.00510708 0)
(1.01174 -0.00487462 0)
(1.0123 -0.00468022 0)
(1.01278 -0.00451523 0)
(1.01321 -0.00437361 0)
(1.01359 -0.00425417 0)
(1.01393 -0.00415601 0)
(1.01423 -0.00407715 0)
(1.0145 -0.00401477 0)
(1.01475 -0.00396614 0)
(1.01498 -0.00392876 0)
(1.00059 -0.00329686 0)
(1.00385 -0.00663033 0)
(1.00743 -0.00699508 0)
(1.00967 -0.00671946 0)
(1.0109 -0.00660041 0)
(1.01188 -0.00643641 0)
(1.01281 -0.00612114 0)
(1.01359 -0.00574347 0)
(1.01421 -0.00538201 0)
(1.01473 -0.00505519 0)
(1.01518 -0.00476167 0)
(1.01558 -0.00450305 0)
(1.01593 -0.00428209 0)
(1.01625 -0.00409814 0)
(1.01654 -0.00394875 0)
(1.0168 -0.00383081 0)
(1.01705 -0.00374101 0)
(1.01727 -0.00366842 0)
(1.00106 -0.00495276 0)
(1.00599 -0.00847124 0)
(1.0104 -0.00788547 0)
(1.01271 -0.00708181 0)
(1.01401 -0.00680793 0)
(1.01525 -0.00663741 0)
(1.01649 -0.00640957 0)
(1.01757 -0.00617573 0)
(1.01847 -0.00596414 0)
(1.01926 -0.00576366 0)
(1.01998 -0.00556707 0)
(1.02064 -0.00537946 0)
(1.02124 -0.00520906 0)
(1.02179 -0.00505895 0)
(1.02229 -0.00492883 0)
(1.02276 -0.00482035 0)
(1.02321 -0.00473309 0)
(1.02362 -0.00466442 0)
(1.0021 -0.00699706 0)
(1.01127 -0.0110286 0)
(1.0188 -0.0100072 0)
(1.0232 -0.00872746 0)
(1.02638 -0.00785024 0)
(1.02935 -0.00706697 0)
(1.03203 -0.00636144 0)
(1.03424 -0.00580397 0)
(1.03599 -0.00538414 0)
(1.03739 -0.00505614 0)
(1.03849 -0.00478938 0)
(1.03932 -0.00457109 0)
(1.03993 -0.00439668 0)
(1.04033 -0.00426473 0)
(1.04056 -0.00417071 0)
(1.04066 -0.00410964 0)
(1.04065 -0.00407251 0)
(1.04054 -0.00407957 0)
(1.01355 -0.00761298 0)
(1.03623 -0.011873 0)
(1.04725 -0.0120788 0)
(1.04969 -0.0120267 0)
(1.04836 -0.0117938 0)
(1.04555 -0.011193 0)
(1.04177 -0.0103906 0)
(1.03727 -0.00956588 0)
(1.03232 -0.00878853 0)
(1.02715 -0.00807039 0)
(1.02191 -0.00741448 0)
(1.01668 -0.00682441 0)
(1.01149 -0.00630507 0)
(1.00638 -0.00584809 0)
(1.00144 -0.00545394 0)
(0.996704 -0.00513223 0)
(0.99215 -0.00486691 0)
(0.987834 -0.00469096 0)
(0.957558 -0.0252672 0)
(0.898722 -0.0204304 0)
(0.852816 -0.0110503 0)
(0.814712 -0.00594301 0)
(0.784085 -0.00358169 0)
(0.759776 -0.0023845 0)
(0.740007 -0.00166685 0)
(0.723531 -0.00117328 0)
(0.709707 -0.000791998 0)
(0.698145 -0.000471211 0)
(0.688479 -0.00019149 0)
(0.680382 5.45786e-05 0)
(0.673576 0.000269018 0)
(0.667851 0.000440746 0)
(0.66291 0.000557643 0)
(0.658599 0.000631921 0)
(0.654764 0.000669576 0)
(0.651405 0.000670382 0)
(-0.000262267 0.00071913 -1.31525e-18)
(-0.00122473 0.00120644 0)
(-0.00253991 0.00132399 0)
(-0.00392924 0.00114552 0)
(-0.00494468 0.000603082 0)
(-0.00486947 -0.000306394 0)
(-0.00336275 -0.00154415 0)
(-0.000735634 -0.00284579 0)
(0.00270383 -0.00383203 0)
(0.00666717 -0.00432332 -7.14338e-19)
(0.0108685 -0.00437684 0)
(0.0149727 -0.00410434 0)
(0.0187104 -0.00360802 0)
(0.0219163 -0.00296701 0)
(0.0245031 -0.00223727 0)
(0.0264276 -0.00145475 0)
(0.0276562 -0.000639663 0)
(0.0282072 0.000214166 0)
(0.027972 0.00109378 -3.01992e-19)
(0.0269719 0.00195111 0)
(0.0252698 0.00271217 0)
(0.0229297 0.00329982 3.47268e-19)
(0.0200448 0.00364369 0)
(0.0167539 0.0036843 0)
(0.0132406 0.00338256 0)
(0.00972804 0.00274173 6.24307e-19)
(0.00646081 0.00183513 0)
(0.00367307 0.000834875 0)
(0.00152942 -3.49536e-06 0)
(5.87289e-05 -0.000492211 0)
(-0.000862648 -0.000704341 0)
(-0.00133319 -0.000840384 1.72335e-18)
(-0.00126322 -0.00102691 0)
(-0.000589955 -0.00135381 -1.82839e-18)
(0.000759572 -0.00185652 0)
(0.00288352 -0.0024634 0)
(0.00559969 -0.00290358 0)
(0.0085699 -0.00297689 0)
(0.0112861 -0.00260991 0)
(0.013332 -0.00191898 0)
(0.0144858 -0.00112955 0)
(0.0148248 -0.000461426 0)
(0.0145766 -7.38391e-05 0)
(0.0141438 -3.95626e-05 0)
(0.0138666 -0.0004392 0)
(0.0137139 -0.00125641 0)
(0.0131301 -0.00218414 0)
(0.0113736 -0.00231117 1.14994e-18)
(0.00788457 -0.000858917 0)
(0.00184853 0.00122232 1.34646e-18)
(-0.00723964 0.003145 8.85679e-19)
(-0.0172757 0.00533679 -5.46064e-19)
(-0.0283913 0.00770398 -3.91165e-19)
(-0.0404543 0.00966703 3.1238e-19)
(-0.0533586 0.0100555 -2.65993e-19)
(-0.0668335 0.00999651 -2.26195e-19)
(-0.0797606 0.0104648 0)
(-0.0922475 0.0107214 0)
(-0.104258 0.0102189 -1.58224e-19)
(-0.115622 0.00960214 0)
(-0.126151 0.00878768 0)
(-0.1359 0.00788498 0)
(-0.144829 0.00728326 0)
(-0.153054 0.00654147 0)
(-0.160599 0.00585387 0)
(-0.167562 0.00536692 -1.06971e-19)
(-0.174003 0.00491093 0)
(-0.179984 0.00452185 0)
(-0.185561 0.00417839 0)
(-0.190784 0.00387979 0)
(-0.195694 0.00361652 0)
(-0.200328 0.00338475 0)
(-0.204715 0.0031777 8.86956e-20)
(-0.20888 0.00299197 0)
(-0.212841 0.00282303 0)
(-0.216617 0.00266832 -8.40346e-20)
(-0.22022 0.00252501 -8.27165e-20)
(-0.22366 0.00239138 0)
(-0.226945 0.00226561 0)
(-0.230085 0.00214655 0)
(-0.233082 0.00203307 0)
(-0.235943 0.00192446 0)
(-0.238671 0.00181991 0)
(-0.241269 0.00171888 0)
(-0.24374 0.00162084 -7.50464e-20)
(-0.246085 0.00152542 7.43643e-20)
(-0.248306 0.00143208 0)
(-0.250405 0.00134055 1.46291e-19)
(-0.252381 0.00125021 0)
(-0.254234 0.00116074 1.44214e-19)
(-0.255966 0.00107157 0)
(-0.257575 0.000982154 0)
(-0.259059 0.0008918 -1.41716e-19)
(-0.260418 0.000799783 0)
(-0.261649 0.000705339 1.40443e-19)
(-0.262748 0.000607736 0)
(-0.263712 0.000506509 1.3948e-19)
(-0.264534 0.000401714 0)
(-0.26521 0.000294877 0)
(-0.265733 0.000190727 0)
(-0.266097 9.76545e-05 -1.38542e-19)
(-0.266295 2.15149e-05 0)
(-0.266377 -4.40781e-05 1.38447e-19)
(-0.26634 -0.000107058 -1.38494e-19)
(-0.266187 -0.000168669 0)
(-0.265918 -0.000229654 0)
(-0.265533 -0.000290083 0)
(-0.265031 -0.000349996 -1.39283e-19)
(-0.264413 -0.000409368 0)
(-0.263677 -0.00046817 0)
(-0.262823 -0.000526365 0)
(-0.261852 -0.000583917 0)
(-0.260764 -0.00064079 -1.41643e-19)
(-0.259557 -0.000696955 1.42305e-19)
(-0.258233 -0.000752373 -1.43033e-19)
(-0.256792 -0.000807019 1.43826e-19)
(-0.255234 -0.000860856 1.44688e-19)
(-0.25356 -0.000913863 0)
(-0.251769 -0.00096601 0)
(-0.249864 -0.00101727 -1.47692e-19)
(-0.247844 -0.00106764 0)
(-0.245711 -0.00111707 0)
(-0.243466 -0.00116558 0)
(-0.241109 -0.00121314 0)
(-0.238642 -0.00125976 0)
(-0.236067 -0.00130545 0)
(-0.233383 -0.00135018 1.57354e-19)
(-0.230594 -0.00139398 -1.59066e-19)
(-0.2277 -0.00143677 0)
(-0.224703 -0.00147795 0)
(-0.221606 -0.00151855 0)
(-0.218408 -0.00155739 0)
(-0.215114 -0.00159505 0)
(-0.211724 -0.00163097 0)
(-0.208242 -0.00166201 0)
(-0.20467 -0.00168561 0)
(-0.201015 -0.00169456 0)
(-0.197283 -0.00168332 3.63257e-19)
(-0.193478 -0.00166599 0)
(-0.189592 -0.00167794 0)
(-0.185621 -0.0017089 0)
(-0.181572 -0.00173398 0)
(-0.177448 -0.00175831 0)
(-0.173253 -0.00178146 0)
(-0.168989 -0.00180368 0)
(-0.164659 -0.00182502 4.2076e-19)
(-0.160265 -0.00184554 4.29675e-19)
(-0.15581 -0.00186531 0)
(-0.151296 -0.00188437 0)
(-0.146725 -0.00190274 4.59215e-19)
(-0.142099 -0.00192043 -4.70093e-19)
(-0.13742 -0.00193741 4.81545e-19)
(-0.132692 -0.00195364 -4.93608e-19)
(-0.127917 -0.00196915 -5.06325e-19)
(-0.123097 -0.00198406 0)
(-0.118235 -0.00199853 0)
(-0.113334 -0.00201279 0)
(-0.108395 -0.00202708 5.64719e-19)
(-0.10342 -0.00204165 0)
(-0.0984098 -0.00205674 0)
(-0.0933646 -0.00207259 0)
(-0.0882847 -0.00208939 0)
(-0.0831698 -0.00210728 -6.59694e-19)
(-0.0780196 -0.0021263 0)
(-0.0728338 -0.0021465 -7.07082e-19)
(-0.0676124 -0.00216794 7.3338e-19)
(-0.0623555 -0.00219078 0)
(-0.0570629 -0.0022152 0)
(-0.0517344 -0.00224145 0)
(-0.0463697 -0.00226964 0)
(-0.0409685 -0.00229968 0)
(-0.0355314 -0.00233112 0)
(-0.0300612 -0.00236281 -9.89931e-19)
(-0.0245647 -0.00239312 -1.04175e-18)
(-0.0190546 -0.00242015 0)
(-0.0135569 -0.00243442 0)
(-0.00811877 -0.00242343 0)
(-0.00296539 -0.002343 0)
(0.00271603 -0.00217432 0)
(0.00447719 -0.0011462 0)
(-2.85169e-05 0.00195148 -1.33471e-18)
(-0.000575747 0.0034297 0)
(-0.00121 0.00354695 2.87043e-18)
(-0.00126423 0.00263745 0)
(6.28418e-05 0.000537344 0)
(0.00290106 -0.00300192 0)
(0.00668329 -0.00698834 0)
(0.0110243 -0.010284 0)
(0.0155302 -0.0123332 6.86205e-19)
(0.0198638 -0.0130862 -2.8653e-19)
(0.0238084 -0.0127874 5.02069e-19)
(0.0272666 -0.0117604 -4.55587e-19)
(0.0302036 -0.0102854 0)
(0.0326195 -0.00856588 0)
(0.0345349 -0.00673483 0)
(0.0359798 -0.00486911 0)
(0.0369907 -0.00300844 0)
(0.0375863 -0.00116673 0)
(0.0378615 0.000657885 1.98923e-19)
(0.0378055 0.00244673 0)
(0.0373805 0.00416433 0)
(0.0365372 0.00575642 2.10557e-19)
(0.0352205 0.00714887 0)
(0.0333839 0.00824491 0)
(0.0310072 0.00893474 0)
(0.0281153 0.00911355 2.6621e-19)
(0.0247967 0.00871309 0)
(0.0212139 0.00774394 0)
(0.0175957 0.00631301 0)
(0.0142265 0.00459714 -9.49151e-19)
(0.0114098 0.0027558 0)
(0.00946225 0.000876438 -6.86788e-19)
(0.00851889 -0.00105593 0)
(0.00874011 -0.0029699 -7.06788e-19)
(0.00996785 -0.00487566 0)
(0.0118694 -0.0065679 9.77417e-19)
(0.0138916 -0.0074254 -8.1296e-19)
(0.0154676 -0.00701002 0)
(0.0162973 -0.00558008 -6.59501e-19)
(0.0163375 -0.00362752 -6.68902e-19)
(0.0156407 -0.00174782 7.1742e-19)
(0.0143025 -0.000440428 0)
(0.0123858 0.000272624 0)
(0.00941691 0.000749728 -1.89721e-18)
(0.00455441 0.00164723 0)
(-0.00349413 0.00409973 0)
(-0.0146726 0.00811839 0)
(-0.027288 0.0124603 -4.01192e-19)
(-0.0405484 0.0167139 0)
(-0.0544363 0.0204554 -2.2641e-19)
(-0.068689 0.0233438 1.85319e-19)
(-0.0827263 0.0253925 1.5762e-19)
(-0.0964058 0.0266345 1.38096e-19)
(-0.109387 0.0270877 -1.24098e-19)
(-0.121533 0.026783 1.13862e-19)
(-0.132501 0.0258305 3.15555e-19)
(-0.14234 0.0244652 0)
(-0.15109 0.0228571 0)
(-0.158881 0.0211108 -8.81111e-20)
(-0.16573 0.0193411 -1.68018e-19)
(-0.171888 0.0176506 0)
(-0.177401 0.0160406 0)
(-0.182402 0.0145968 0)
(-0.187011 0.0132995 0)
(-0.191251 0.0121461 -1.42836e-19)
(-0.195203 0.0111435 -6.96127e-20)
(-0.198909 0.010265 0)
(-0.202412 0.00949925 0)
(-0.205737 0.00882904 0)
(-0.208906 0.00823987 0)
(-0.211934 0.00771809 0)
(-0.21483 0.00725209 0)
(-0.217605 0.00683189 -6.05089e-20)
(-0.220265 0.00644932 0)
(-0.222813 0.00609757 0)
(-0.225255 0.00577117 -5.78e-20)
(-0.227593 0.00546572 5.69905e-20)
(-0.229829 0.00517773 1.12482e-19)
(-0.231964 0.00490438 0)
(-0.234001 0.00464339 0)
(-0.23594 0.00439299 0)
(-0.237782 0.00415171 0)
(-0.239527 0.00391837 0)
(-0.241176 0.00369195 0)
(-0.242729 0.0034716 5.20158e-20)
(-0.244187 0.00325663 -5.15392e-20)
(-0.245548 0.0030464 0)
(-0.246812 0.00284032 -1.01331e-19)
(-0.247981 0.0026379 0)
(-0.249052 0.00243861 -9.97821e-20)
(-0.250025 0.00224196 0)
(-0.250901 0.00204747 0)
(-0.251678 0.00185461 -9.78044e-20)
(-0.252357 0.00166284 0)
(-0.252938 0.00147161 9.66954e-20)
(-0.253421 0.00128031 0)
(-0.253809 0.00108836 9.57554e-20)
(-0.254104 0.000895104 0)
(-0.254312 0.000700361 -1.89988e-19)
(-0.25444 0.000506316 0)
(-0.254497 0.000319456 9.4384e-20)
(-0.254491 0.000146788 0)
(-0.254382 -1.50951e-05 -9.38479e-20)
(-0.254164 -0.000172641 9.36312e-20)
(-0.253835 -0.000327224 0)
(-0.253394 -0.000479739 0)
(-0.252838 -0.000630291 0)
(-0.252168 -0.000778906 9.3106e-20)
(-0.251383 -0.000925495 -1.86097e-19)
(-0.250483 -0.00106996 0)
(-0.249467 -0.00121218 1.8611e-19)
(-0.248336 -0.00135205 -1.86217e-19)
(-0.247088 -0.00148946 -9.31806e-20)
(-0.245725 -0.0016243 -9.33323e-20)
(-0.244246 -0.00175648 2.80428e-19)
(-0.242652 -0.0018859 -9.36761e-20)
(-0.240943 -0.00201247 -2.81658e-19)
(-0.239119 -0.0021361 0)
(-0.23718 -0.00225669 0)
(-0.235129 -0.00237418 9.47686e-20)
(-0.232965 -0.00248847 0)
(-0.230689 -0.00259951 0)
(-0.228302 -0.00270723 0)
(-0.225806 -0.00281159 1.9277e-19)
(-0.223201 -0.00291255 0)
(-0.220489 -0.00301005 0)
(-0.217671 -0.00310407 -9.80101e-20)
(-0.214749 -0.00319457 -9.8559e-20)
(-0.211725 -0.00328153 -1.98458e-19)
(-0.208599 -0.00336492 -1.99816e-19)
(-0.205374 -0.00344472 2.01248e-19)
(-0.202051 -0.0035209 0)
(-0.198633 -0.0035934 0)
(-0.195121 -0.00366221 4.11996e-19)
(-0.191519 -0.00372721 0)
(-0.187828 -0.00378906 4.19138e-19)
(-0.184049 -0.00384943 0)
(-0.180181 -0.00390906 -2.1347e-19)
(-0.176224 -0.00396731 0)
(-0.172184 -0.00402182 0)
(-0.168069 -0.00406976 -4.39415e-19)
(-0.163878 -0.00411193 0)
(-0.159613 -0.00415003 0)
(-0.155278 -0.00418456 0)
(-0.150874 -0.00421582 0)
(-0.146404 -0.00424399 2.3193e-19)
(-0.14187 -0.00426925 -2.34827e-19)
(-0.137275 -0.00429174 0)
(-0.132621 -0.0043116 0)
(-0.127909 -0.00432891 -2.43647e-19)
(-0.123143 -0.0043437 2.46795e-19)
(-0.118324 -0.00435591 -7.49988e-19)
(-0.113455 -0.00436543 2.53419e-19)
(-0.108538 -0.0043722 -2.56734e-19)
(-0.103575 -0.00437636 0)
(-0.0985693 -0.00437819 0)
(-0.0935229 -0.00437807 -5.35977e-19)
(-0.0884378 -0.00437647 -2.72047e-19)
(-0.0833151 -0.00437384 0)
(-0.0781559 -0.00437063 0)
(-0.0729607 -0.00436726 0)
(-0.0677297 -0.00436409 -5.78293e-19)
(-0.0624626 -0.00436136 2.93878e-19)
(-0.0571589 -0.00435911 0)
(-0.0518183 -0.00435728 3.03611e-19)
(-0.0464406 -0.00435578 -3.08718e-19)
(-0.0410255 -0.00435469 0)
(-0.0355729 -0.00435414 0)
(-0.0300823 -0.00435434 0)
(-0.0245533 -0.00435532 0)
(-0.0189855 -0.0043568 0)
(-0.0133792 -0.00435794 0)
(-0.00773649 -0.00435663 -3.49549e-19)
(-0.00206321 -0.00434858 -3.55476e-19)
(0.00363094 -0.00432617 -7.10333e-19)
(0.00932333 -0.00427594 0)
(0.015001 -0.00418343 0)
(0.020475 -0.00401046 0)
(0.0262541 -0.00366795 0)
(0.0299213 -0.00256544 1.36029e-18)
(2.89812e-05 0.00222677 2.66938e-18)
(6.24895e-05 0.0038559 -3.1522e-18)
(0.000615275 0.00314344 -6.1412e-18)
(0.00253502 -6.05395e-05 0)
(0.00634467 -0.00577525 0)
(0.0113246 -0.0121397 0)
(0.0164744 -0.017241 6.25204e-19)
(0.0211162 -0.0202131 -5.03616e-19)
(0.0249737 -0.021105 -8.63989e-19)
(0.0280374 -0.0204045 7.73055e-19)
(0.0304195 -0.0186705 -7.12016e-19)
(0.0322598 -0.016363 3.34997e-19)
(0.0336769 -0.0137962 3.20634e-19)
(0.0347551 -0.0111583 0)
(0.0355508 -0.00855123 0)
(0.0361017 -0.00602356 -3.05882e-19)
(0.0364348 -0.00359445 0)
(0.0365695 -0.00127182 6.27606e-19)
(0.0365309 0.000946819 0)
(0.0363509 0.00307739 -6.3925e-19)
(0.0360547 0.0051325 0)
(0.0356585 0.00710468 -3.35315e-19)
(0.0351527 0.00895682 0)
(0.0344974 0.0106152 0)
(0.0336233 0.0119703 0)
(0.0324454 0.0128845 -4.08042e-19)
(0.0308865 0.0132148 0)
(0.0289171 0.0128469 0)
(0.0265943 0.0117356 -1.03816e-18)
(0.0240799 0.00991886 5.79729e-19)
(0.0216281 0.00751075 -1.31362e-18)
(0.0195287 0.00464999 1.50511e-18)
(0.0180336 0.00149745 -1.72384e-18)
(0.0171706 -0.0018524 8.61971e-19)
(0.0168597 -0.00513458 0)
(0.0164686 -0.00736504 -1.94382e-18)
(0.0153745 -0.00766869 5.57712e-19)
(0.0134386 -0.00615049 0)
(0.0108084 -0.00361616 5.2236e-19)
(0.00748786 -0.000559608 5.67453e-19)
(0.00337214 0.00265897 -2.05882e-18)
(-0.00229128 0.00563357 1.38911e-18)
(-0.0105231 0.00900176 -1.06409e-18)
(-0.0208631 0.0134867 7.75736e-19)
(-0.032912 0.018684 0)
(-0.0461887 0.0240943 0)
(-0.0599899 0.0293739 0)
(-0.0736803 0.033964 0)
(-0.0867809 0.0376339 2.684e-19)
(-0.0989495 0.0403561 -2.37222e-19)
(-0.109958 0.0419902 -2.13658e-19)
(-0.119726 0.0425502 0)
(-0.12821 0.0421367 0)
(-0.135472 0.040862 0)
(-0.141678 0.0388782 0)
(-0.147025 0.0364295 -1.20583e-22)
(-0.151733 0.033765 0)
(-0.15596 0.0310261 0)
(-0.159855 0.0283343 1.30702e-19)
(-0.163513 0.0257813 1.25505e-19)
(-0.167013 0.0234411 0)
(-0.170401 0.0213228 0)
(-0.173705 0.0194508 -2.2653e-19)
(-0.176932 0.0178102 0)
(-0.180089 0.0163771 3.20804e-19)
(-0.183169 0.015133 1.04138e-19)
(-0.186171 0.0140475 2.03097e-19)
(-0.189094 0.0130961 0)
(-0.191937 0.0122561 0)
(-0.194698 0.0115082 0)
(-0.197375 0.0108363 -1.86012e-19)
(-0.199969 0.0102267 0)
(-0.202478 0.00966808 0)
(-0.204902 0.00915131 -1.75902e-19)
(-0.207241 0.00866896 0)
(-0.209495 0.00821507 8.50457e-20)
(-0.211662 0.00778491 0)
(-0.213744 0.00737469 -8.24578e-20)
(-0.215739 0.00698141 0)
(-0.217648 0.00660265 0)
(-0.21947 0.00623645 0)
(-0.221205 0.00588125 0)
(-0.222853 0.00553572 0)
(-0.224413 0.00519876 0)
(-0.225885 0.00486942 0)
(-0.227268 0.00454692 0)
(-0.228563 0.00423053 -1.47358e-19)
(-0.229768 0.00391962 0)
(-0.230884 0.0036136 1.44437e-19)
(-0.231909 0.00331195 0)
(-0.232844 0.00301418 0)
(-0.233688 0.00271988 0)
(-0.23444 0.00242874 -3.66079e-24)
(-0.235101 0.00214053 1.38359e-19)
(-0.23567 0.00185525 -1.37337e-19)
(-0.236147 0.00157309 0)
(-0.236533 0.00129458 -1.35487e-19)
(-0.236829 0.00102057 -1.34654e-19)
(-0.237034 0.000752181 1.33889e-19)
(-0.237149 0.000490369 0)
(-0.237168 0.000234326 1.32398e-19)
(-0.237088 -1.96575e-05 1.31701e-19)
(-0.236903 -0.000273097 0)
(-0.236612 -0.000524357 0)
(-0.236213 -0.000772866 0)
(-0.235704 -0.00101853 1.29372e-19)
(-0.235085 -0.00126119 -2.57809e-19)
(-0.234356 -0.00150071 0)
(-0.233514 -0.00173691 -1.28084e-19)
(-0.232561 -0.0019696 2.55531e-19)
(-0.231496 -0.00219857 1.27451e-19)
(-0.230317 -0.00242365 1.27242e-19)
(-0.229026 -0.00264466 -1.26988e-19)
(-0.227623 -0.00286143 0)
(-0.226106 -0.00307378 1.26688e-19)
(-0.224477 -0.00328158 0)
(-0.222736 -0.00348467 1.26607e-19)
(-0.220883 -0.00368289 0)
(-0.218919 -0.00387611 2.53204e-19)
(-0.216844 -0.00406419 0)
(-0.214659 -0.004247 0)
(-0.212365 -0.00442443 0)
(-0.209962 -0.00459638 -2.54226e-19)
(-0.207453 -0.00476278 -1.27373e-19)
(-0.204837 -0.00492354 2.55193e-19)
(-0.202117 -0.00507861 -2.5579e-19)
(-0.199292 -0.00522793 0)
(-0.196366 -0.00537144 1.28644e-19)
(-0.193339 -0.00550909 1.29054e-19)
(-0.190213 -0.0056408 -1.29415e-19)
(-0.18699 -0.00576651 -1.29985e-19)
(-0.183671 -0.00588611 2.60917e-19)
(-0.180258 -0.00599947 0)
(-0.176753 -0.00610648 -5.26511e-19)
(-0.173159 -0.00620671 0)
(-0.169477 -0.00630011 -9.78178e-23)
(-0.165708 -0.00638727 0)
(-0.161854 -0.00646872 0)
(-0.157916 -0.00654569 0)
(-0.153899 -0.006619 0)
(-0.149806 -0.00668671 2.73304e-19)
(-0.145641 -0.00674751 0)
(-0.141403 -0.00680212 0)
(-0.137096 -0.00685095 -2.78398e-19)
(-0.132721 -0.00689432 0)
(-0.128282 -0.00693251 -2.82313e-19)
(-0.12378 -0.00696575 2.84204e-19)
(-0.119217 -0.00699429 0)
(-0.114596 -0.00701834 0)
(-0.109919 -0.0070381 2.90605e-19)
(-0.105188 -0.00705363 0)
(-0.100405 -0.00706486 2.95323e-19)
(-0.0955716 -0.00707162 0)
(-0.0906905 -0.00707382 3.00195e-19)
(-0.0857641 -0.00707161 0)
(-0.0807947 -0.00706539 -6.10447e-19)
(-0.0757844 -0.00705575 -3.07777e-19)
(-0.0707349 -0.00704334 0)
(-0.0656476 -0.00702885 -6.26864e-19)
(-0.0605234 -0.00701295 6.3258e-19)
(-0.055363 -0.00699624 6.38412e-19)
(-0.0501664 -0.00697926 3.22299e-19)
(-0.0449335 -0.00696236 0)
(-0.0396638 -0.00694562 0)
(-0.0343569 -0.00692889 0)
(-0.0290125 -0.00691201 -6.69262e-19)
(-0.0236302 -0.00689499 0)
(-0.0182096 -0.00687797 0)
(-0.0127504 -0.00686109 0)
(-0.00725182 -0.00684432 0)
(-0.0017134 -0.00682719 7.01897e-19)
(0.00386479 -0.00680831 0)
(0.00948162 -0.00678468 3.48154e-19)
(0.0151333 -0.00675062 1.03627e-18)
(0.0208128 -0.00669616 3.42964e-19)
(0.0265014 -0.00660535 0)
(0.032198 -0.00645752 0)
(0.0377581 -0.00620616 0)
(0.0435819 -0.00576906 0)
(0.0481673 -0.00466152 -6.79561e-19)
(-0.000107247 0.00223404 -5.35648e-18)
(0.000191503 0.00259723 9.97593e-18)
(0.00227037 -0.00140911 2.1784e-18)
(0.00686853 -0.00937644 0)
(0.0127758 -0.0178907 0)
(0.0184203 -0.0241673 0)
(0.0228757 -0.0272945 -4.35897e-19)
(0.0259913 -0.0277021 3.76207e-19)
(0.0280217 -0.0262885 3.37789e-19)
(0.0293163 -0.0238673 3.11366e-19)
(0.0301588 -0.0209816 2.92919e-19)
(0.030731 -0.0179369 0)
(0.0311318 -0.0148879 -2.71003e-19)