/*--------------------------------*- C++ -*----------------------------------*\
  =========                 |
  \\      /  F ield         | OpenFOAM: The Open Source CFD Toolbox
   \\    /   O peration     | Website:  https://openfoam.org
    \\  /    A nd           | Version:  6
     \\/     M anipulation  |
\*---------------------------------------------------------------------------*/
FoamFile
{
    version     2.0;
    format      ascii;
    class       volVectorField;
    location    "0";
    object      Ulift1;
}
// * * * * * * * * * * * * * * * * * * * * * * * * * * * * * * * * * * * * * //

dimensions      [0 1 -1 0 0 0 0];

internalField   nonuniform List<vector> 
2200
(
(3.59321e-06 8.99733e-07 0)
(3.6036e-06 2.62702e-06 0)
(3.61127e-06 4.47815e-06 0)
(3.59681e-06 6.77219e-06 0)
(3.53046e-06 9.6009e-06 0)
(3.37197e-06 1.30148e-05 0)
(3.0706e-06 1.69652e-05 0)
(2.57111e-06 2.12106e-05 0)
(1.82766e-06 2.51946e-05 0)
(8.16852e-07 2.79326e-05 0)
(-3.26935e-07 2.82201e-05 0)
(-1.31988e-06 2.59875e-05 0)
(-2.08458e-06 2.24242e-05 0)
(-2.68096e-06 1.85622e-05 0)
(-3.14043e-06 1.4897e-05 0)
(-3.47351e-06 1.15618e-05 0)
(-3.69225e-06 8.53394e-06 0)
(-3.81914e-06 5.77512e-06 0)
(-3.88256e-06 3.27632e-06 0)
(-3.90918e-06 1.04637e-06 0)
(1.15253e-05 8.62032e-07 0)
(1.15071e-05 2.56611e-06 0)
(1.14521e-05 4.49139e-06 0)
(1.13122e-05 6.94804e-06 0)
(1.10126e-05 1.00178e-05 0)
(1.04468e-05 1.3732e-05 0)
(9.47485e-06 1.80122e-05 0)
(7.93334e-06 2.25712e-05 0)
(5.66415e-06 2.68013e-05 0)
(2.55919e-06 2.96714e-05 0)
(-9.98836e-07 2.99438e-05 0)
(-4.13519e-06 2.76007e-05 0)
(-6.53414e-06 2.39242e-05 0)
(-8.31035e-06 1.99577e-05 0)
(-9.56325e-06 1.61505e-05 0)
(-1.03833e-05 1.26045e-05 0)
(-1.08687e-05 9.31344e-06 0)
(-1.11197e-05 6.28691e-06 0)
(-1.12229e-05 3.56484e-06 0)
(-1.12418e-05 1.143e-06 0)
(2.06847e-05 9.66057e-07 0)
(2.06251e-05 2.85969e-06 0)
(2.045e-05 4.99714e-06 0)
(2.00851e-05 7.75437e-06 0)
(1.94207e-05 1.1221e-05 0)
(1.82982e-05 1.54235e-05 0)
(1.65024e-05 2.02576e-05 0)
(1.37676e-05 2.53841e-05 0)
(9.80958e-06 3.01155e-05 0)
(4.40638e-06 3.33082e-05 0)
(-1.81228e-06 3.36222e-05 0)
(-7.30742e-06 3.10664e-05 0)
(-1.14314e-05 2.70146e-05 0)
(-1.43266e-05 2.25498e-05 0)
(-1.62007e-05 1.81608e-05 0)
(-1.72971e-05 1.40174e-05 0)
(-1.78612e-05 1.01866e-05 0)
(-1.81e-05 6.72004e-06 0)
(-1.81606e-05 3.65727e-06 0)
(-1.81325e-05 1.11521e-06 0)
(3.0636e-05 1.07821e-06 0)
(3.05281e-05 3.31215e-06 0)
(3.02464e-05 5.94115e-06 0)
(2.96795e-05 9.26398e-06 0)
(2.86612e-05 1.33792e-05 0)
(2.69565e-05 1.83174e-05 0)
(2.42526e-05 2.39575e-05 0)
(2.01673e-05 2.99067e-05 0)
(1.42918e-05 3.5374e-05 0)
(6.30629e-06 3.90468e-05 0)
(-2.8501e-06 3.93968e-05 0)
(-1.08561e-05 3.6419e-05 0)
(-1.67266e-05 3.16229e-05 0)
(-2.07215e-05 2.62123e-05 0)
(-2.32363e-05 2.08045e-05 0)
(-2.46953e-05 1.57094e-05 0)
(-2.54726e-05 1.11009e-05 0)
(-2.58476e-05 7.07242e-06 0)
(-2.60018e-05 3.64602e-06 0)
(-2.60412e-05 1.04093e-06 0)
(4.23266e-05 1.35779e-06 0)
(4.21689e-05 4.10359e-06 0)
(4.17444e-05 7.27856e-06 0)
(4.09008e-05 1.1323e-05 0)
(3.94163e-05 1.63452e-05 0)
(3.69789e-05 2.23534e-05 0)
(3.31728e-05 2.91699e-05 0)
(2.7487e-05 3.63045e-05 0)
(1.93708e-05 4.28113e-05 0)
(8.39275e-06 4.71379e-05 0)
(-4.13767e-06 4.74692e-05 0)
(-1.49993e-05 4.37744e-05 0)
(-2.28784e-05 3.782e-05 0)
(-2.82277e-05 3.10764e-05 0)
(-3.16679e-05 2.43845e-05 0)
(-3.37932e-05 1.82052e-05 0)
(-3.50703e-05 1.27653e-05 0)
(-3.58181e-05 8.13187e-06 0)
(-3.62369e-05 4.2669e-06 0)
(-3.6449e-05 1.25847e-06 0)
(5.61492e-05 1.65085e-06 0)
(5.59418e-05 5.16918e-06 0)
(5.5371e-05 9.35246e-06 0)
(5.42257e-05 1.45098e-05 0)
(5.22065e-05 2.07657e-05 0)
(4.89031e-05 2.81383e-05 0)
(4.37782e-05 3.6424e-05 0)
(3.61727e-05 4.50435e-05 0)
(2.53694e-05 5.28669e-05 0)
(1.07975e-05 5.80147e-05 0)
(-5.80536e-06 5.82664e-05 0)
(-2.01847e-05 5.35735e-05 0)
(-3.06771e-05 4.61103e-05 0)
(-3.79484e-05 3.77357e-05 0)
(-4.28137e-05 2.95452e-05 0)
(-4.59866e-05 2.21138e-05 0)
(-4.80001e-05 1.56695e-05 0)
(-4.92239e-05 1.0225e-05 0)
(-4.99106e-05 5.68295e-06 0)
(-5.02362e-05 1.81071e-06 0)
(7.3068e-05 2.11059e-06 0)
(7.27827e-05 6.58337e-06 0)
(7.20075e-05 1.18932e-05 0)
(7.04697e-05 1.84531e-05 0)
(6.77845e-05 2.63713e-05 0)
(6.34254e-05 3.56147e-05 0)
(5.67017e-05 4.58948e-05 0)
(4.67612e-05 5.64979e-05 0)
(3.26656e-05 6.60614e-05 0)
(1.36557e-05 7.22923e-05 0)
(-8.01904e-06 7.2461e-05 0)
(-2.68508e-05 6.6547e-05 0)
(-4.07158e-05 5.72922e-05 0)
(-5.04705e-05 4.70161e-05 0)
(-5.71053e-05 3.70386e-05 0)
(-6.14683e-05 2.79909e-05 0)
(-6.42113e-05 2.00811e-05 0)
(-6.58194e-05 1.3295e-05 0)
(-6.6652e-05 7.52655e-06 0)
(-6.69723e-05 2.4404e-06 0)
(9.40202e-05 2.68654e-06 0)
(9.36568e-05 8.55024e-06 0)
(9.26446e-05 1.55749e-05 0)
(9.06324e-05 2.40286e-05 0)
(8.71304e-05 3.40397e-05 0)
(8.14701e-05 4.55807e-05 0)
(7.2769e-05 5.83206e-05 0)
(5.9925e-05 7.14121e-05 0)
(4.17103e-05 8.32002e-05 0)
(1.71256e-05 9.0842e-05 0)
(-1.09261e-05 9.09433e-05 0)
(-3.5333e-05 8.35227e-05 0)
(-5.33293e-05 7.20192e-05 0)
(-6.59643e-05 5.92768e-05 0)
(-7.44691e-05 4.68648e-05 0)
(-7.99404e-05 3.55158e-05 0)
(-8.32636e-05 2.5487e-05 0)
(-8.51184e-05 1.67985e-05 0)
(-8.6005e-05 9.36458e-06 0)
(-8.62783e-05 2.97334e-06 0)
(0.000119976 3.43024e-06 0)
(0.000119495 1.09653e-05 0)
(0.000118193 2.00287e-05 0)
(0.000115626 3.08842e-05 0)
(0.000111166 4.36396e-05 0)
(0.000103951 5.82203e-05 0)
(9.28351e-05 7.42068e-05 0)
(7.63797e-05 9.05703e-05 0)
(5.29859e-05 0.000105275 0)
(2.13748e-05 0.000114763 0)
(-1.46665e-05 0.000114781 0)
(-4.59422e-05 0.00010539 0)
(-6.88657e-05 9.08892e-05 0)
(-8.47757e-05 7.47876e-05 0)
(-9.52975e-05 5.90269e-05 0)
(-0.00010192 4.45526e-05 0)
(-0.000105853 3.17397e-05 0)
(-0.000108006 2.06535e-05 0)
(-0.000109024 1.12014e-05 0)
(-0.000109344 3.43292e-06 0)
(0.000152628 4.435e-06 0)
(0.00015201 1.42355e-05 0)
(0.000150348 2.59836e-05 0)
(0.00014708 3.98711e-05 0)
(0.00014141 5.60431e-05 0)
(0.000132232 7.44324e-05 0)
(0.000118059 9.45472e-05 0)
(9.70183e-05 0.000115123 0)
(6.70489e-05 0.000133595 0)
(2.65531e-05 0.000145429 0)
(-1.95096e-05 0.000145247 0)
(-5.92951e-05 0.000133157 0)
(-8.82522e-05 0.000114591 0)
(-0.000108181 9.39732e-05 0)
(-0.000121267 7.38115e-05 0)
(-0.000129488 5.5374e-05 0)
(-0.000134406 3.91791e-05 0)
(-0.00013716 2.53078e-05 0)
(-0.000138534 1.36068e-05 0)
(-0.000139053 4.13508e-06 0)
(0.000193496 5.67451e-06 0)
(0.000192699 1.8238e-05 0)
(0.000190614 3.32957e-05 0)
(0.000186521 5.10346e-05 0)
(0.000179388 7.16213e-05 0)
(0.000167774 9.49699e-05 0)
(0.00014974 0.000120469 0)
(0.000122864 0.000146519 0)
(8.45232e-05 0.000169834 0)
(3.27582e-05 0.000184608 0)
(-2.59688e-05 0.000184026 0)
(-7.65183e-05 0.000168323 0)
(-0.000113211 0.00014446 0)
(-0.000138465 0.000118111 0)
(-0.000155128 9.25134e-05 0)
(-0.00016571 6.92801e-05 0)
(-0.000172152 4.90162e-05 0)
(-0.000175848 3.17531e-05 0)
(-0.000177765 1.72422e-05 0)
(-0.000178558 5.31664e-06 0)
(0.000245459 7.32742e-06 0)
(0.000244445 2.34383e-05 0)
(0.000241802 4.26136e-05 0)
(0.00023661 6.51758e-05 0)
(0.000227543 9.13629e-05 0)
(0.000212734 0.00012108 0)
(0.000189679 0.000153538 0)
(0.000155276 0.000186649 0)
(0.000106217 0.000216151 0)
(4.0098e-05 0.000234591 0)
(-3.47487e-05 0.000233383 0)
(-9.90906e-05 0.000213018 0)
(-0.000145857 0.000182474 0)
(-0.0001782 0.000148991 0)
(-0.000199713 0.000116652 0)
(-0.000213504 8.74355e-05 0)
(-0.000221969 6.20317e-05 0)
(-0.000226851 4.04285e-05 0)
(-0.000229382 2.2285e-05 0)
(-0.000230411 7.01192e-06 0)
(0.000311519 9.3549e-06 0)
(0.000310244 2.99165e-05 0)
(0.000306903 5.43822e-05 0)
(0.000300305 8.31731e-05 0)
(0.000288724 0.000116601 0)
(0.000269748 0.000154538 0)
(0.000240168 0.000195937 0)
(0.00019605 0.000238056 0)
(0.000133251 0.00027537 0)
(4.88118e-05 0.000298367 0)
(-4.65791e-05 0.000296285 0)
(-0.000128527 0.000270035 0)
(-0.000188175 0.00023117 0)
(-0.00022956 0.000188825 0)
(-0.000257193 0.000148048 0)
(-0.000274963 0.000111211 0)
(-0.000285883 7.91122e-05 0)
(-0.000292162 5.17215e-05 0)
(-0.000295377 2.86352e-05 0)
(-0.000296624 9.05223e-06 0)
(0.000396113 1.19573e-05 0)
(0.000394477 3.81754e-05 0)
(0.000390175 6.93568e-05 0)
(0.000381666 0.000106143 0)
(0.00036673 0.000148919 0)
(0.000342272 0.000197463 0)
(0.000304207 0.000250339 0)
(0.000247568 0.00030392 0)
(0.000167165 0.000351077 0)
(5.93447e-05 0.000379721 0)
(-6.21497e-05 0.000376409 0)
(-0.000166331 0.000342648 0)
(-0.000242107 0.000293231 0)
(-0.00029467 0.000239628 0)
(-0.000329755 0.000188083 0)
(-0.000352296 0.00014149 0)
(-0.000366119 0.000100806 0)
(-0.000374035 6.59868e-05 0)
(-0.00037805 3.65374e-05 0)
(-0.000379564 1.1539e-05 0)
(0.000504615 1.52949e-05 0)
(0.000502524 4.88737e-05 0)
(0.000496954 8.88514e-05 0)
(0.000485913 0.000136007 0)
(0.000466546 0.000190804 0)
(0.000434909 0.000252898 0)
(0.000385822 0.000320342 0)
(0.000313019 0.00038839 0)
(0.000209999 0.000447876 0)
(7.22911e-05 0.000483442 0)
(-8.23085e-05 0.000478288 0)
(-0.000214394 0.00043478 0)
(-0.000310202 0.000371858 0)
(-0.000376536 0.000303925 0)
(-0.000420762 0.000238705 0)
(-0.000449153 0.000179719 0)
(-0.000466541 0.000128114 0)
(-0.000476476 8.38287e-05 0)
(-0.000481492 4.62781e-05 0)
(-0.000483362 1.45473e-05 0)
(0.000643622 1.95511e-05 0)
(0.000640876 6.262e-05 0)
(0.000633617 0.000114045 0)
(0.000619275 0.00017467 0)
(0.000594179 0.000245 0)
(0.000553276 0.000324477 0)
(0.000489965 0.000410479 0)
(0.000396303 0.000496822 0)
(0.000264141 0.000571735 0)
(8.81155e-05 0.000615655 0)
(-0.000108516 0.000607595 0)
(-0.000275641 0.000551251 0)
(-0.000396395 0.000470961 0)
(-0.00047976 0.00038481 0)
(-0.000535194 0.000302318 0)
(-0.000570661 0.000227731 0)
(-0.000592288 0.000162389 0)
(-0.000604582 0.000106211 0)
(-0.000610763 5.84996e-05 0)
(-0.000613067 1.8326e-05 0)
(0.000822594 2.52656e-05 0)
(0.000819005 8.08043e-05 0)
(0.000809519 0.000146971 0)
(0.000790816 0.000224895 0)
(0.000758176 0.000315147 0)
(0.000705114 0.000416887 0)
(0.000623183 0.000526597 0)
(0.000502294 0.000636181 0)
(0.000332274 0.000730415 0)
(0.000106887 0.000784262 0)
(-0.000143238 0.000771593 0)
(-0.000354441 0.000698245 0)
(-0.000506296 0.000595571 0)
(-0.0006107 0.000486169 0)
(-0.000679806 0.000381685 0)
(-0.000723764 0.000287256 0)
(-0.000750389 0.000204548 0)
(-0.000765425 0.000133525 0)
(-0.000772945 7.33447e-05 0)
(-0.000775743 2.29144e-05 0)
(0.00105288 3.25825e-05 0)
(0.00104817 0.000104351 0)
(0.00103579 0.000189898 0)
(0.00101143 0.000290402 0)
(0.000968943 0.000406483 0)
(0.000899908 0.000536922 0)
(0.000793445 0.000677007 0)
(0.000636733 0.000816078 0)
(0.000417236 0.000934311 0)
(0.000128071 0.000999558 0)
(-0.000190123 0.000979521 0)
(-0.000456565 0.000883447 0)
(-0.000646844 0.000751767 0)
(-0.000776842 0.000612581 0)
(-0.000862334 0.000480112 0)
(-0.000916384 0.000360635 0)
(-0.000948977 0.000256238 0)
(-0.000967361 0.000166874 0)
(-0.000976585 9.14106e-05 0)
(-0.000980059 2.84835e-05 0)
(0.00135135 4.23893e-05 0)
(0.00134513 0.000135365 0)
(0.00132884 0.000245821 0)
(0.00129679 0.000375582 0)
(0.00124095 0.000525293 0)
(0.00115036 0.000693094 0)
(0.00101097 0.000872474 0)
(0.000806606 0.00104912 0)
(0.000522078 0.00119697 0)
(0.000150412 0.0012747 0)
(-0.000254132 0.00124285 0)
(-0.000589246 0.00111601 0)
(-0.000826429 0.000946429 0)
(-0.000987223 0.000768967 0)
(-0.00109233 0.000601055 0)
(-0.00115857 0.00045037 0)
(-0.00119854 0.000319379 0)
(-0.00122119 0.000207781 0)
(-0.00123265 0.000113864 0)
(-0.00123704 3.55278e-05 0)
(0.00173943 5.51595e-05 0)
(0.0017312 0.000176225 0)
(0.00170958 0.000319985 0)
(0.00166702 0.000488514 0)
(0.00159287 0.000682425 0)
(0.00147279 0.000898906 0)
(0.00128873 0.00112886 0)
(0.00102043 0.00135286 0)
(0.000650065 0.00153642 0)
(0.000171654 0.00162649 0)
(-0.000341945 0.00157559 0)
(-0.000761658 0.00140672 0)
(-0.00105547 0.00118759 0)
(-0.00125304 0.000961442 0)
(-0.00138163 0.000749446 0)
(-0.00146266 0.000560594 0)
(-0.00151173 0.000397324 0)
(-0.00153967 0.000258651 0)
(-0.00155389 0.000142034 0)
(-0.00155938 4.44342e-05 0)
(0.00224724 7.22655e-05 0)
(0.00223612 0.000230653 0)
(0.00220691 0.000418538 0)
(0.00214946 0.00063867 0)
(0.0020496 0.000891317 0)
(0.00188851 0.0011719 0)
(0.00164305 0.00146725 0)
(0.00128833 0.0017506 0)
(0.000804208 0.00197619 0)
(0.000187653 0.00207618 0)
(-0.000463103 0.00199476 0)
(-0.000986194 0.0017681 0)
(-0.0013477 0.00148435 0)
(-0.00158866 0.00119681 0)
(-0.00174478 0.000930548 0)
(-0.00184303 0.000695333 0)
(-0.00190253 0.000492925 0)
(-0.00193639 0.000321256 0)
(-0.00195357 0.000176798 0)
(-0.00196014 5.54463e-05 0)
(0.00291701 9.55431e-05 0)
(0.00290171 0.000304999 0)
(0.00286143 0.000553213 0)
(0.00278236 0.000843154 0)
(0.00264547 0.00117428 0)
(0.00242608 0.00153909 0)
(0.00209487 0.00191829 0)
(0.00162201 0.00227468 0)
(0.000986234 0.00254755 0)
(0.000190766 0.00265077 0)
(-0.000631765 0.00252095 0)
(-0.00128005 0.00221469 0)
(-0.00172124 0.00184686 0)
(-0.00201199 0.0014822 0)
(-0.00219883 0.00114926 0)
(-0.00231565 0.000857627 0)
(-0.00238594 0.000607704 0)
(-0.00242567 0.000395996 0)
(-0.00244565 0.000217842 0)
(-0.00245316 6.82746e-05 0)
(0.00380886 0.000127828 0)
(0.00378708 0.00040808 0)
(0.00372996 0.000739761 0)
(0.00361836 0.00112563 0)
(0.00342655 0.00156305 0)
(0.00312229 0.00203928 0)
(0.0026692 0.00252544 0)
(0.00203305 0.00296973 0)
(0.00119418 0.00329203 0)
(0.000167254 0.00338447 0)
(-0.000869008 0.00317878 0)
(-0.00166685 0.00276251 0)
(-0.00219938 0.0022849 0)
(-0.00254453 0.00182293 0)
(-0.00276302 0.00140769 0)
(-0.00289775 0.00104756 0)
(-0.00297781 0.00074078 0)
(-0.00302259 0.000481861 0)
(-0.00304492 0.000264512 0)
(-0.00305325 8.27212e-05 0)
(0.00501685 0.000174611 0)
(0.00498428 0.000556876 0)
(0.00489938 0.0010074 0)
(0.00473527 0.00152754 0)
(0.0044574 0.00210999 0)
(0.0040248 0.00273289 0)
(0.00339434 0.00335286 0)
(0.00252997 0.00389812 0)
(0.00141861 0.00426461 0)
(9.38044e-05 0.00431992 0)
(-0.00120549 0.00399668 0)
(-0.00217848 0.00342793 0)
(-0.00281182 0.00280609 0)
(-0.0032124 0.00222065 0)
(-0.00345983 0.00170394 0)
(-0.00360876 0.00126173 0)
(-0.00369532 0.000888806 0)
(-0.00374288 0.000576467 0)
(-0.00376633 0.00031567 0)
(-0.00377507 9.85308e-05 0)
(0.00669594 0.000246076 0)
(0.00664105 0.000783186 0)
(0.00650275 0.00141039 0)
(0.00624459 0.00212321 0)
(0.00582269 0.00290429 0)
(0.00518855 0.00371658 0)
(0.00429559 0.00449628 0)
(0.00311127 0.00514675 0)
(0.00163653 0.00553671 0)
(-6.70011e-05 0.00550873 0)
(-0.00168464 0.00500597 0)
(-0.00285748 0.00422579 0)
(-0.00359678 0.00341368 0)
(-0.00404837 0.00267098 0)
(-0.00431646 0.00202945 0)
(-0.00447054 0.00149018 0)
(-0.00455537 0.00104256 0)
(-0.0045991 0.000672722 0)
(-0.00461914 0.000367189 0)
(-0.00462605 0.00011445 0)
(0.0091705 0.000373904 0)
(0.00902646 0.00117458 0)
(0.0087506 0.00207669 0)
(0.00829849 0.00306485 0)
(0.00761972 0.00410671 3.75681e-34)
(0.00666219 0.00514605 -1.64236e-34)
(0.00538096 0.00609572 0)
(0.00375343 0.00683236 0)
(0.00180261 0.00719724 0)
(-0.000372204 0.00701036 0)
(-0.00236656 0.00623902 0)
(-0.00376046 0.00516731 0)
(-0.00460417 0.00410426 0)
(-0.00509493 0.00316088 0)
(-0.00536756 0.00236487 0)
(-0.00550897 0.00170974 0)
(-0.00557351 0.00117729 0)
(-0.00559449 0.000747342 0)
(-0.00559203 0.000401372 0)
(-0.00557802 0.000123613 0)
(0.0124616 0.000959959 1.72544e-21)
(0.012124 0.00209847 -2.97681e-21)
(0.0116124 0.00333253 0)
(0.0108718 0.00463802 -7.45048e-21)
(0.00984117 0.00596971 -9.81551e-21)
(0.00846005 0.00725241 -2.08556e-34)
(0.00667951 0.00837289 0)
(0.00448137 0.00917477 -1.5666e-20)
(0.00190677 0.00946143 -8.57078e-21)
(-0.000905755 0.00901698 1.56832e-20)
(-0.00343754 0.00785125 0)
(-0.00516684 0.00637545 1.65681e-20)
(-0.0061793 0.00496427 1.78763e-20)
(-0.00673938 0.00373868 1.12819e-20)
(-0.00702429 0.00272089 -1.01865e-20)
(-0.00714655 0.00189406 0)
(-0.00717553 0.00122939 6.14868e-21)
(-0.00715332 0.000697388 0)
(-0.00710504 0.000271963 1.70094e-21)
(-0.00704548 -6.87288e-05 5.1313e-22)
(0.0162801 0.00221479 8.43447e-21)
(0.0157021 0.00360678 -1.38952e-20)
(0.014903 0.00512844 -3.92691e-20)
(0.0138161 0.0067424 -4.40429e-20)
(0.0123676 0.0083843 2.50295e-20)
(0.0104841 0.00995323 7.11763e-20)
(0.00810667 0.0113019 0)
(0.00521444 0.0122291 0)
(0.0018603 0.0124814 1.38094e-20)
(-0.0017786 0.0117755 0)
(-0.00503972 0.0101303 -5.31952e-20)
(-0.00724505 0.00809949 2.34068e-20)
(-0.00850555 0.00617523 5.65252e-21)
(-0.00917096 0.00451236 -2.15243e-20)
(-0.00947688 0.00313608 0)
(-0.00957327 0.00202032 0)
(-0.00955273 0.00112403 3.57015e-20)
(-0.00947122 0.000406209 4.32954e-24)
(-0.00936197 -0.000168933 -9.3758e-21)
(-0.00924416 -0.000630924 2.83682e-21)
(0.0206255 0.0039884 -2.12517e-20)
(0.0197877 0.00567851 1.27956e-22)
(0.0186629 0.0075191 -1.68336e-20)
(0.0171733 0.00946377 -7.87797e-20)
(0.0152334 0.0114324 -1.2561e-19)
(0.0127582 0.0132995 4.9333e-20)
(0.00967909 0.0148821 9.2214e-20)
(0.00597124 0.0159295 0)
(0.00169752 0.016121 -3.60739e-20)
(-0.00292639 0.0150886 -1.11483e-19)
(-0.00707216 0.0128508 1.85338e-20)
(-0.00986377 0.0101273 1.59044e-19)
(-0.0114294 0.00755557 1.99563e-19)
(-0.0122206 0.00533654 9.79923e-20)
(-0.0125461 0.00350285 0)
(-0.0126042 0.00201926 4.19368e-20)
(-0.0125177 0.000830551 0)
(-0.0123601 -0.000118601 -2.33035e-20)
(-0.0121746 -0.000876637 -7.36548e-24)
(-0.0119855 -0.00148364 -6.66642e-21)
(0.0255246 0.00633613 2.36694e-23)
(0.0243751 0.00834911 -6.95184e-22)
(0.0228678 0.0105315 -4.26757e-20)
(0.0209114 0.0128266 0)
(0.018407 0.0151379 7.73699e-20)
(0.015256 0.0173155 1.61188e-19)
(0.0113775 0.0191401 -1.05731e-19)
(0.00673875 0.020308 0)
(0.00140686 0.0204221 -6.67511e-20)
(-0.00436926 0.0190098 -1.55598e-20)
(-0.00957799 0.0160693 -1.63403e-19)
(-0.0130938 0.0125055 0)
(-0.0150414 0.00913314 1.6541e-19)
(-0.0159886 0.00621815 2.27369e-19)
(-0.0163339 0.00380899 -9.64407e-20)
(-0.0163371 0.00186262 -1.51709e-20)
(-0.0161599 0.000307207 -4.82748e-20)
(-0.0158988 -0.000930683 -2.72952e-20)
(-0.0156097 -0.00191593 1.65078e-20)
(-0.0153233 -0.00270226 -8.49194e-21)
(0.0309401 0.00930561 3.69264e-20)
(0.0294248 0.0116531 2.73778e-20)
(0.027477 0.0141881 -3.95289e-21)
(0.0249913 0.0168432 -9.89865e-20)
(0.0218543 0.019506 -1.84223e-19)
(0.017952 0.0220028 2.3727e-19)
(0.0131876 0.0240788 -2.572e-19)
(0.00751409 0.0253754 -1.92282e-19)
(0.000992229 0.025412 -1.0502e-19)
(-0.0061086 0.0235882 -6.56937e-21)
(-0.0125835 0.0198494 -2.82828e-20)
(-0.016997 0.0152932 1.72562e-19)
(-0.0194313 0.0109477 7.58276e-21)
(-0.020581 0.00717144 1.28661e-19)
(-0.0209522 0.0040433 2.50915e-19)
(-0.0208826 0.00151687 9.11989e-20)
(-0.0205845 -0.000497969 6.94083e-20)
(-0.0201848 -0.00209682 -3.49756e-20)
(-0.0197565 -0.00336527 0)
(-0.0193392 -0.00437469 -3.02851e-20)
(0.0368021 0.012923 0)
(0.0348713 0.015604 -6.58353e-20)
(0.0324309 0.0184901 -6.33061e-20)
(0.0293613 0.0215037 8.47811e-20)
(0.0255346 0.0245181 3.05655e-21)
(0.0208197 0.0273381 1.88832e-19)
(0.0150998 0.0296758 -1.54727e-19)
(0.00830512 0.0311197 -4.13424e-19)
(0.000474902 0.0311002 8.69609e-20)
(-0.0081231 0.0288668 3.99121e-19)
(-0.0160925 0.0242627 2.56135e-19)
(-0.0216213 0.0185673 -1.10648e-19)
(-0.0246878 0.0130595 2.83589e-19)
(-0.0261136 0.0082276 1.5568e-19)
(-0.0265297 0.00420527 -1.62014e-19)
(-0.0263716 0.000952082 0)
(-0.0259176 -0.00164 2.51728e-19)
(-0.025336 -0.0036924 1.04222e-19)
(-0.0247232 -0.00531592 -4.36741e-20)
(-0.024132 -0.00660354 -2.63464e-20)
(0.0430198 0.0171898 2.4467e-20)
(0.0406311 0.020191 3.78838e-20)
(0.0376558 0.0234144 1.0247e-20)
(0.0339601 0.0267739 -9.82359e-20)
(0.0294017 0.030131 -1.29015e-19)
(0.0238314 0.0332731 2.3397e-19)
(0.0171083 0.0358842 -1.22464e-22)
(0.00912978 0.0375048 -2.24362e-19)
(-0.000106513 0.0374765 -3.49826e-19)
(-0.0103663 0.034879 -7.46285e-20)
(-0.0200804 0.0293882 2.47837e-19)
(-0.0269949 0.0224267 4.93888e-19)
(-0.030895 0.0155557 -3.44916e-19)
(-0.0327126 0.00944177 -1.86074e-19)
(-0.0332159 0.00430985 2.08007e-19)
(-0.0329605 0.000144093 0)
(-0.0323122 -0.00317669 1.05506e-19)
(-0.0314959 -0.00580196 -4.22535e-20)
(-0.0306421 -0.00787268 -1.81923e-19)
(-0.0298224 -0.0095086 -7.64089e-20)
(0.0494882 0.0220817 -1.2705e-22)
(0.0466094 0.0253785 4.83264e-20)
(0.0430691 0.0289145 2.49475e-19)
(0.0387199 0.032597 -3.31767e-19)
(0.0334059 0.0362795 1.6166e-19)
(0.0269591 0.039737 -7.13041e-21)
(0.0192106 0.0426334 2.25461e-19)
(0.0100139 0.0444709 -9.87031e-20)
(-0.00069823 0.0445083 -2.66706e-19)
(-0.0127667 0.0416439 1.14666e-18)
(-0.0244893 0.0353101 1.46853e-18)
(-0.033118 0.0269961 1.12803e-18)
(-0.0381275 0.0185611 0)
(-0.0405154 0.0109053 -8.24277e-19)
(-0.041187 0.00439856 2.53519e-19)
(-0.0408415 -0.000917821 1.25511e-19)
(-0.0399602 -0.00516496 9.23383e-23)
(-0.0388471 -0.00851962 -1.74498e-19)
(-0.0376817 -0.011158 -2.08447e-19)
(-0.0365634 -0.0132336 -9.08055e-20)
(0.056096 0.027551 -3.11763e-20)
(0.0527066 0.0311091 -4.78063e-20)
(0.0485848 0.0349234 8.40153e-20)
(0.0435707 0.0388971 2.06408e-21)
(0.0374962 0.0428796 -1.71995e-19)
(0.0301747 0.0466405 7.55123e-21)
(0.0214056 0.0498337 -2.56052e-19)
(0.0109875 0.0519363 -2.7757e-19)
(-0.00123536 0.052139 -5.09255e-19)
(-0.0152294 0.0491605 -1.67711e-19)
(-0.0292244 0.0421108 0)
(-0.0399527 0.0324262 6.34586e-19)
(-0.04644 0.0222462 5.41274e-19)
(-0.0496667 0.0127596 -4.38152e-19)
(-0.0506508 0.00455287 -2.50864e-20)
(-0.0502541 -0.00222115 -4.25148e-21)
(-0.0491074 -0.00765611 1.66485e-19)
(-0.0476261 -0.0119492 3.36589e-19)
(-0.0460608 -0.0153165 0)
(-0.0445527 -0.0179541 0)
(0.0627325 0.0335304 1.3184e-19)
(0.058824 0.0373079 0)
(0.054118 0.0413589 9.28415e-20)
(0.0484437 0.0455847 3.54289e-19)
(0.0416226 0.0498352 -1.7803e-19)
(0.0334502 0.0538823 -1.05138e-19)
(0.0236913 0.0573813 3.5671e-19)
(0.0120811 0.0598013 4.90176e-19)
(-0.00164745 0.0602877 1.0694e-18)
(-0.0176412 0.0574015 7.83127e-19)
(-0.0341517 0.0498622 8.29116e-19)
(-0.0474106 0.0388906 -1.48554e-18)
(-0.0558524 0.0268375 -1.34197e-18)
(-0.0603114 0.0152152 -5.52137e-19)
(-0.061852 0.00491545 -8.03407e-19)
(-0.0615006 -0.0037137 -3.16709e-19)
(-0.0600755 -0.0106877 2.05531e-19)
(-0.0581466 -0.0162054 5.58092e-19)
(-0.0560698 -0.0205234 1.81388e-19)
(-0.0540504 -0.0238913 -7.85764e-20)
(0.0692938 0.039938 9.04977e-21)
(0.0648694 0.0438881 0)
(0.0595897 0.0481293 0)
(0.0532747 0.0525627 -2.4825e-19)
(0.045738 0.0570441 4.58101e-19)
(0.0367576 0.061355 4.23142e-19)
(0.0260632 0.0651644 7.19516e-19)
(0.0133214 0.0679527 0)
(-0.0018649 0.0688515 7.85861e-19)
(-0.0198778 0.0663076 -7.76725e-19)
(-0.0391007 0.058611 6.78648e-20)
(-0.0553407 0.0465754 1.08721e-19)
(-0.0663266 0.0326229 8.26235e-19)
(-0.0725769 0.0185758 -8.02406e-20)
(-0.0750722 0.00572117 -4.51604e-19)
(-0.0749645 -0.00527839 -4.84179e-19)
(-0.0732909 -0.014271 2.48319e-19)
(-0.070832 -0.021414 6.94028e-19)
(-0.068102 -0.0269968 3.30613e-19)
(-0.0654076 -0.0313312 -9.45533e-20)
(0.0756874 0.0466828 -1.53868e-19)
(0.0707611 0.0507565 -3.10308e-20)
(0.0649297 0.0551386 -1.08719e-19)
(0.0580065 0.0597324 2.66006e-21)
(0.0497986 0.0644039 3.26119e-19)
(0.0400686 0.0689518 1.69853e-18)
(0.0285126 0.0730699 0)
(0.0147278 0.0762705 -4.10459e-19)
(-0.00182585 0.0777093 -4.75667e-19)
(-0.0218139 0.0757844 9.95579e-19)
(-0.0438704 0.0683634 -1.13796e-19)
(-0.0635194 0.0556604 5.52448e-19)
(-0.077739 0.0399508 0)
(-0.0865434 0.0232661 -9.15197e-19)
(-0.090621 0.00734351 -1.04804e-18)
(-0.091132 -0.00668892 0)
(-0.0893301 -0.0183645 3.83386e-19)
(-0.0862733 -0.0277093 5.56676e-19)
(-0.0827121 -0.0350142 -1.54881e-19)
(-0.0791178 -0.0406579 4.09701e-20)
(0.0818356 0.0536707 -1.07508e-20)
(0.0764304 0.0578187 -1.98032e-19)
(0.0700791 0.0622922 0)
(0.0625899 0.0669983 -2.474e-21)
(0.0537653 0.0718175 0)
(0.0433553 0.0765713 1.04367e-18)
(0.0310267 0.080989 0)
(0.0163101 0.0846346 0)
(-0.00148238 0.0867284 5.20901e-19)
(-0.0233336 0.0857028 1.78358e-18)
(-0.0482419 0.0790689 -1.96033e-19)
(-0.071648 0.0662888 -6.49876e-19)
(-0.0898462 0.0492136 -2.05857e-18)
(-0.102193 0.0298567 -1.0821e-18)
(-0.108806 0.0103607 -9.20086e-19)
(-0.11061 -0.00753274 6.95264e-19)
(-0.108986 -0.0228189 4.98244e-19)
(-0.105321 -0.035217 0)
(-0.100712 -0.0449349 -5.58606e-19)
(-0.0959016 -0.0524063 -5.48234e-20)
(0.0876771 0.0608092 1.13123e-20)
(0.0818232 0.0649841 -1.45093e-19)
(0.0749911 0.069501 0)
(0.0669846 0.0742726 -2.41179e-19)
(0.057604 0.0791967 1.22276e-19)
(0.0465908 0.0841223 0)
(0.0335883 0.0888224 -1.96315e-19)
(0.0180666 0.0929308 -7.12754e-19)
(-0.000805137 0.0957716 4.37771e-22)
(-0.0243409 0.0959047 6.51723e-19)
(-0.0519953 0.0906089 0)
(-0.0793606 0.0785292 -7.04809e-19)
(-0.102253 0.0608071 -3.08173e-18)
(-0.119336 0.0390755 -6.71827e-19)
(-0.129863 0.0156443 8.64754e-19)
(-0.134124 -0.00707885 0)
(-0.133357 -0.0272662 1.11393e-18)
(-0.129235 -0.0440105 -2.00124e-20)
(-0.123338 -0.0572319 6.65845e-21)
(-0.116854 -0.0673541 2.5678e-22)
(0.0931674 0.068011 0)
(0.0869002 0.0721689 0)
(0.0796307 0.0766845 3.77211e-19)
(0.0711591 0.0814776 0)
(0.0612864 0.0864648 0)
(0.0497504 0.0915258 -1.27665e-18)
(0.0361768 0.096484 -2.06586e-19)
(0.0199846 0.101057 -5.02803e-19)
(0.000214732 0.104706 -3.00474e-19)
(-0.0247687 0.106212 0)
(-0.0549301 0.102794 8.04676e-19)
(-0.0862462 0.0923336 2.02769e-19)
(-0.114394 0.0750579 -2.45345e-18)
(-0.137509 0.0517781 -8.28996e-19)
(-0.153816 0.0244607 -7.33549e-19)
(-0.162458 -0.0040547 3.53443e-19)
(-0.163945 -0.0308877 -1.9719e-18)
(-0.15994 -0.0539898 -2.34964e-18)
(-0.152566 -0.0725285 -3.35907e-19)
(-0.143736 -0.0866913 2.90929e-19)
(0.0982777 0.0751974 0)
(0.0916357 0.0792989 -3.74924e-20)
(0.0839742 0.0837731 7.42754e-19)
(0.0750909 0.0885473 0)
(0.0647904 0.0935577 0)
(0.0528116 0.0987172 1.57218e-20)
(0.0387685 0.103903 0)
(0.0220417 0.108925 0)
(0.00156622 0.113411 -1.8292e-18)
(-0.0245836 0.116442 -7.58238e-19)
(-0.0568861 0.115371 -1.93535e-18)
(-0.091888 0.107503 0)
(-0.125543 0.0921155 3.83135e-19)
(-0.155872 0.0688362 -2.02488e-18)
(-0.180235 0.0385331 8.13633e-19)
(-0.196226 0.00370164 1.1214e-18)
(-0.202712 -0.0319215 -1.92065e-18)
(-0.200443 -0.0645433 -7.03856e-19)
(-0.191758 -0.0916089 2.42134e-19)
(-0.179599 -0.112365 3.67387e-19)
(0.102993 0.0822997 0)
(0.0960161 0.0863107 4.45431e-19)
(0.088008 0.0907086 4.30239e-19)
(0.0787656 0.0954278 -7.30497e-19)
(0.0681003 0.100425 -6.54788e-19)
(0.0557552 0.105646 2.7801e-18)
(0.0413391 0.111024 -2.22467e-19)
(0.0242088 0.116468 2.4397e-18)
(0.00322121 0.121785 -1.99936e-18)
(-0.0237882 0.126419 3.04496e-18)
(-0.0577622 0.128048 -4.61875e-19)
(-0.0959144 0.123676 1.0857e-18)
(-0.134871 0.11183 1.30794e-18)
(-0.173138 0.0908976 -1.20679e-18)
(-0.207886 0.0599379 1.89701e-18)
(-0.235345 0.0196795 1.24281e-18)
(-0.251857 -0.0266437 8.83888e-19)
(-0.255458 -0.0735648 6.36044e-19)
(-0.247066 -0.11523 9.28783e-19)
(-0.230318 -0.147852 3.57976e-19)
(0.10731 0.08926 -2.48113e-19)
(0.100038 0.0931523 4.90328e-19)
(0.0917275 0.0974443 -4.23158e-19)
(0.0821766 0.102077 -1.75882e-18)
(0.0712059 0.107027 -9.75859e-19)
(0.058565 0.112275 3.15901e-18)
(0.0438646 0.117808 2.28501e-19)
(0.026453 0.123632 5.25765e-18)
(0.00513838 0.129746 -1.93541e-18)
(-0.0224181 0.135989 4.25973e-18)
(-0.0575272 0.140521 5.07882e-19)
(-0.098055 0.140353 0)
(-0.141556 0.133656 0)
(-0.187617 0.118013 -2.59067e-18)
(-0.234355 0.0906025 3.53505e-19)
(-0.277984 0.0489168 2.69377e-20)
(-0.312701 -0.00748109 -1.76445e-18)
(-0.331821 -0.0745534 0)
(-0.330515 -0.142791 6.15004e-19)
(-0.309057 -0.200185 4.40422e-19)
(0.111236 0.0960307 -2.67214e-19)
(0.103707 0.099782 -1.98179e-20)
(0.0951357 0.103944 -4.80613e-19)
(0.085324 0.108465 -8.73466e-19)
(0.0741022 0.113339 -2.29826e-22)
(0.0612286 0.11858 3.25904e-18)
(0.0463236 0.124229 0)
(0.0287404 0.130386 3.10364e-18)
(0.00726773 0.137238 -4.60232e-18)
(-0.0205366 0.145032 0)
(-0.056222 0.152509 0)
(-0.0981866 0.156958 -6.38089e-19)
(-0.144942 0.156653 -2.21542e-18)
(-0.197453 0.149232 -1.66384e-18)
(-0.255901 0.131146 1.74186e-18)
(-0.318986 0.0969817 -3.33794e-20)
(-0.382299 0.0393793 -9.03871e-20)
(-0.436307 -0.0483333 3.24768e-19)
(-0.465707 -0.164371 1.62431e-18)
(-0.452321 -0.286357 -9.2414e-19)
(0.114782 0.102573 -2.66709e-19)
(0.107035 0.106169 0)
(0.0982418 0.110183 0)
(0.0882123 0.11457 -5.28949e-20)
(0.0767876 0.119344 -7.2018e-20)
(0.0637368 0.124548 3.53567e-18)
(0.0486967 0.130274 1.78084e-18)
(0.0310369 0.136714 2.90794e-18)
(0.00955313 0.14423 -3.13094e-19)
(-0.0182284 0.153465 4.49698e-19)
(-0.0539529 0.163784 -3.0951e-22)
(-0.0963571 0.172933 -1.61284e-18)
(-0.144708 0.179624 -8.10963e-19)
(-0.201109 0.182438 -9.32419e-19)
(-0.268009 0.179199 0)
(-0.348601 0.165682 3.62391e-18)
(-0.446322 0.132084 2.67703e-18)
(-0.561871 0.0554167 1.35719e-18)
(-0.686241 -0.112702 6.63704e-18)
(-0.79079 -0.458291 -2.60072e-18)
(0.117961 0.108883 2.97992e-22)
(0.110037 0.112332 5.63456e-19)
(0.101057 0.116203 -5.28031e-19)
(0.0908518 0.120459 -5.32248e-20)
(0.0792689 0.125134 0)
(0.0660919 0.130301 1.85011e-18)
(0.050979 0.136101 1.85783e-18)
(0.0333246 0.142812 6.61879e-18)
(0.011956 0.150969 2.89233e-18)
(-0.0155652 0.161607 4.60108e-19)
(-0.0508161 0.174715 5.74373e-19)
(-0.092649 0.188593 -1.29095e-18)
(-0.140769 0.202577 3.55238e-19)
(-0.197681 0.21664 1.01699e-18)
(-0.266696 0.23153 -7.65906e-19)
(-0.353559 0.249898 0)
(-0.469829 0.278982 0)
(-0.639303 0.336422 -4.65464e-18)
(-0.907686 0.459784 -6.45251e-18)
(-1.35149 0.71671 8.873e-18)
(0.12081 0.114926 2.88705e-19)
(0.11275 0.118245 5.83988e-19)
(0.103627 0.121982 1.53635e-21)
(0.0932894 0.126117 -1.11708e-18)
(0.0815972 0.130702 -7.35766e-20)
(0.0683505 0.135837 -2.05104e-18)
(0.0532337 0.141707 0)
(0.0356763 0.148676 3.41314e-18)
(0.0145653 0.157441 0)
(-0.0124301 0.169408 5.67563e-18)
(-0.0466773 0.185198 5.87818e-19)
(-0.0869169 0.203687 7.28515e-19)
(-0.132901 0.224733 1.3336e-18)
(-0.186589 0.249365 2.15376e-18)
(-0.249654 0.279939 2.45009e-18)
(-0.323186 0.321102 0)
(-0.405984 0.380467 0)
(-0.489696 0.467677 0)
(-0.550009 0.590046 -1.43618e-19)
(-0.536691 0.744116 1.17843e-19)
(0.123345 0.120695 0)
(0.115185 0.123898 0)
(0.105951 0.12751 5.67985e-19)
(0.0955182 0.131532 -1.09989e-18)
(0.0837562 0.136032 -1.06575e-18)
(0.0704859 0.141134 -2.02618e-18)