/*--------------------------------*- C++ -*----------------------------------*\
| =========                 |                                                 |
| \\      /  F ield         | OpenFOAM: The Open Source CFD Toolbox           |
|  \\    /   O peration     | Version:  2312                                  |
|   \\  /    A nd           | Website:  www.openfoam.com                      |
|    \\/     M anipulation  |                                                 |
\*---------------------------------------------------------------------------*/
FoamFile
{
    version     2.0;
    format      ascii;
    arch        "LSB;label=32;scalar=64";
    class       volVectorField;
    location    "0";
    object      U;
}
// * * * * * * * * * * * * * * * * * * * * * * * * * * * * * * * * * * * * * //

dimensions      [0 1 -1 0 0 0 0];

internalField   nonuniform List<vector> 
9000
(
(-0.000111622 0.000114285 0)
(-0.000495967 3.59358e-05 0)
(-0.000200059 -2.40453e-05 0)
(0.000576362 -8.19058e-05 0)
(0.00178484 -0.00012282 0)
(0.00331417 -0.000150203 0)
(0.00505833 -0.000166174 0)
(0.00692274 -0.000172889 0)
(0.00882712 -0.000172318 0)
(0.0107063 -0.000166225 0)
(0.0125099 -0.000156154 0)
(0.0142011 -0.000143434 0)
(0.0157554 -0.000129176 0)
(0.0171583 -0.000114276 0)
(0.0184041 -9.94297e-05 0)
(0.0194936 -8.51539e-05 0)
(0.0204327 -7.18063e-05 0)
(0.0212307 -5.96127e-05 0)
(0.0218994 -4.86923e-05 0)
(0.0224516 -3.90813e-05 0)
(0.0229006 -3.07546e-05 0)
(0.0232596 -2.36443e-05 0)
(0.0235411 -1.76548e-05 0)
(0.0237567 -1.26749e-05 0)
(0.0239171 -8.58702e-06 0)
(0.0240317 -5.2744e-06 0)
(0.0241088 -2.6257e-06 0)
(0.0241556 -5.38364e-07 0)
(0.0241786 1.07933e-06 0)
(0.0241829 2.30712e-06 0)
(0.0241732 3.21223e-06 0)
(0.0241535 3.84912e-06 0)
(0.0241273 4.25941e-06 0)
(0.0240978 4.47178e-06 0)
(0.0240682 4.50144e-06 0)
(0.0240416 4.34917e-06 0)
(0.0240216 3.99929e-06 0)
(0.0240124 3.41599e-06 0)
(0.0240192 2.53645e-06 0)
(0.0240493 1.25725e-06 0)
(0.0241124 -5.95143e-07 0)
(0.0242229 -3.33719e-06 0)
(0.0244032 -7.63299e-06 0)
(0.0246898 -1.50928e-05 0)
(0.0251485 -3.01287e-05 0)
(0.025914 -6.76256e-05 0)
(0.0272843 -0.000185189 0)
(0.0298663 -0.000520799 0)
(0.0367676 -0.00213061 0)
(0.054033 -0.0154771 0)
(0.000689448 0.000338448 0)
(0.00044384 -7.82425e-05 0)
(0.00165523 -0.000689481 0)
(0.00400765 -0.00126386 0)
(0.00741016 -0.00172411 0)
(0.0116245 -0.00205563 0)
(0.0163995 -0.00226455 0)
(0.0214991 -0.00236543 0)
(0.0267161 -0.00237588 0)
(0.0318786 -0.00231412 0)
(0.0368506 -0.00219767 0)
(0.041531 -0.00204252 0)
(0.0458503 -0.00186267 0)
(0.0497667 -0.0016699 0)
(0.0532609 -0.00147372 0)
(0.0563323 -0.00128148 0)
(0.0589939 -0.00109856 0)
(0.0612689 -0.000928639 0)
(0.0631871 -0.000773953 0)
(0.0647822 -0.000635596 0)
(0.0660895 -0.000513767 0)
(0.0671442 -0.000408012 0)
(0.0679802 -0.000317422 0)
(0.0686293 -0.0002408 0)
(0.0691207 -0.000176793 0)
(0.0694806 -0.000123996 0)
(0.0697323 -8.10291e-05 0)
(0.0698962 -4.65946e-05 0)
(0.0699902 -1.95158e-05 0)
(0.0700297 1.23427e-06 0)
(0.0700281 1.65134e-05 0)
(0.0699972 2.69941e-05 0)
(0.0699477 3.31483e-05 0)
(0.0698895 3.5227e-05 0)
(0.0698322 3.32307e-05 0)
(0.0697861 2.68617e-05 0)
(0.0697626 1.54467e-05 0)
(0.0697753 -2.19289e-06 0)
(0.0698417 -2.79627e-05 0)
(0.0699851 -6.48875e-05 0)
(0.0702379 -0.000117843 0)
(0.0706474 -0.000195009 0)
(0.0712854 -0.000310969 0)
(0.0722662 -0.000493851 0)
(0.0737835 -0.00080303 0)
(0.0761864 -0.00137676 0)
(0.080137 -0.00256887 0)
(0.0868665 -0.00531734 0)
(0.0998222 -0.0122675 0)
(0.12354 -0.0338267 0)
(0.00267554 0.000339047 0)
(0.00300261 -0.000701053 0)
(0.00534258 -0.00218792 0)
(0.00929671 -0.00361446 0)
(0.0147432 -0.00478846 0)
(0.0213653 -0.00565253 0)
(0.0288124 -0.00620824 0)
(0.0367441 -0.00648434 0)
(0.0448555 -0.00652169 0)
(0.0528889 -0.00636543 0)
(0.0606383 -0.00606044 0)
(0.0679484 -0.0056486 0)
(0.074711 -0.0051671 0)
(0.0808592 -0.00464764 0)
(0.086361 -0.00411607 0)
(0.0912126 -0.00359261 0)
(0.0954316 -0.00309226 0)
(0.0990516 -0.00262544 0)
(0.102117 -0.00219869 0)
(0.104677 -0.0018154 0)
(0.106787 -0.0014765 0)
(0.1085 -0.00118109 0)
(0.109867 -0.000926986 0)
(0.110938 -0.000711153 0)
(0.111758 -0.000530088 0)
(0.112368 -0.000380103 0)
(0.112805 -0.000257542 0)
(0.113101 -0.000158944 0)
(0.113283 -8.11607e-05 0)
(0.113378 -2.14413e-05 0)
(0.113406 2.25034e-05 0)
(0.113387 5.24492e-05 0)
(0.113338 6.96036e-05 0)
(0.113276 7.4539e-05 0)
(0.113217 6.70937e-05 0)
(0.113179 4.6219e-05 0)
(0.113181 9.73282e-06 0)
(0.113247 -4.60842e-05 0)
(0.113405 -0.000127167 0)
(0.113697 -0.000242842 0)
(0.114177 -0.000407943 0)
(0.114922 -0.000646795 0)
(0.11605 -0.00100111 0)
(0.117739 -0.00154645 0)
(0.120273 -0.00242819 0)
(0.124122 -0.003944 0)
(0.130068 -0.00673786 0)
(0.139325 -0.0122375 0)
(0.15409 -0.0235915 0)
(0.175599 -0.0485395 0)
(0.00589814 7.38621e-05 0)
(0.00696695 -0.00192975 0)
(0.0105422 -0.00457878 0)
(0.0161098 -0.00711909 0)
(0.0234949 -0.00923253 0)
(0.0323201 -0.010805 0)
(0.0421612 -0.0118262 0)
(0.0525999 -0.012339 0)
(0.0632562 -0.0124121 0)
(0.0738056 -0.0121251 0)
(0.0839862 -0.011559 0)
(0.0935991 -0.0107906 0)
(0.102504 -0.00988862 0)
(0.110614 -0.00891232 0)
(0.117886 -0.0079103 0)
(0.124313 -0.0069208 0)
(0.129917 -0.00597246 0)
(0.134739 -0.00508534 0)
(0.138835 -0.00427225 0)
(0.14227 -0.00354005 0)
(0.145111 -0.00289095 0)
(0.147429 -0.00232365 0)
(0.14929 -0.00183433 0)
(0.150759 -0.00141757 0)
(0.151894 -0.00106697 0)
(0.152749 -0.00077575 0)
(0.153371 -0.000537144 0)
(0.153805 -0.000344719 0)
(0.154086 -0.000192614 0)
(0.154249 -7.57048e-05 0)
(0.154322 1.02597e-05 0)
(0.154332 6.85503e-05 0)
(0.154302 0.000101341 0)
(0.154256 0.000109567 0)
(0.154216 9.27197e-05 0)
(0.154206 4.85353e-05 0)
(0.154254 -2.74984e-05 0)
(0.154393 -0.000142938 0)
(0.154663 -0.000309698 0)
(0.15512 -0.000546269 0)
(0.155835 -0.000881582 0)
(0.156913 -0.00136197 0)
(0.1585 -0.00206411 0)
(0.160815 -0.00312004 0)
(0.164179 -0.00476632 0)
(0.169075 -0.00744262 0)
(0.176199 -0.0119862 0)
(0.186405 -0.0199842 0)
(0.200582 -0.034234 0)
(0.21796 -0.0593977 0)
(0.0103625 -0.00048228 0)
(0.0122237 -0.00381262 0)
(0.0170695 -0.00786949 0)
(0.0242373 -0.0117184 0)
(0.0334721 -0.0149287 0)
(0.0443371 -0.0173282 0)
(0.0563472 -0.0188923 0)
(0.0690229 -0.0196776 0)
(0.0819262 -0.0197836 0)
(0.094681 -0.0193294 0)
(0.106982 -0.0184382 0)
(0.118598 -0.0172284 0)
(0.129363 -0.0158069 0)
(0.139176 -0.0142659 0)
(0.147985 -0.0126819 0)
(0.155782 -0.0111151 0)
(0.162592 -0.00961091 0)
(0.168465 -0.00820135 0)
(0.173466 -0.00690707 0)
(0.177672 -0.00573938 0)
(0.181163 -0.00470221 0)
(0.184022 -0.00379391 0)
(0.186328 -0.00300886 0)
(0.188159 -0.00233881 0)
(0.189585 -0.00177392 0)
(0.190669 -0.0013037 0)
(0.19147 -0.000917632 0)
(0.19204 -0.000605702 0)
(0.192423 -0.000358763 0)
(0.192661 -0.000168827 0)
(0.192789 -2.92775e-05 0)
(0.19284 6.49384e-05 0)
(0.192842 0.000117116 0)
(0.192826 0.000128554 0)
(0.192819 9.82151e-05 0)
(0.192852 2.222e-05 0)
(0.19296 -0.00010694 0)
(0.193182 -0.000301653 0)
(0.193569 -0.0005812 0)
(0.194188 -0.000975067 0)
(0.195125 -0.00152851 0)
(0.196498 -0.0023121 0)
(0.198471 -0.00343854 0)
(0.20127 -0.00509248 0)
(0.205207 -0.00758384 0)
(0.2107 -0.0114411 0)
(0.218253 -0.017564 0)
(0.228292 -0.0274298 0)
(0.240788 -0.0431566 0)
(0.254124 -0.0671578 0)
(0.016068 -0.00132968 0)
(0.0187142 -0.00635559 0)
(0.024819 -0.0120539 0)
(0.0335497 -0.0173754 0)
(0.0445487 -0.0218008 0)
(0.0573137 -0.0251082 0)
(0.0713026 -0.0272611 0)
(0.0859842 -0.0283319 0)
(0.100875 -0.0284541 0)
(0.115558 -0.0277903 0)
(0.129698 -0.0265115 0)
(0.143038 -0.0247824 0)
(0.155396 -0.0227531 0)
(0.166662 -0.0205535 0)
(0.176779 -0.0182915 0)
(0.18574 -0.0160525 0)
(0.193576 -0.013901 0)
(0.200343 -0.0118827 0)
(0.206116 -0.0100272 0)
(0.21098 -0.0083511 0)
(0.215029 -0.00686021 0)
(0.218355 -0.0055526 0)
(0.221049 -0.00442064 0)
(0.223198 -0.00345289 0)
(0.224881 -0.00263564 0)
(0.226172 -0.00195419 0)
(0.227137 -0.00139377 0)
(0.227835 -0.0009403 0)
(0.228318 -0.000580895 0)
(0.228632 -0.000304318 0)
(0.22882 -0.00010128 0)
(0.228918 3.52714e-05 0)
(0.228961 0.000109869 0)
(0.228984 0.000124169 0)
(0.229019 7.64704e-05 0)
(0.229103 -3.90069e-05 0)
(0.229274 -0.000233212 0)
(0.229581 -0.00052396 0)
(0.230081 -0.000938606 0)
(0.230846 -0.0015183 0)
(0.231971 -0.00232489 0)
(0.23358 -0.00345214 0)
(0.235835 -0.00504435 0)
(0.23895 -0.0073268 0)
(0.243191 -0.0106547 0)
(0.24887 -0.0155871 0)
(0.256278 -0.0229822 0)
(0.265479 -0.0340688 0)
(0.275919 -0.050284 0)
(0.285813 -0.0726227 0)
(0.0230142 -0.00245477 0)
(0.0264103 -0.00954032 0)
(0.0337334 -0.017109 0)
(0.0439712 -0.0240501 0)
(0.0566471 -0.0297833 0)
(0.0711852 -0.0340515 0)
(0.0869848 -0.0368133 0)
(0.103468 -0.0381618 0)
(0.120113 -0.0382687 0)
(0.136475 -0.037345 0)
(0.152192 -0.0356135 0)
(0.166995 -0.0332901 0)
(0.180692 -0.0305718 0)
(0.193168 -0.0276297 0)
(0.204368 -0.024606 0)
(0.214289 -0.0216134 0)
(0.222968 -0.0187372 0)
(0.230467 -0.0160379 0)
(0.236871 -0.0135549 0)
(0.242277 -0.0113099 0)
(0.246784 -0.00931124 0)
(0.250496 -0.00755639 0)
(0.253512 -0.00603548 0)
(0.255927 -0.00473355 0)
(0.257828 -0.00363265 0)
(0.259296 -0.00271345 0)
(0.260404 -0.00195652 0)
(0.261216 -0.00134331 0)
(0.26179 -0.000856876 0)
(0.262177 -0.000482427 0)
(0.262424 -0.000207764 0)
(0.262572 -2.36644e-05 0)
(0.26266 7.57341e-05 0)
(0.262726 9.24635e-05 0)
(0.262807 2.40931e-05 0)
(0.262943 -0.000137189 0)
(0.263179 -0.000405949 0)
(0.263564 -0.000805588 0)
(0.264161 -0.00137154 0)
(0.265045 -0.00215617 0)
(0.266313 -0.00323646 0)
(0.268084 -0.00472581 0)
(0.270507 -0.00679234 0)
(0.273766 -0.00968639 0)
(0.278065 -0.0137797 0)
(0.283599 -0.0196142 0)
(0.290468 -0.0279439 0)
(0.298481 -0.0397114 0)
(0.306851 -0.055794 0)
(0.313938 -0.0763619 0)
(0.0312015 -0.00383849 0)
(0.0353012 -0.0133362 0)
(0.043786 -0.022999 0)
(0.055463 -0.0316953 0)
(0.0697261 -0.0388109 0)
(0.0859167 -0.0440707 0)
(0.103373 -0.0474393 0)
(0.121471 -0.0490383 0)
(0.139657 -0.0490838 0)
(0.157462 -0.0478402 0)
(0.174512 -0.0455869 0)
(0.190529 -0.0425947 0)
(0.205319 -0.0391111 0)
(0.21877 -0.0353508 0)
(0.230832 -0.0314922 0)
(0.241508 -0.0276768 0)
(0.250844 -0.0240115 0)
(0.258912 -0.0205721 0)
(0.265805 -0.0174079 0)
(0.271627 -0.0145461 0)
(0.276488 -0.011997 0)
(0.280499 -0.00975731 0)
(0.283765 -0.00781468 0)
(0.286389 -0.00615025 0)
(0.288463 -0.00474144 0)
(0.290073 -0.00356393 0)
(0.291298 -0.00259332 0)
(0.292205 -0.0018063 0)
(0.292858 -0.00118158 0)
(0.29331 -0.000700585 0)
(0.293612 -0.000348043 0)
(0.293808 -0.000112425 0)
(0.293941 1.3548e-05 0)
(0.29405 3.23334e-05 0)
(0.294177 -5.92021e-05 0)
(0.294363 -0.000270871 0)
(0.294655 -0.000620759 0)
(0.295106 -0.00113759 0)
(0.295778 -0.00186423 0)
(0.296748 -0.00286293 0)
(0.298105 -0.00422308 0)
(0.299959 -0.00607259 0)
(0.302439 -0.00859423 0)
(0.305685 -0.0120478 0)
(0.309836 -0.0167972 0)
(0.314979 -0.0233354 0)
(0.321066 -0.0322845 0)
(0.327753 -0.044319 0)
(0.334198 -0.0599008 0)
(0.339016 -0.078756 0)
(0.0406311 -0.00546078 0)
(0.0453858 -0.0177078 0)
(0.0549696 -0.0296821 0)
(0.0680115 -0.0402601 0)
(0.0837698 -0.0488182 0)
(0.101496 -0.0550819 0)
(0.120461 -0.059036 0)
(0.139998 -0.0608406 0)
(0.159523 -0.0607639 0)
(0.178549 -0.0591303 0)
(0.196697 -0.0562806 0)
(0.213686 -0.0525445 0)
(0.229331 -0.0482225 0)
(0.243525 -0.0435749 0)
(0.256229 -0.0388174 0)
(0.267457 -0.034121 0)
(0.277265 -0.0296142 0)
(0.285736 -0.0253881 0)
(0.292971 -0.0215015 0)
(0.299083 -0.0179869 0)
(0.30419 -0.0148558 0)
(0.308407 -0.0121041 0)
(0.311848 -0.0097163 0)
(0.314618 -0.00766925 0)
(0.316815 -0.00593539 0)
(0.318529 -0.00448516 0)
(0.31984 -0.00328887 0)
(0.320821 -0.00231821 0)
(0.321536 -0.00154736 0)
(0.322042 -0.00095382 0)
(0.322391 -0.000519093 0)
(0.322631 -0.000229244 0)
(0.322804 -7.54878e-05 0)
(0.322954 -5.48548e-05 0)
(0.323121 -0.000171063 0)
(0.32335 -0.000435734 0)
(0.323688 -0.000870132 0)
(0.324188 -0.00150767 0)
(0.324911 -0.00239752 0)
(0.325927 -0.0036098 0)
(0.327319 -0.00524289 0)
(0.32918 -0.00743353 0)
(0.331612 -0.01037 0)
(0.334714 -0.0143082 0)
(0.338558 -0.0195866 0)
(0.343144 -0.0266316 0)
(0.34832 -0.0359301 0)
(0.353669 -0.0479309 0)
(0.358389 -0.0628075 0)
(0.361362 -0.0800728 0)
(0.0513044 -0.00730283 0)
(0.0566687 -0.0226195 0)
(0.0672887 -0.0371144 0)
(0.0816199 -0.0496918 0)
(0.0987807 -0.0597398 0)
(0.117926 -0.0670039 0)
(0.138258 -0.0715044 0)
(0.159062 -0.0734525 0)
(0.179728 -0.0731788 0)
(0.199759 -0.0710747 0)
(0.218774 -0.067548 0)
(0.236501 -0.0629912 0)
(0.252764 -0.0577601 0)
(0.267472 -0.0521618 0)
(0.2806 -0.04645 0)
(0.292178 -0.0408244 0)
(0.302273 -0.0354352 0)
(0.310979 -0.0303877 0)
(0.318408 -0.0257496 0)
(0.324682 -0.0215577 0)
(0.329923 -0.0178243 0)
(0.334254 -0.0145435 0)
(0.33779 -0.0116962 0)
(0.340642 -0.00925455 0)
(0.34291 -0.0071857 0)
(0.344685 -0.00545448 0)
(0.34605 -0.00402571 0)
(0.347079 -0.0028659 0)
(0.347837 -0.00194458 0)
(0.348382 -0.00123519 0)
(0.348769 -0.000715942 0)
(0.349043 -0.000370404 0)
(0.349251 -0.000188194 0)
(0.349434 -0.000165701 0)
(0.349636 -0.000307029 0)
(0.349899 -0.000625285 0)
(0.350269 -0.00114437 0)
(0.350799 -0.00190148 0)
(0.351543 -0.00295063 0)
(0.352567 -0.00436746 0)
(0.353941 -0.00625567 0)
(0.355739 -0.00875524 0)
(0.358036 -0.0120522 0)
(0.360887 -0.016388 0)
(0.364311 -0.022065 0)
(0.368238 -0.0294365 0)
(0.372455 -0.0388656 0)
(0.376523 -0.0506227 0)
(0.379727 -0.0646931 0)
(0.381182 -0.0805083 0)
(0.0632228 -0.00934824 0)
(0.0691574 -0.028038 0)
(0.0807552 -0.0452533 0)
(0.096302 -0.0599381 0)
(0.114773 -0.0715108 0)
(0.135222 -0.0797559 0)
(0.156777 -0.0847466 0)
(0.178678 -0.08676 0)
(0.200289 -0.0862002 0)
(0.22111 -0.0835347 0)
(0.240763 -0.0792444 0)
(0.258992 -0.0737882 0)
(0.275639 -0.0675794 0)
(0.290633 -0.0609725 0)
(0.303969 -0.0542586 0)
(0.315694 -0.0476659 0)
(0.32589 -0.0413644 0)
(0.334665 -0.0354725 0)
(0.342141 -0.0300655 0)
(0.348446 -0.0251833 0)
(0.35371 -0.0208379 0)
(0.358059 -0.0170209 0)
(0.361611 -0.0137088 0)
(0.364479 -0.0108688 0)
(0.366763 -0.0084621 0)
(0.368556 -0.00644775 0)
(0.36994 -0.00478489 0)
(0.370989 -0.00343475 0)
(0.371769 -0.00236208 0)
(0.372338 -0.00153625 0)
(0.372749 -0.0009321 0)
(0.373049 -0.000530657 0)
(0.373282 -0.000319843 0)
(0.373491 -0.000295246 0)
(0.373717 -0.000461097 0)
(0.374002 -0.000831557 0)
(0.37439 -0.00143248 0)
(0.374928 -0.00230379 0)
(0.375667 -0.00350271 0)
(0.376662 -0.00510795 0)
(0.377969 -0.00722498 0)
(0.379645 -0.00999217 0)
(0.381734 -0.0135869 0)
(0.384257 -0.0182296 0)
(0.387185 -0.0241807 0)
(0.390404 -0.0317225 0)
(0.393666 -0.0411111 0)
(0.396546 -0.0524838 0)
(0.398426 -0.0657091 0)
(0.398618 -0.0802096 0)
(0.0763878 -0.0115837 0)
(0.0828607 -0.0339343 0)
(0.0953852 -0.0540588 0)
(0.112079 -0.0709479 0)
(0.131771 -0.0840665 0)
(0.153407 -0.093257 0)
(0.17604 -0.0986645 0)
(0.198863 -0.100648 0)
(0.221221 -0.0996992 0)
(0.242612 -0.0963711 0)
(0.262672 -0.0912246 0)
(0.281166 -0.0847887 0)
(0.297962 -0.0775357 0)
(0.313014 -0.0698679 0)
(0.326341 -0.0621126 0)
(0.338011 -0.0545246 0)
(0.348124 -0.0472919 0)
(0.356802 -0.0405443 0)
(0.364178 -0.0343626 0)
(0.370386 -0.0287883 0)
(0.375562 -0.023832 0)
(0.379834 -0.0194814 0)
(0.383323 -0.0157084 0)
(0.386139 -0.0124741 0)
(0.388385 -0.00973363 0)
(0.390151 -0.00744002 0)
(0.391519 -0.00554658 0)
(0.39256 -0.00400914 0)
(0.39334 -0.00278769 0)
(0.393915 -0.00184748 0)
(0.394336 -0.00115998 0)
(0.39465 -0.000703643 0)
(0.394899 -0.000464595 0)
(0.395124 -0.000437452 0)
(0.395364 -0.000626268 0)
(0.395658 -0.00104577 0)
(0.396048 -0.001723 0)
(0.396574 -0.00269949 0)
(0.397281 -0.00403401 0)
(0.398213 -0.00580602 0)
(0.399413 -0.00811961 0)
(0.400916 -0.0111076 0)
(0.402743 -0.0149342 0)
(0.404884 -0.0197947 0)
(0.407275 -0.025907 0)
(0.409772 -0.033488 0)
(0.412116 -0.0427067 0)
(0.413914 -0.053604 0)
(0.414645 -0.0659819 0)
(0.413774 -0.0792909 0)
(0.0908008 -0.013999 0)
(0.0977885 -0.0402846 0)
(0.111198 -0.0634956 0)
(0.128975 -0.0826729 0)
(0.1498 -0.0973426 0)
(0.172506 -0.107425 0)
(0.196067 -0.113157 0)
(0.219633 -0.114999 0)
(0.242532 -0.113544 0)
(0.264267 -0.109442 0)
(0.284498 -0.103341 0)
(0.303016 -0.0958441 0)
(0.319721 -0.0874837 0)
(0.334601 -0.0787088 0)
(0.347702 -0.0698814 0)
(0.359116 -0.0612802 0)
(0.368964 -0.0531089 0)
(0.377382 -0.0455058 0)
(0.384512 -0.0385553 0)
(0.390498 -0.0322983 0)
(0.395477 -0.0267426 0)
(0.399579 -0.021871 0)
(0.402926 -0.0176494 0)
(0.405626 -0.0140326 0)
(0.40778 -0.0109693 0)
(0.409475 -0.00840623 0)
(0.410791 -0.00629065 0)
(0.411796 -0.00457307 0)
(0.412553 -0.00320871 0)
(0.413116 -0.00215876 0)
(0.413533 -0.00139134 0)
(0.413848 -0.000882305 0)
(0.414102 -0.000615923 0)
(0.414332 -0.000585656 0)
(0.414575 -0.00079506 0)
(0.414866 -0.00125892 0)
(0.415242 -0.0020047 0)
(0.415737 -0.00307439 0)
(0.416388 -0.00452677 0)
(0.417228 -0.00643999 0)
(0.418286 -0.0089142 0)
(0.41958 -0.0120736 0)
(0.421107 -0.0160665 0)
(0.422833 -0.0210617 0)
(0.42467 -0.027236 0)
(0.426458 -0.0347495 0)
(0.427943 -0.0437024 0)
(0.428768 -0.0540688 0)
(0.428502 -0.0656175 0)
(0.426729 -0.0778435 0)
(0.106463 -0.0165876 0)
(0.113951 -0.0470711 0)
(0.128213 -0.0735337 0)
(0.147019 -0.0950678 0)
(0.168891 -0.111275 0)
(0.192547 -0.122175 0)
(0.216881 -0.128119 0)
(0.240999 -0.129689 0)
(0.264222 -0.127596 0)
(0.286067 -0.1226 0)
(0.306222 -0.115442 0)
(0.324515 -0.106803 0)
(0.340888 -0.097276 0)
(0.355363 -0.0873552 0)
(0.368021 -0.0774345 0)
(0.378981 -0.0678134 0)
(0.388384 -0.0587078 0)
(0.39638 -0.0502615 0)
(0.403124 -0.0425597 0)
(0.408764 -0.0356408 0)
(0.413441 -0.0295075 0)
(0.417284 -0.0241368 0)
(0.420413 -0.0194876 0)
(0.422934 -0.0155077 0)
(0.424944 -0.0121391 0)
(0.426526 -0.0093218 0)
(0.427755 -0.00699728 0)
(0.428697 -0.00511064 0)
(0.429409 -0.0036124 0)
(0.429942 -0.00245979 0)
(0.43034 -0.00161766 0)
(0.430644 -0.00105929 0)
(0.430892 -0.000767015 0)
(0.431117 -0.000732993 0)
(0.431351 -0.00095997 0)
(0.431627 -0.00146228 0)
(0.431974 -0.00226708 0)
(0.432421 -0.00341579 0)
(0.432996 -0.00496582 0)
(0.433721 -0.00699229 0)
(0.434611 -0.00958938 0)
(0.435669 -0.0128708 0)
(0.436873 -0.0169675 0)
(0.43817 -0.0220218 0)
(0.439456 -0.0281732 0)
(0.440566 -0.0355342 0)
(0.441257 -0.044152 0)
(0.441216 -0.0539567 0)
(0.440085 -0.0647052 0)
(0.437544 -0.0759424 0)
(0.123376 -0.0193465 0)
(0.131359 -0.0542822 0)
(0.146453 -0.0841486 0)
(0.166241 -0.10809 0)
(0.189077 -0.1258 0)
(0.213558 -0.137419 0)
(0.238497 -0.14344 0)
(0.262966 -0.144587 0)
(0.286283 -0.141711 0)
(0.307989 -0.135691 0)
(0.32781 -0.127371 0)
(0.345624 -0.11751 0)
(0.361415 -0.106763 0)
(0.375252 -0.0956664 0)
(0.38725 -0.084642 0)
(0.397557 -0.0740064 0)
(0.406338 -0.0639833 0)
(0.413758 -0.0547185 0)
(0.41998 -0.046295 0)
(0.425157 -0.0387458 0)
(0.429431 -0.0320672 0)
(0.43293 -0.0262284 0)
(0.43577 -0.0211807 0)
(0.438053 -0.0168644 0)
(0.43987 -0.0132141 0)
(0.441299 -0.0101633 0)
(0.442409 -0.00764747 0)
(0.443261 -0.00560651 0)
(0.443907 -0.0039864 0)
(0.444392 -0.00274051 0)
(0.444757 -0.00183057 0)
(0.445039 -0.00122731 0)
(0.44527 -0.000911145 0)
(0.445479 -0.000872776 0)
(0.445695 -0.00111386 0)
(0.445944 -0.00164784 0)
(0.446249 -0.00250087 0)
(0.446634 -0.00371292 0)
(0.447116 -0.00533888 0)
(0.447707 -0.0074495 0)
(0.448412 -0.0101316 0)
(0.449217 -0.0134872 0)
(0.450087 -0.0176297 0)
(0.450954 -0.0226764 0)
(0.451707 -0.0287339 0)
(0.45218 -0.0358758 0)
(0.45215 -0.04411 0)
(0.451342 -0.0533389 0)
(0.449464 -0.0633212 0)
(0.446267 -0.0736513 0)
(0.14154 -0.0222763 0)
(0.150024 -0.0619132 0)
(0.165941 -0.0953223 0)
(0.186671 -0.1217 0)
(0.210388 -0.140851 0)
(0.235562 -0.153063 0)
(0.260928 -0.159 0)
(0.285529 -0.159555 0)
(0.308692 -0.155735 0)
(0.329993 -0.148554 0)
(0.349211 -0.138963 0)
(0.366278 -0.127806 0)
(0.381235 -0.115793 0)
(0.394196 -0.103501 0)
(0.405318 -0.0913752 0)
(0.41478 -0.0797434 0)
(0.422767 -0.068833 0)
(0.429461 -0.0587874 0)
(0.435031 -0.0496836 0)
(0.439634 -0.0415471 0)
(0.443411 -0.0343653 0)
(0.446488 -0.0280986 0)
(0.448973 -0.0226895 0)
(0.450964 -0.0180701 0)
(0.452543 -0.0141676 0)
(0.453782 -0.0109089 0)
(0.454744 -0.00822359 0)
(0.455482 -0.00604645 0)
(0.456042 -0.00431916 0)
(0.456465 -0.00299149 0)
(0.456784 -0.00202215 0)
(0.457032 -0.00137949 0)
(0.457236 -0.00104199 0)
(0.457421 -0.000998816 0)
(0.457609 -0.0012503 0)
(0.457821 -0.00180858 0)
(0.458074 -0.00269828 0)
(0.458385 -0.00395717 0)
(0.458761 -0.00563672 0)
(0.459207 -0.00780234 0)
(0.459715 -0.0105327 0)
(0.46026 -0.0139176 0)
(0.460795 -0.0180535 0)
(0.461244 -0.0230347 0)
(0.461491 -0.0289399 0)
(0.461376 -0.0358116 0)
(0.460697 -0.0436294 0)
(0.459216 -0.05228 0)
(0.456694 -0.0615316 0)
(0.452935 -0.0710253 0)
(0.160958 -0.0253815 0)
(0.169959 -0.0699669 0)
(0.186702 -0.107043 0)
(0.208342 -0.135862 0)
(0.232855 -0.156359 0)
(0.258579 -0.169007 0)
(0.284176 -0.174669 0)
(0.308669 -0.174439 0)
(0.331408 -0.169501 0)
(0.352021 -0.161015 0)
(0.37035 -0.150048 0)
(0.386394 -0.137524 0)
(0.400256 -0.124211 0)
(0.412104 -0.110718 0)
(0.422137 -0.0975067 0)
(0.430564 -0.084912 0)
(0.437594 -0.0731585 0)
(0.443419 -0.0623831 0)
(0.448217 -0.052653 0)
(0.452144 -0.0439832 0)
(0.455339 -0.0363503 0)
(0.457921 -0.0297043 0)
(0.459993 -0.0239782 0)
(0.461643 -0.0190954 0)
(0.462945 -0.0149756 0)
(0.463963 -0.0115391 0)
(0.46475 -0.00870982 0)
(0.465353 -0.00641768 0)
(0.465811 -0.00460034 0)
(0.466156 -0.00320422 0)
(0.466419 -0.0021853 0)
(0.466623 -0.00150966 0)
(0.466792 -0.00115394 0)
(0.466944 -0.00110569 0)
(0.467096 -0.00136379 0)
(0.467263 -0.00193876 0)
(0.467457 -0.00285324 0)
(0.467684 -0.00414221 0)
(0.467948 -0.00585311 0)
(0.468241 -0.00804539 0)
(0.468547 -0.0107892 0)
(0.468832 -0.0141622 0)
(0.46904 -0.018245 0)
(0.46909 -0.0231116 0)
(0.468866 -0.0288172 0)
(0.468217 -0.0353803 0)
(0.46696 -0.0427609 0)
(0.464892 -0.0508382 0)
(0.461816 -0.0593945 0)
(0.457581 -0.0681132 0)
(0.181631 -0.0286714 0)
(0.191177 -0.0784534 0)
(0.208763 -0.119304 0)
(0.231286 -0.150538 0)
(0.256507 -0.172252 0)
(0.282624 -0.18514 0)
(0.308232 -0.190305 0)
(0.332349 -0.189074 0)
(0.35437 -0.182829 0)
(0.373989 -0.172892 0)
(0.391127 -0.160446 0)
(0.405862 -0.146496 0)
(0.418365 -0.131861 0)
(0.428862 -0.117175 0)
(0.437596 -0.102912 0)
(0.444807 -0.0894038 0)
(0.450724 -0.0768669 0)
(0.455549 -0.0654265 0)
(0.459464 -0.0551365 0)
(0.462624 -0.0459983 0)
(0.465161 -0.0379758 0)
(0.467186 -0.0310072 0)
(0.468794 -0.0250153 0)
(0.470061 -0.0199147 0)
(0.471052 -0.0156174 0)
(0.471821 -0.0120372 0)
(0.472413 -0.00909264 0)
(0.472863 -0.00670929 0)
(0.473205 -0.0048211 0)
(0.473462 -0.00337148 0)
(0.473658 -0.00231396 0)
(0.473811 -0.00161258 0)
(0.473937 -0.00124226 0)
(0.47405 -0.00118897 0)
(0.474161 -0.00144999 0)
(0.474277 -0.00203404 0)
(0.474405 -0.00296143 0)
(0.474545 -0.00426399 0)
(0.474691 -0.00598471 0)
(0.474829 -0.00817679 0)
(0.474935 -0.0109017 0)
(0.474966 -0.0142259 0)
(0.474862 -0.0182151 0)
(0.474539 -0.022926 0)
(0.473883 -0.0283945 0)
(0.472753 -0.0346209 0)
(0.470988 -0.0415522 0)
(0.468413 -0.0490663 0)
(0.464866 -0.0569614 0)
(0.460229 -0.064959 0)
(0.203561 -0.0321599 0)
(0.213695 -0.0873917 0)
(0.232154 -0.132107 0)
(0.255539 -0.165692 0)
(0.281368 -0.188448 0)
(0.307698 -0.201336 0)
(0.333068 -0.205747 0)
(0.356514 -0.203275 0)
(0.377491 -0.195524 0)
(0.395786 -0.183987 0)
(0.411414 -0.169968 0)
(0.424542 -0.154547 0)
(0.43542 -0.138585 0)
(0.444331 -0.122736 0)
(0.451563 -0.107472 0)
(0.457387 -0.0931165 0)
(0.462046 -0.0798719 0)
(0.465753 -0.0678456 0)
(0.468688 -0.0570744 0)
(0.471001 -0.0475434 0)
(0.472815 -0.0392016 0)
(0.474232 -0.0319747 0)
(0.475333 -0.0257747 0)
(0.476184 -0.0205068 0)
(0.476838 -0.0160759 0)
(0.477338 -0.0123894 0)
(0.477716 -0.00936115 0)
(0.478002 -0.00691255 0)
(0.478215 -0.00497441 0)
(0.478376 -0.00348754 0)
(0.478499 -0.00240337 0)
(0.478594 -0.00168419 0)
(0.478673 -0.00130336 0)
(0.478742 -0.00124534 0)
(0.478807 -0.00150581 0)
(0.47887 -0.00209156 0)
(0.478929 -0.00302037 0)
(0.478978 -0.00432069 0)
(0.479006 -0.00603086 0)
(0.478992 -0.00819779 0)
(0.478903 -0.0108747 0)
(0.478693 -0.0141172 0)
(0.478298 -0.0179782 0)
(0.477631 -0.0224995 0)
(0.476585 -0.0277017 0)
(0.47503 -0.0335716 0)
(0.472822 -0.0400484 0)
(0.469813 -0.0470125 0)
(0.465869 -0.0542789 0)
(0.460899 -0.0616028 0)
(0.226751 -0.035867 0)
(0.237532 -0.0968098 0)
(0.256908 -0.145456 0)
(0.281134 -0.181287 0)
(0.307457 -0.204855 0)
(0.333792 -0.217453 0)
(0.358639 -0.220815 0)
(0.381077 -0.216837 0)
(0.400653 -0.207373 0)
(0.417267 -0.194092 0)
(0.431049 -0.178417 0)
(0.442266 -0.161498 0)
(0.451249 -0.144227 0)
(0.458345 -0.127264 0)
(0.463884 -0.111072 0)
(0.468162 -0.0959555 0)
(0.471436 -0.0820956 0)
(0.473921 -0.0695772 0)
(0.475792 -0.0584157 0)
(0.477192 -0.0485774 0)
(0.478233 -0.0399952 0)
(0.479001 -0.032581 0)
(0.479565 -0.0262356 0)
(0.479976 -0.0208556 0)
(0.480274 -0.0163383 0)
(0.480489 -0.0125858 0)
(0.480643 -0.00950743 0)
(0.480754 -0.00702121 0)
(0.480834 -0.00505528 0)
(0.480892 -0.00354838 0)
(0.480937 -0.00245023 0)
(0.480972 -0.0017217 0)
(0.481 -0.00133483 0)
(0.481023 -0.00127273 0)
(0.48104 -0.0015295 0)
(0.481047 -0.00210997 0)
(0.481037 -0.00302933 0)
(0.480997 -0.00431254 0)
(0.48091 -0.0059933 0)
(0.480749 -0.00811238 0)
(0.480477 -0.0107151 0)
(0.480042 -0.0138476 0)
(0.479378 -0.0175513 0)
(0.478402 -0.0218557 0)
(0.47701 -0.0267694 0)
(0.475084 -0.0322697 0)
(0.472496 -0.0382918 0)
(0.469121 -0.0447211 0)
(0.464849 -0.0513896 0)
(0.459608 -0.058082 0)
(0.251204 -0.0398199 0)
(0.26271 -0.106746 0)
(0.283063 -0.159362 0)
(0.308107 -0.197275 0)
(0.334786 -0.221363 0)
(0.360878 -0.233325 0)
(0.38487 -0.235299 0)
(0.405917 -0.229532 0)
(0.423697 -0.218141 0)
(0.438246 -0.202983 0)
(0.44983 -0.18559 0)
(0.458826 -0.167171 0)
(0.465652 -0.148634 0)
(0.470714 -0.130631 0)
(0.474382 -0.113606 0)
(0.476973 -0.0978359 0)
(0.478751 -0.0834707 0)
(0.479928 -0.0705681 0)
(0.480672 -0.0591191 0)
(0.481111 -0.0490686 0)
(0.481341 -0.040332 0)
(0.481433 -0.0328072 0)
(0.48144 -0.0263839 0)
(0.481396 -0.0209501 0)
(0.481327 -0.0163964 0)
(0.48125 -0.0126202 0)
(0.481175 -0.00952677 0)
(0.481107 -0.00703167 0)
(0.48105 -0.00506094 0)
(0.481004 -0.00355181 0)
(0.480968 -0.00245279 0)
(0.480941 -0.00172371 0)
(0.480918 -0.00133558 0)
(0.480895 -0.00127034 0)
(0.480864 -0.00152065 0)
(0.480816 -0.0020894 0)
(0.480738 -0.00298924 0)
(0.480613 -0.00424168 0)
(0.480417 -0.0058759 0)
(0.480119 -0.00792688 0)
(0.479676 -0.0104327 0)
(0.479037 -0.0134309 0)
(0.478132 -0.0169533 0)
(0.476881 -0.0210192 0)
(0.475187 -0.0256282 0)
(0.472943 -0.0307511 0)
(0.470036 -0.0363222 0)
(0.466359 -0.0422333 0)
(0.461821 -0.0483327 0)
(0.456368 -0.0544314 0)
(0.276925 -0.0440548 0)
(0.289259 -0.117251 0)
(0.310663 -0.173838 0)
(0.336491 -0.213602 0)
(0.363353 -0.237841 0)
(0.388901 -0.248755 0)
(0.411648 -0.248962 0)
(0.430872 -0.241102 0)
(0.446417 -0.227576 0)
(0.458492 -0.210423 0)
(0.467514 -0.191277 0)
(0.473979 -0.171385 0)
(0.478392 -0.151656 0)
(0.481218 -0.132719 0)
(0.482858 -0.114983 0)
(0.483643 -0.0986855 0)
(0.483837 -0.0839422 0)
(0.483643 -0.0707777 0)
(0.483214 -0.0591546 0)
(0.482661 -0.0489952 0)
(0.48206 -0.0401966 0)
(0.481464 -0.0326427 0)
(0.480905 -0.0262123 0)
(0.480403 -0.0207854 0)
(0.479966 -0.0162471 0)
(0.479596 -0.0124904 0)
(0.479291 -0.00941789 0)
(0.479046 -0.00694315 0)
(0.478853 -0.00499094 0)
(0.478704 -0.00349759 0)
(0.47859 -0.00241096 0)
(0.478501 -0.00169027 0)
(0.478428 -0.00130582 0)
(0.47836 -0.00123865 0)
(0.478283 -0.00148014 0)
(0.478183 -0.00203139 0)
(0.478042 -0.00290258 0)
(0.477837 -0.00411196 0)
(0.477541 -0.0056844 0)
(0.477117 -0.00764953 0)
(0.476522 -0.010039 0)
(0.4757 -0.0128827 0)
(0.474583 -0.0162043 0)
(0.473095 -0.0200153 0)
(0.471143 -0.0243084 0)
(0.468633 -0.0290506 0)
(0.465463 -0.034177 0)
(0.461544 -0.0395871 0)
(0.456799 -0.0451447 0)
(0.451188 -0.0506839 0)
(0.30392 -0.0486193 0)
(0.317216 -0.128388 0)
(0.339757 -0.188898 0)
(0.366318 -0.230193 0)
(0.393138 -0.254123 0)
(0.417773 -0.263508 0)
(0.438813 -0.261528 0)
(0.45572 -0.251259 0)
(0.46855 -0.235401 0)
(0.477718 -0.216165 0)
(0.483805 -0.195266 0)
(0.487436 -0.173968 0)
(0.4892 -0.153157 0)
(0.48961 -0.133421 0)
(0.48909 -0.115121 0)
(0.487977 -0.0984471 0)
(0.486526 -0.0834705 0)
(0.484922 -0.0701789 0)
(0.483299 -0.0585051 0)
(0.481743 -0.0483471 0)
(0.480309 -0.0395838 0)
(0.479027 -0.0320854 0)
(0.477908 -0.0257208 0)
(0.476954 -0.0203629 0)
(0.476156 -0.0158922 0)
(0.475501 -0.0121986 0)
(0.474974 -0.00918299 0)
(0.474557 -0.00675772 0)
(0.474233 -0.00484715 0)
(0.473985 -0.00338741 0)
(0.473797 -0.00232627 0)
(0.473651 -0.00162282 0)
(0.473531 -0.00124704 0)
(0.473421 -0.00117936 0)
(0.473302 -0.00141008 0)
(0.473154 -0.00193873 0)
(0.472956 -0.0027732 0)
(0.47268 -0.00392866 0)
(0.472294 -0.00542606 0)
(0.47176 -0.00729015 0)
(0.47103 -0.00954678 0)
(0.47005 -0.0122195 0)
(0.468752 -0.0153253 0)
(0.467063 -0.0188693 0)
(0.464899 -0.0228396 0)
(0.462171 -0.0272013 0)
(0.458794 -0.0318918 0)
(0.454688 -0.0368186 0)
(0.449793 -0.0418602 0)
(0.444076 -0.0468711 0)
(0.3322 -0.0535761 0)
(0.346627 -0.140235 0)
(0.370402 -0.204551 0)
(0.39761 -0.246949 0)
(0.424092 -0.270003 0)
(0.447356 -0.277299 0)
(0.466145 -0.272675 0)
(0.480173 -0.259682 0)
(0.489765 -0.24132 0)
(0.495572 -0.219954 0)
(0.498355 -0.197348 0)
(0.498866 -0.174755 0)
(0.497768 -0.153013 0)
(0.495613 -0.13265 0)
(0.492837 -0.113961 0)
(0.489768 -0.0970821 0)
(0.486641 -0.0820328 0)
(0.483618 -0.068761 0)
(0.480803 -0.0571675 0)
(0.478257 -0.0471264 0)
(0.476006 -0.0384989 0)
(0.474056 -0.0311423 0)
(0.472397 -0.0249169 0)
(0.471009 -0.0196902 0)
(0.469866 -0.015339 0)
(0.468941 -0.0117515 0)
(0.468204 -0.0088278 0)
(0.467626 -0.00648035 0)
(0.467181 -0.00463381 0)
(0.466843 -0.00322488 0)
(0.466586 -0.00220185 0)
(0.466388 -0.00152419 0)
(0.466227 -0.00116196 0)
(0.46608 -0.0010953 0)
(0.465924 -0.00131371 0)
(0.465736 -0.00181536 0)
(0.465488 -0.0026061 0)
(0.465151 -0.00369832 0)
(0.464688 -0.0051094 0)
(0.464059 -0.00685977 0)
(0.463216 -0.00897029 0)
(0.462103 -0.0114591 0)