/*--------------------------------*- C++ -*----------------------------------*\
  =========                 |
  \\      /  F ield         | OpenFOAM: The Open Source CFD Toolbox
   \\    /   O peration     | Website:  https://openfoam.org
    \\  /    A nd           | Version:  6
     \\/     M anipulation  |
\*---------------------------------------------------------------------------*/
FoamFile
{
    version     2.0;
    format      ascii;
    class       volVectorField;
    location    "0";
    object      Ulift0;
}
// * * * * * * * * * * * * * * * * * * * * * * * * * * * * * * * * * * * * * //

dimensions      [0 1 -1 0 0 0 0];

internalField   nonuniform List<vector> 
11644
(
(1.00126 -0.000928661 0)
(1.00126 -0.00278235 0)
(1.00125 -0.00462433 0)
(1.00123 -0.00644415 0)
(1.0012 -0.00822734 0)
(1.00115 -0.00995367 0)
(1.00108 -0.0115955 0)
(1.00099 -0.0131163 0)
(1.00085 -0.0144691 0)
(1.00068 -0.0155962 0)
(1.00045 -0.0164299 0)
(1.00018 -0.0168949 0)
(0.999847 -0.0169132 0)
(0.999471 -0.0164122 0)
(0.999064 -0.015335 0)
(0.998648 -0.0136525 0)
(0.998255 -0.0113749 0)
(0.997919 -0.0085616 0)
(0.997674 -0.0053215 0)
(0.997544 -0.00180575 -1.13959e-32)
(0.997544 0.00180539 1.13936e-32)
(0.997674 0.00532116 0)
(0.997919 0.00856129 0)
(0.998255 0.0113746 0)
(0.998648 0.0136522 0)
(0.999064 0.0153348 0)
(0.999471 0.016412 0)
(0.999847 0.0169131 0)
(1.00018 0.0168948 0)
(1.00045 0.0164299 0)
(1.00068 0.0155962 0)
(1.00085 0.0144691 0)
(1.00099 0.0131163 0)
(1.00108 0.0115956 0)
(1.00115 0.0099537 0)
(1.0012 0.00822736 0)
(1.00123 0.00644417 0)
(1.00125 0.00462434 0)
(1.00126 0.00278236 0)
(1.00126 0.000928664 0)
(1.0038 -0.000935389 0)
(1.00379 -0.00280399 0)
(1.00376 -0.00466531 0)
(1.0037 -0.00651193 0)
(1.00362 -0.00833249 0)
(1.00349 -0.0101099 0)
(1.0033 -0.0118195 0)
(1.00302 -0.013427 0)
(1.00264 -0.0148864 0)
(1.00213 -0.0161389 0)
(1.00146 -0.017112 0)
(1.00063 -0.0177211 0)
(0.999627 -0.0178736 0)
(0.998472 -0.0174778 0)
(0.997207 -0.0164549 0)
(0.995902 -0.014753 0)
(0.994657 -0.0123657 0)
(0.993591 -0.00935103 0)
(0.992809 -0.00583136 0)
(0.992393 -0.00198218 5.00372e-32)
(0.992393 0.0019818 -5.00276e-32)
(0.992809 0.00583099 0)
(0.993591 0.0093507 0)
(0.994656 0.0123655 0)
(0.995902 0.0147527 0)
(0.997207 0.0164547 0)
(0.998472 0.0174777 0)
(0.999627 0.0178735 0)
(1.00063 0.017721 0)
(1.00146 0.017112 0)
(1.00213 0.0161389 0)
(1.00264 0.0148864 0)
(1.00302 0.013427 0)
(1.0033 0.0118196 0)
(1.00349 0.01011 0)
(1.00362 0.00833252 0)
(1.0037 0.00651195 0)
(1.00376 0.00466533 0)
(1.00379 0.002804 0)
(1.0038 0.000935392 0)
(1.00636 -0.00094614 0)
(1.00634 -0.00283911 0)
(1.00631 -0.00473348 0)
(1.00624 -0.0066279 0)
(1.00613 -0.00851742 0)
(1.00595 -0.0103916 0)
(1.00567 -0.0122325 0)
(1.00526 -0.0140114 0)
(1.00467 -0.0156865 0)
(1.00386 -0.0171984 0)
(1.00278 -0.0184675 0)
(1.0014 -0.0193916 0)
(0.999689 -0.0198481 0)
(0.997676 -0.0197035 0)
(0.995425 -0.0188304 0)
(0.993045 -0.0171211 0)
(0.990726 -0.0145172 0)
(0.98874 -0.0110744 0)
(0.987265 -0.00695066 0)
(0.986474 -0.00237092 1.19701e-31)
(0.986474 0.00237048 -1.19679e-31)
(0.987265 0.00695025 0)
(0.98874 0.011074 0)
(0.990726 0.0145169 0)
(0.993045 0.0171208 0)
(0.995424 0.0188302 0)
(0.997675 0.0197034 0)
(0.999689 0.019848 0)
(1.0014 0.0193915 0)
(1.00278 0.0184675 0)
(1.00386 0.0171984 0)
(1.00467 0.0156865 0)
(1.00526 0.0140115 0)
(1.00567 0.0122325 0)
(1.00595 0.0103917 0)
(1.00613 0.00851745 0)
(1.00624 0.00662793 0)
(1.00631 0.0047335 0)
(1.00634 0.00283912 0)
(1.00636 0.000946145 0)
(1.00894 -0.000955618 0)
(1.00894 -0.00287164 0)
(1.00891 -0.00480154 0)
(1.00887 -0.00675293 0)
(1.00877 -0.00873066 0)
(1.00859 -0.0107351 0)
(1.00829 -0.0127598 0)
(1.00782 -0.0147881 0)
(1.00711 -0.0167882 0)
(1.00609 -0.0187071 0)
(1.00467 -0.0204611 0)
(1.00276 -0.0219269 0)
(1.00031 -0.0229344 0)
(0.997319 -0.0232768 0)
(0.993881 -0.0227526 0)
(0.990076 -0.0211436 0)
(0.986178 -0.0182205 0)
(0.982943 -0.0140573 0)
(0.980458 -0.00891337 0)
(0.97909 -0.00305868 0)
(0.97909 0.00305814 0)
(0.980458 0.00891287 0)
(0.982943 0.0140568 0)
(0.986178 0.0182202 0)
(0.990075 0.0211433 0)
(0.99388 0.0227525 0)
(0.997319 0.0232768 0)
(1.00031 0.0229344 0)
(1.00276 0.0219269 0)
(1.00467 0.0204611 0)
(1.00609 0.0187071 0)
(1.00711 0.0167883 0)
(1.00782 0.0147881 0)
(1.00829 0.0127599 0)
(1.00859 0.0107352 0)
(1.00877 0.00873071 0)
(1.00887 0.00675297 0)
(1.00891 0.00480157 0)
(1.00894 0.00287166 0)
(1.00894 0.000955624 0)
(1.01154 -0.000956247 0)
(1.01156 -0.00287849 0)
(1.01157 -0.00482987 0)
(1.01158 -0.00682926 0)
(1.01155 -0.00889447 0)
(1.01145 -0.0110411 0)
(1.01123 -0.0132805 0)
(1.01082 -0.0156167 0)
(1.01013 -0.0180405 0)
(1.00905 -0.0205205 0)
(1.00744 -0.0229878 0)
(1.00514 -0.0253097 0)
(1.00195 -0.027251 0)
(0.997783 -0.028453 0)
(0.993014 -0.0286815 0)
(0.987278 -0.0275964 0)
(0.980406 -0.0242176 0)
(0.975759 -0.018854 0)
(0.971584 -0.0121908 0)
(0.969177 -0.00423129 4.27251e-31)
(0.969177 0.00423057 -4.27178e-31)
(0.971584 0.0121901 0)
(0.975759 0.0188534 0)
(0.980405 0.0242172 0)
(0.987277 0.0275961 0)
(0.993014 0.0286814 0)
(0.997783 0.028453 0)
(1.00195 0.0272511 0)
(1.00514 0.0253098 0)
(1.00744 0.0229879 0)
(1.00905 0.0205206 0)
(1.01013 0.0180406 0)
(1.01082 0.0156168 0)
(1.01123 0.0132806 0)
(1.01145 0.0110412 0)
(1.01155 0.00889454 0)
(1.01158 0.00682931 0)
(1.01157 0.0048299 0)
(1.01156 0.00287852 0)
(1.01154 0.000956255 0)
(1.01412 -0.000938838 0)
(1.01417 -0.00283148 0)
(1.01425 -0.00476938 0)
(1.01436 -0.00678385 0)
(1.01447 -0.00890772 0)
(1.01454 -0.0111754 0)
(1.01451 -0.0136224 0)
(1.01432 -0.0162833 0)
(1.01387 -0.0191886 0)
(1.01299 -0.0223575 0)
(1.01151 -0.0257834 0)
(1.00914 -0.0293967 0)
(1.0054 -0.0329351 0)
(0.99936 -0.0354297 0)
(0.993939 -0.0370399 0)
(0.98658 -0.0382917 0)
(0.970516 -0.0338858 0)
(0.967704 -0.0260544 0)
(0.959441 -0.0178657 0)
(0.95481 -0.0063331 1.27896e-30)
(0.95481 0.00633209 -1.27875e-30)
(0.959441 0.0178648 0)
(0.967703 0.0260537 0)
(0.970515 0.0338854 0)
(0.98658 0.0382915 0)
(0.993938 0.0370399 0)
(0.999359 0.0354298 0)
(1.0054 0.0329352 0)
(1.00914 0.0293969 0)
(1.01151 0.0257836 0)
(1.01299 0.0223577 0)
(1.01387 0.0191888 0)
(1.01432 0.0162835 0)
(1.01451 0.0136225 0)
(1.01454 0.0111755 0)
(1.01447 0.0089078 0)
(1.01436 0.00678391 0)
(1.01425 0.00476942 0)
(1.01417 0.00283151 0)
(1.01412 0.000938846 0)
(1.01661 -0.00089375 0)
(1.01671 -0.00270076 0)
(1.01689 -0.00456725 0)
(1.01714 -0.00653609 0)
(1.01745 -0.00865495 0)
(1.01779 -0.0109782 0)
(1.01811 -0.0135684 0)
(1.01833 -0.0164979 0)
(1.01837 -0.0198494 0)
(1.01807 -0.023719 0)
(1.01724 -0.0282323 0)
(1.01566 -0.0336221 0)
(1.01312 -0.0405495 0)
(0.999788 -0.0440425 0)
(0.998446 -0.0460613 0)
(0.986459 -0.0480345 0)
(0.957791 -0.0488657 0)
(0.962073 -0.0437112 0)
(0.949029 -0.0309905 0)
(0.940536 -0.014337 -9.49109e-26)
(0.93911 0.00496133 0)
(0.945249 0.0232982 4.9887e-23)
(0.957212 0.0378332 0)
(0.9727 0.0508014 0)
(0.986458 0.0480345 0)
(0.998445 0.0460615 0)
(0.999787 0.0440428 0)
(1.01312 0.0405499 0)
(1.01566 0.0336225 0)
(1.01724 0.0282326 0)
(1.01807 0.0237193 0)
(1.01837 0.0198496 0)
(1.01833 0.0164981 0)
(1.01811 0.0135686 0)
(1.01779 0.0109783 0)
(1.01745 0.00865504 0)
(1.01714 0.00653616 0)
(1.01689 0.0045673 0)
(1.01671 0.00270079 0)
(1.01661 0.000893759 0)
(1.01893 -0.000812578 0)
(1.01908 -0.00246001 0)
(1.01938 -0.00417583 0)
(1.01982 -0.00601086 0)
(1.0204 -0.00802419 0)
(1.02109 -0.010287 0)
(1.02187 -0.012887 0)
(1.0227 -0.015932 0)
(1.02348 -0.019552 0)
(1.02411 -0.0238898 0)
(1.02437 -0.0290602 0)
(1.02394 -0.0350037 0)
(1.0224 -0.040996 0)
(0.996549 -0.0498656 0)
(1.00605 -0.0600607 0)
(0.990982 -0.0666911 0)
(0.973521 -0.0695837 0)
(0.950581 -0.0669821 0)
(0.925855 -0.0524665 0)
(0.907249 -0.0254681 1.68569e-25)
(0.902993 0.00871172 0)
(0.915213 0.0403466 2.67027e-25)
(0.938053 0.0613679 0)
(0.962605 0.0695298 0)
(0.983814 0.069126 0)
(1.00187 0.0631679 0)
(1.01429 0.0591069 0)
(1.0224 0.0409966 0)
(1.02394 0.0350042 0)
(1.02437 0.0290606 0)
(1.02411 0.0238901 0)
(1.02348 0.0195523 0)
(1.0227 0.0159323 0)
(1.02187 0.0128871 0)
(1.02109 0.0102871 0)
(1.0204 0.00802429 0)
(1.01982 0.00601094 0)
(1.01938 0.00417588 0)
(1.01908 0.00246004 0)
(1.01893 0.000812586 0)
(1.02098 -0.000690199 0)
(1.02119 -0.00209279 0)
(1.02161 -0.00356389 0)
(1.02225 -0.00515587 0)
(1.02312 -0.00693196 0)
(1.02422 -0.00897233 0)
(1.02555 -0.0113822 0)
(1.02713 -0.0143028 0)
(1.02891 -0.0179269 0)
(1.03083 -0.0225205 0)
(1.03275 -0.0284583 0)
(1.0343 -0.0362947 0)
(1.03471 -0.0469669 0)
(1.02797 -0.0564403 0)
(1.02355 -0.0724038 0)
(1.00368 -0.0869702 0)
(0.98481 -0.101629 0)
(0.947361 -0.107955 0)
(0.900409 -0.0963387 -3.18793e-25)
(0.858929 -0.0552418 0)
(0.845877 0.00849567 -1.40639e-26)
(0.870225 0.0684411 0)
(0.91604 0.101788 -2.42478e-23)
(0.961022 0.107256 0)
(0.996045 0.101171 0)
(1.01948 0.0820923 0)
(1.02635 0.0640346 0)
(1.03471 0.0469679 0)
(1.0343 0.0362955 0)
(1.03275 0.0284588 0)
(1.03083 0.0225209 0)
(1.02891 0.0179272 0)
(1.02713 0.014303 0)
(1.02555 0.0113824 0)
(1.02422 0.00897246 0)
(1.02312 0.00693206 0)
(1.02225 0.00515594 0)
(1.02161 0.00356394 0)
(1.02119 0.00209281 0)
(1.02098 0.000690208 0)
(1.02263 -0.000526776 0)
(1.0229 -0.00159884 0)
(1.02344 -0.00272837 0)
(1.02427 -0.00396036 0)
(1.02541 -0.00535092 0)
(1.02691 -0.00697423 0)
(1.02881 -0.00893271 0)
(1.03116 -0.0113725 0)
(1.03406 -0.0145085 0)
(1.03758 -0.0186651 0)
(1.0418 -0.0243445 0)
(1.04678 -0.032341 0)
(1.05249 -0.0439181 0)
(1.05071 -0.056552 0)
(1.05211 -0.0793969 0)
(1.04032 -0.106338 0)
(1.01749 -0.141504 0)
(0.969572 -0.179291 0)
(0.877632 -0.194092 1.03308e-23)
(0.763334 -0.134949 0)
(0.711117 0.0101604 4.73953e-24)
(0.776403 0.147795 -1.02764e-23)
(0.89141 0.195176 -5.89911e-24)
(0.977946 0.174967 0)
(1.02722 0.13506 0)
(1.05038 0.0944554 0)
(1.05189 0.0670624 0)
(1.05249 0.0439193 0)
(1.04678 0.0323418 0)
(1.0418 0.024345 0)
(1.03758 0.0186655 0)
(1.03406 0.0145088 0)
(1.03116 0.0113727 0)
(1.02881 0.00893285 0)
(1.02691 0.00697434 0)
(1.02541 0.00535099 0)
(1.02427 0.00396041 0)
(1.02344 0.00272841 0)
(1.0229 0.00159886 0)
(1.02263 0.000526781 0)
(1.0238 -0.000329105 0)
(1.0241 -0.000998612 0)
(1.02473 -0.00170336 0)
(1.0257 -0.00247154 0)
(1.02705 -0.00333936 0)
(1.02886 -0.00435623 0)
(1.0312 -0.00559292 0)
(1.03421 -0.00715456 0)
(1.03807 -0.00920261 0)
(1.04302 -0.0119931 0)
(1.04946 -0.0159448 0)
(1.05792 -0.0217647 0)
(1.06923 -0.030685 0)
(1.07635 -0.0442683 0)
(1.09233 -0.0694071 0)
(1.101 -0.105764 0)
(1.1034 -0.169625 2.80664e-25)
(1.07765 -0.28186 8.99749e-24)
(0.934393 -0.422325 -5.59931e-24)
(0.565752 -0.439187 -5.6697e-27)
(0.274902 0.0194277 0)
(0.594087 0.449953 -1.27429e-22)
(0.949241 0.414361 -1.25711e-23)
(1.08477 0.264691 3.58928e-24)
(1.11007 0.154385 2.55452e-25)
(1.10183 0.0871963 0)
(1.0838 0.0556896 0)
(1.06923 0.0306861 0)
(1.05792 0.0217653 0)
(1.04946 0.0159452 0)
(1.04302 0.0119933 0)
(1.03807 0.00920279 0)
(1.03421 0.00715468 0)
(1.0312 0.00559301 0)
(1.02886 0.00435629 0)
(1.02705 0.0033394 0)
(1.0257 0.00247158 0)
(1.02473 0.00170338 0)
(1.0241 0.000998622 0)
(1.0238 0.000329109 0)
(1.02439 -0.000110537 0)
(1.02472 -0.000333208 0)
(1.02538 -0.000560995 0)
(1.02641 -0.000798456 0)
(1.02786 -0.0010521 0)
(1.02981 -0.00133166 0)
(1.03237 -0.00165211 0)
(1.03569 -0.00203691 0)
(1.04003 -0.00252351 0)
(1.04574 -0.00317324 0)
(1.05336 -0.00408962 0)
(1.06378 -0.00545388 0)
(1.07841 -0.00759741 0)
(1.09488 -0.0163553 0)
(1.12492 -0.0294856 0)
(1.16381 -0.0544791 0)
(1.22829 -0.110348 -2.03204e-24)
(1.33599 -0.242994 1.61091e-24)
(1.50326 -0.665463 2.67655e-22)
(1.49588 0.626481 -7.94122e-23)
(1.31998 0.222946 -2.18378e-24)
(1.21644 0.0922138 0)
(1.14629 0.0384608 0)
(1.10817 0.0226934 0)
(1.07841 0.00759757 0)
(1.06378 0.00545397 0)
(1.05336 0.00408966 0)
(1.04574 0.00317327 0)
(1.04003 0.00252353 0)
(1.03569 0.00203692 0)
(1.03237 0.00165212 0)
(1.02981 0.00133166 0)
(1.02786 0.0010521 0)
(1.02641 0.000798458 0)
(1.02538 0.000560998 0)
(1.02472 0.000333211 0)
(1.02439 0.000110537 0)
(1.02439 0.000110983 0)
(1.02471 0.000341658 0)
(1.02535 0.00059926 0)
(1.02635 0.000904556 0)
(1.02775 0.00128311 0)
(1.02964 0.00176856 0)
(1.0321 0.0024077 0)
(1.03531 0.00326903 0)
(1.03946 0.00445732 0)
(1.0449 0.00613976 0)
(1.05211 0.00859396 0)
(1.06185 0.0122983 0)
(1.07535 0.0181073 0)
(1.09493 0.0186286 0)
(1.12539 0.0271353 0)
(1.17383 0.0361333 0)
(1.2616 0.0551181 0)
(1.44813 0.108006 -7.1743e-25)
(1.99583 0.32812 -8.74351e-23)
(1.93097 -0.305493 -4.91863e-23)
(1.43195 -0.101546 0)
(1.2356 -0.0544922 0)
(1.14698 -0.0354939 0)
(1.10846 -0.0214756 0)
(1.07535 -0.0181082 0)
(1.06185 -0.0122988 0)
(1.05211 -0.00859431 0)
(1.0449 -0.00613999 0)
(1.03946 -0.00445747 0)
(1.03531 -0.00326914 0)
(1.0321 -0.00240778 0)
(1.02964 -0.00176861 0)
(1.02775 -0.00128315 0)
(1.02635 -0.000904579 0)
(1.02535 -0.000599275 0)
(1.02471 -0.000341667 0)
(1.02439 -0.000110984 0)
(1.02381 0.000316393 0)
(1.02409 0.000966719 0)
(1.02466 0.0016713 0)
(1.02554 0.00247207 0)
(1.02676 0.00342062 0)
(1.02839 0.00458448 0)
(1.03048 0.00605658 0)
(1.03315 0.00797024 0)
(1.03653 0.0105241 0)
(1.04079 0.0140253 0)
(1.04617 0.0189654 0)
(1.05298 0.0261574 0)
(1.06162 0.0369748 0)
(1.07644 0.045332 0)
(1.09326 0.0677624 0)
(1.11972 0.099334 0)
(1.15335 0.16225 0)
(1.17157 0.304148 5.73956e-24)
(1.08885 0.586732 0)
(1.10345 -0.563236 2.9265e-23)
(1.1721 -0.280015 0)
(1.14055 -0.147322 0)
(1.10317 -0.0854028 0)
(1.08438 -0.0546104 0)
(1.06162 -0.0369762 0)
(1.05298 -0.0261583 0)
(1.04617 -0.018966 0)
(1.04079 -0.0140257 0)
(1.03653 -0.0105244 0)
(1.03315 -0.00797044 0)
(1.03048 -0.00605672 0)
(1.02839 -0.00458458 0)
(1.02676 -0.00342068 0)
(1.02554 -0.00247212 0)
(1.02466 -0.00167133 0)
(1.02409 -0.000966731 0)
(1.02381 -0.000316398 0)
(1.02272 0.000489364 0)
(1.02294 0.00149142 0)
(1.02339 0.00256545 0)
(1.02408 0.00376624 0)
(1.02503 0.00515987 0)
(1.02626 0.00683029 0)
(1.02781 0.00888875 0)
(1.02969 0.0114873 0)
(1.03195 0.0148389 0)
(1.0346 0.0192495 0)
(1.03758 0.0251715 0)
(1.04071 0.0333112 0)
(1.04341 0.044899 0)
(1.05056 0.0560708 0)
(1.05282 0.0784437 0)
(1.05464 0.108107 0)
(1.04464 0.155067 0)
(0.99561 0.219365 -3.62948e-25)
(0.876101 0.267715 1.41874e-23)
(0.692581 0.207496 -2.29186e-24)
(0.584141 -0.0086291 -4.83191e-25)
(0.715746 -0.223848 3.7903e-23)
(0.895726 -0.265061 7.0228e-24)
(1.00486 -0.211139 -3.4934e-25)
(1.045 -0.143367 0)
(1.05137 -0.0936345 0)
(1.05225 -0.066114 0)
(1.04341 -0.0449002 0)
(1.04071 -0.0333121 0)
(1.03758 -0.0251722 0)
(1.0346 -0.01925 0)
(1.03195 -0.0148392 0)
(1.02969 -0.0114875 0)
(1.02781 -0.00888892 0)
(1.02626 -0.00683042 0)
(1.02503 -0.00515996 0)
(1.02408 -0.0037663 0)
(1.02339 -0.00256548 0)
(1.02294 -0.00149145 0)
(1.02272 -0.000489369 0)
(1.02121 0.000619179 0)
(1.02137 0.00188302 0)
(1.02168 0.00322511 0)
(1.02215 0.00470377 0)
(1.02278 0.00638715 0)
(1.02356 0.00835841 0)
(1.02449 0.010722 0)
(1.02554 0.0136113 0)
(1.02667 0.0171949 0)
(1.02779 0.0216783 0)
(1.02873 0.027276 0)
(1.02923 0.0340871 0)
(1.02887 0.0416317 0)
(1.02528 0.0548493 0)
(1.02437 0.0721601 0)
(1.00424 0.0865833 0)
(0.990536 0.111437 0)
(0.949454 0.124203 0)
(0.891026 0.115567 3.82415e-25)
(0.83489 0.0684397 9.06312e-25)
(0.815046 -0.0104832 0)
(0.846882 -0.0840845 0)
(0.906524 -0.120883 -1.16225e-39)
(0.961783 -0.122121 0)
(0.9989 -0.106702 0)
(1.02022 -0.0816421 0)
(1.02649 -0.0639975 0)
(1.02887 -0.0416325 0)
(1.02923 -0.0340878 0)
(1.02873 -0.0272765 0)
(1.02779 -0.0216787 0)
(1.02667 -0.0171953 0)
(1.02554 -0.0136115 0)
(1.02449 -0.0107222 0)
(1.02356 -0.00835854 0)
(1.02278 -0.00638724 0)
(1.02215 -0.00470383 0)
(1.02168 -0.00322515 0)
(1.02137 -0.00188305 0)
(1.02121 -0.000619192 0)
(1.01941 0.000701858 0)
(1.0195 0.00212989 0)
(1.01967 0.00363219 0)
(1.01993 0.00526264 0)
(1.02024 0.00708195 0)
(1.02059 0.00916079 0)
(1.02095 0.0115832 0)
(1.02126 0.0144507 0)
(1.02141 0.0178869 0)
(1.02129 0.022046 0)
(1.02069 0.0271361 0)
(1.01934 0.0335065 0)
(1.01697 0.0419813 0)
(1.0031 0.0474919 0)
(1.00752 0.053696 0)
(0.992287 0.0647928 0)
(0.975377 0.0709969 0)
(0.950937 0.071982 0)
(0.922957 0.0594975 0)
(0.900534 0.0322486 0)
(0.893354 -0.00480648 3.9776e-27)
(0.905044 -0.0403141 -2.39565e-23)
(0.929828 -0.0640147 0)
(0.957688 -0.0729278 0)
(0.982226 -0.067558 0)
(1.00052 -0.0601377 0)
(1.0031 -0.0474924 0)
(1.01697 -0.0419819 0)
(1.01934 -0.0335069 0)
(1.02069 -0.0271365 0)
(1.02129 -0.0220463 0)
(1.02141 -0.0178872 0)
(1.02126 -0.014451 0)
(1.02095 -0.0115834 0)
(1.02059 -0.00916091 0)
(1.02024 -0.00708205 0)
(1.01993 -0.0052627 0)
(1.01967 -0.00363223 0)
(1.0195 -0.00212993 0)
(1.01941 -0.000701867 0)
(1.01745 0.000739555 0)
(1.01748 0.00223942 0)
(1.01753 0.00380223 0)
(1.01758 0.00547219 0)
(1.01763 0.00729675 0)
(1.01762 0.00932762 0)
(1.01751 0.0116212 0)
(1.01724 0.0142384 0)
(1.01668 0.017242 0)
(1.01568 0.0206915 0)
(1.01402 0.0246283 0)
(1.01136 0.0290333 0)
(1.00712 0.0336792 0)
(1.00019 0.0375579 0)
(0.995623 0.0417291 0)
(0.985956 0.045512 0)
(0.974658 0.0474342 0)
(0.959865 0.0442218 0)
(0.945543 0.0339937 0)
(0.935158 0.0175604 0)
(0.931999 -0.00258051 0)
(0.937181 -0.0221545 0)
(0.948903 -0.0371728 0)
(0.963627 -0.0457508 0)
(0.979887 -0.0460583 0)
(0.991275 -0.0440539 0)
(1.00019 -0.0375581 0)
(1.00712 -0.0336795 0)
(1.01136 -0.0290336 0)
(1.01402 -0.0246285 0)
(1.01568 -0.0206917 0)
(1.01668 -0.0172422 0)
(1.01724 -0.0142386 0)
(1.01751 -0.0116214 0)
(1.01762 -0.00932773 0)
(1.01763 -0.00729683 0)
(1.01758 -0.00547225 0)
(1.01753 -0.00380227 0)
(1.01748 -0.00223944 0)
(1.01745 -0.000739567 0)
(1.01544 0.000738864 0)
(1.01542 0.00223252 0)
(1.01537 0.00377408 0)
(1.01527 0.00539577 0)
(1.0151 0.00712997 0)
(1.01483 0.00900847 0)
(1.0144 0.0110608 0)
(1.01373 0.0133112 0)
(1.01274 0.0157723 0)
(1.0113 0.0184356 0)
(1.00922 0.0212543 0)
(1.00628 0.0241149 0)
(1.00223 0.0267959 0)
(0.996895 0.0289338 0)
(0.992517 0.0315533 0)
(0.985166 0.0326819 0)
(0.977544 0.0324209 0)
(0.968679 0.0286852 0)
(0.960799 0.0211033 0)
(0.955423 0.0105925 0)
(0.953835 -0.00154369 0)
(0.956451 -0.0134363 0)
(0.962595 -0.0233049 0)
(0.970855 -0.0300489 0)
(0.981123 -0.032198 0)
(0.988974 -0.0325264 0)
(0.996894 -0.0289339 0)
(1.00223 -0.026796 0)
(1.00628 -0.0241151 0)
(1.00922 -0.0212544 0)
(1.0113 -0.0184358 0)
(1.01274 -0.0157725 0)
(1.01373 -0.0133113 0)
(1.0144 -0.011061 0)
(1.01483 -0.00900856 0)
(1.0151 -0.00713005 0)
(1.01527 -0.00539582 0)
(1.01537 -0.00377411 0)
(1.01542 -0.00223255 0)
(1.01544 -0.000738871 0)
(1.01347 0.000708713 0)
(1.01341 0.00213702 0)
(1.01329 0.0035977 0)
(1.01308 0.00511127 0)
(1.01277 0.00669629 0)
(1.01233 0.00836773 0)
(1.0117 0.0101343 0)
(1.01084 0.0119942 0)
(1.00966 0.0139286 0)
(1.00809 0.0158926 0)
(1.006 0.0178026 0)
(1.00326 0.0195286 0)
(0.999711 0.020917 0)
(0.995094 0.0219531 0)
(0.991451 0.0236256 0)
(0.986292 0.0238657 0)
(0.981175 0.0229927 0)
(0.975874 0.0196744 0)
(0.971326 0.0140239 0)
(0.968287 0.00689575 0)
(0.967402 -0.000999128 0)
(0.968863 -0.00878059 0)
(0.972354 -0.015598 0)
(0.977147 -0.0207853 0)
(0.983556 -0.0231628 0)
(0.988912 -0.024107 0)
(0.995094 -0.0219531 0)
(0.999711 -0.0209171 0)
(1.00326 -0.0195287 0)
(1.006 -0.0178027 0)
(1.00809 -0.0158927 0)
(1.00966 -0.0139287 0)
(1.01084 -0.0119943 0)
(1.0117 -0.0101344 0)
(1.01233 -0.0083678 0)
(1.01277 -0.00669635 0)
(1.01308 -0.00511132 0)
(1.01329 -0.00359773 0)
(1.01341 -0.00213704 0)
(1.01347 -0.000708723 0)
(1.01161 0.000658431 0)
(1.01153 0.00198166 0)
(1.01136 0.00332349 0)
(1.01109 0.0046946 0)
(1.0107 0.00610278 0)
(1.01016 0.00755106 0)
(1.00945 0.00903507 0)
(1.00852 0.0105391 0)
(1.00732 0.0120304 0)
(1.00582 0.0134493 0)
(1.00397 0.0146913 0)
(1.00175 0.0155669 0)
(0.99917 0.0156896 0)
(0.996355 0.0141246 0)
(0.988788 0.0177241 0)
(0.989003 0.0177506 0)
(0.981609 0.0172308 0)
(0.98206 0.0144276 0)
(0.978935 0.0097509 0)
(0.976963 0.00470794 0)
(0.97641 -0.000679677 5.23604e-37)
(0.977342 -0.00601383 0)
(0.979651 -0.0109347 0)
(0.982941 -0.0156679 0)
(0.987837 -0.0148888 0)
(0.989946 -0.0190274 0)
(0.996354 -0.0141245 0)
(0.99917 -0.0156896 0)
(1.00175 -0.015567 0)
(1.00397 -0.0146914 0)
(1.00582 -0.0134493 0)
(1.00732 -0.0120305 0)
(1.00852 -0.0105392 0)
(1.00945 -0.00903514 0)
(1.01016 -0.00755112 0)
(1.0107 -0.00610283 0)
(1.01109 -0.00469464 0)
(1.01136 -0.00332351 0)
(1.01153 -0.00198168 0)
(1.01161 -0.000658437 0)
(1.00991 0.00059638 0)
(1.00981 0.00179189 0)
(1.00962 0.00299511 0)
(1.00931 0.00420937 0)
(1.00889 0.0054351 0)
(1.00832 0.00666831 0)
(1.00759 0.00789876 0)
(1.00668 0.0091078 0)
(1.00556 0.0102662 0)
(1.00421 0.0113329 0)
(1.00264 0.0122577 0)
(1.00088 0.0129979 0)
(0.999071 0.0135838 0)
(0.99754 0.0143506 0)
(0.988432 0.0103576 0)
(0.989316 0.0114146 0)
(0.987748 0.0121759 0)
(0.9865 0.00897884 0)
(0.984579 0.00600635 0)
(0.983403 0.00265254 0)
(0.983167 -0.000890714 -6.86181e-37)
(0.983896 -0.0043696 0)
(0.985506 -0.00754722 0)
(0.987522 -0.0103826 0)
(0.989778 -0.013387 0)
(0.988432 -0.0103575 0)
(0.997539 -0.0143505 0)
(0.999071 -0.0135838 0)
(1.00088 -0.012998 0)
(1.00264 -0.0122577 0)
(1.00421 -0.011333 0)
(1.00556 -0.0102663 0)
(1.00668 -0.00910785 0)
(1.00759 -0.00789881 0)
(1.00832 -0.00666836 0)
(1.00889 -0.00543514 0)
(1.00931 -0.00420941 0)
(1.00962 -0.00299514 0)
(1.00981 -0.0017919 0)
(1.00991 -0.000596387 0)
(1.00838 0.000529248 0)
(1.00828 0.00158785 0)
(1.00808 0.0026463 0)
(1.00777 0.00370292 0)
(1.00734 0.00475358 0)
(1.00678 0.00579068 0)
(1.00608 0.00680205 0)
(1.00523 0.0077701 0)
(1.00421 0.00867163 0)
(1.00301 0.00947908 0)
(1.00165 0.0101653 0)
(1.00012 0.0107146 0)
(0.998452 0.0111432 0)
(0.996605 0.011518 0)
(0.994299 0.0118844 0)
(0.986227 0.00863399 0)
(0.991422 0.00532041 0)
(0.989636 0.00477231 0)
(0.988507 0.00314103 0)
(0.987932 0.00108755 6.70256e-36)
(0.987932 -0.00108733 -6.70116e-36)
(0.988507 -0.00314081 0)
(0.989636 -0.0047721 0)
(0.991422 -0.00532023 0)
(0.986227 -0.00863383 0)
(0.994298 -0.0118842 0)
(0.996605 -0.011518 0)
(0.998452 -0.0111431 0)
(1.00012 -0.0107146 0)
(1.00165 -0.0101653 0)
(1.00301 -0.00947911 0)
(1.00421 -0.00867166 0)
(1.00523 -0.00777014 0)
(1.00608 -0.00680208 0)
(1.00678 -0.00579072 0)
(1.00734 -0.00475362 0)
(1.00777 -0.00370295 0)
(1.00808 -0.00264632 0)
(1.00828 -0.00158787 0)
(1.00838 -0.000529249 0)
(1.00703 0.000461918 0)
(1.00693 0.00138409 0)
(1.00674 0.00230089 0)
(1.00644 0.00320748 0)
(1.00603 0.00409716 0)
(1.00551 0.00496064 0)
(1.00486 0.00578543 0)
(1.00409 0.00655546 0)
(1.00318 0.00725104 0)
(1.00213 0.00784948 0)
(1.00095 0.00832613 0)
(0.999627 0.00865471 0)
(0.998164 0.00880189 0)
(0.996521 0.00870129 0)
(0.994604 0.00817212 0)
(0.992295 0.00673631 0)
(0.992112 0.00508091 0)
(0.991445 0.00379162 0)
(0.990846 0.00237279 0)
(0.990512 0.00080925 6.23423e-37)
(0.990512 -0.00080906 -6.23277e-37)
(0.990846 -0.0023726 0)
(0.991444 -0.00379144 0)
(0.992112 -0.00508074 0)
(0.992295 -0.00673617 0)
(0.994604 -0.008172 0)
(0.996521 -0.00870121 0)
(0.998164 -0.00880185 0)
(0.999627 -0.0086547 0)
(1.00095 -0.00832614 0)
(1.00213 -0.0078495 0)
(1.00318 -0.00725107 0)
(1.00409 -0.00655549 0)
(1.00486 -0.00578546 0)
(1.00551 -0.00496067 0)
(1.00603 -0.00409719 0)
(1.00644 -0.00320751 0)
(1.00674 -0.00230091 0)
(1.00693 -0.0013841 0)
(1.00703 -0.000461918 0)
(1.00586 0.00039767 0)
(1.00577 0.00119027 0)
(1.00559 0.00197435 0)
(1.00531 0.00274332 0)
(1.00493 0.00348919 0)
(1.00446 0.00420215 0)
(1.00388 0.00487011 0)
(1.00319 0.00547851 0)
(1.0024 0.00601014 0)
(1.0015 0.00644516 0)
(1.0005 0.00676085 0)
(0.999398 0.00693034 0)
(0.998208 0.00691894 0)
(0.996942 0.00667721 0)
(0.995638 0.00613676 0)
(0.994427 0.00524478 0)
(0.993701 0.00416422 0)
(0.993124 0.0030505 0)
(0.992699 0.00187221 0)
(0.992472 0.000632245 0)
(0.992472 -0.000632085 0)
(0.992699 -0.00187205 0)
(0.993124 -0.00305035 0)
(0.993701 -0.00416408 0)
(0.994427 -0.00524465 0)
(0.995638 -0.00613665 0)
(0.996942 -0.00667713 0)
(0.998208 -0.00691888 0)
(0.999398 -0.00693031 0)
(1.0005 -0.00676085 0)
(1.0015 -0.00644517 0)
(1.0024 -0.00601015 0)
(1.00319 -0.00547853 0)
(1.00388 -0.00487014 0)
(1.00446 -0.00420217 0)
(1.00493 -0.00348922 0)
(1.00531 -0.00274335 0)
(1.00559 -0.00197437 0)
(1.00577 -0.00119028 0)
(1.00586 -0.00039767 0)
(1.00486 0.000338497 0)
(1.00478 0.00101219 0)
(1.00461 0.00167578 0)
(1.00436 0.00232187 0)
(1.00403 0.00294212 0)
(1.0036 0.00352687 0)
(1.0031 0.00406498 0)
(1.0025 0.00454355 0)
(1.00182 0.00494792 0)
(1.00106 0.00526157 0)
(1.00023 0.00546602 0)
(0.999335 0.00554055 0)
(0.998394 0.00546198 0)
(0.997434 0.00520566 0)
(0.996499 0.00475156 0)
(0.995663 0.00410202 0)
(0.995014 0.00330887 0)
(0.994523 0.00242882 0)
(0.994185 0.00148568 0)
(0.994012 0.000500311 0)
(0.994012 -0.000500176 0)
(0.994185 -0.00148555 0)
(0.994523 -0.00242869 0)
(0.995014 -0.00330875 0)
(0.995662 -0.00410191 0)
(0.996499 -0.00475146 0)
(0.997434 -0.00520559 0)
(0.998394 -0.00546192 0)
(0.999335 -0.00554051 0)
(1.00023 -0.005466 0)
(1.00106 -0.00526156 0)
(1.00182 -0.00494792 0)
(1.0025 -0.00454355 0)
(1.0031 -0.00406499 0)
(1.0036 -0.00352689 0)
(1.00403 -0.00294214 0)
(1.00436 -0.00232189 0)
(1.00461 -0.0016758 0)
(1.00478 -0.0010122 0)
(1.00486 -0.000338498 0)
(1.00401 0.000285427 0)
(1.00394 0.000852796 0)
(1.00379 0.00140957 0)
(1.00357 0.00194824 0)
(1.00328 0.00246068 0)
(1.00291 0.00293789 0)
(1.00247 0.00336994 0)
(1.00196 0.00374583 0)
(1.00139 0.0040535 0)
(1.00076 0.00427996 0)
(1.00008 0.00441147 0)
(0.999356 0.00443393 0)
(0.998616 0.00433377 0)
(0.997879 0.00409995 0)
(0.997178 0.00372781 0)
(0.996551 0.00322491 0)
(0.996034 0.00261422 0)
(0.995638 0.00192383 0)
(0.995368 0.00117725 0)
(0.995231 0.000396342 6.10662e-37)
(0.995231 -0.000396226 -6.10483e-37)
(0.995368 -0.00117714 0)
(0.995638 -0.00192372 0)
(0.996034 -0.00261412 0)
(0.996551 -0.00322481 0)
(0.997178 -0.00372773 0)
(0.997879 -0.00409988 0)
(0.998616 -0.00433372 0)
(0.999356 -0.00443389 0)
(1.00008 -0.00441145 0)
(1.00076 -0.00427995 0)
(1.00139 -0.00405349 0)
(1.00196 -0.00374582 0)
(1.00247 -0.00336994 0)
(1.00291 -0.0029379 0)
(1.00328 -0.00246069 0)
(1.00357 -0.00194825 0)
(1.00379 -0.00140958 0)
(1.00394 -0.000852802 0)
(1.00401 -0.000285429 0)
(1.0033 0.000238807 0)
(1.00323 0.000712998 0)
(1.0031 0.00117684 0)
(1.00291 0.00162315 0)
(1.00266 0.00204437 0)
(1.00235 0.00243245 0)
(1.00197 0.0027788 0)
(1.00155 0.00307427 0)
(1.00107 0.00330928 0)
(1.00055 0.00347399 0)
(0.999993 0.00355864 0)
(0.999415 0.00355411 0)
(0.998831 0.0034528 0)
(0.998258 0.00325005 0)
(0.997718 0.00294594 0)
(0.997237 0.00254714 0)
(0.996832 0.00206701 0)
(0.996519 0.00152275 0)
(0.996305 0.000932323 0)
(0.996197 0.000313937 0)
(0.996197 -0.000313837 0)
(0.996305 -0.000932225 0)
(0.996519 -0.00152266 0)
(0.996832 -0.00206692 0)
(0.997237 -0.00254706 0)
(0.997718 -0.00294587 0)
(0.998258 -0.00324998 0)
(0.99883 -0.00345275 0)
(0.999415 -0.00355406 0)
(0.999993 -0.00355861 0)
(1.00055 -0.00347396 0)
(1.00107 -0.00330926 0)
(1.00155 -0.00307426 0)
(1.00197 -0.00277879 0)
(1.00235 -0.00243245 0)
(1.00266 -0.00204437 0)
(1.00291 -0.00162315 0)
(1.0031 -0.00117684 0)
(1.00323 -0.000713002 0)
(1.0033 -0.000238809 0)
(1.0027 0.000198517 0)
(1.00265 0.000592348 0)
(1.00254 0.000976523 0)
(1.00237 0.00134446 0)
(1.00216 0.00168936 0)
(1.00189 0.00200421 0)
(1.00158 0.00228175 0)
(1.00122 0.00251453 0)
(1.00083 0.00269508 0)
(1.0004 0.00281609 0)
(0.999951 0.00287076 0)
(0.999487 0.00285327 0)
(0.999024 0.00275947 0)
(0.998574 0.0025876 0)
(0.998154 0.00233923 0)
(0.997778 0.00201979 0)
(0.997462 0.00163843 0)
(0.997216 0.00120705 0)
(0.997048 0.000739109 0)
(0.996962 0.000248892 0)
(0.996962 -0.000248805 0)
(0.997048 -0.000739023 0)
(0.997216 -0.00120697 0)
(0.997462 -0.00163835 0)
(0.997778 -0.00201971 0)
(0.998154 -0.00233917 0)
(0.998574 -0.00258754 0)
(0.999024 -0.00275942 0)
(0.999487 -0.00285323 0)
(0.99995 -0.00287072 0)
(1.0004 -0.00281606 0)
(1.00083 -0.00269506 0)
(1.00122 -0.00251452 0)
(1.00158 -0.00228174 0)
(1.00189 -0.00200421 0)
(1.00216 -0.00168936 0)
(1.00237 -0.00134446 0)
(1.00254 -0.000976525 0)
(1.00265 -0.000592351 0)
(1.0027 -0.000198518 0)
(1.00221 0.000164153 0)
(1.00216 0.000489559 0)
(1.00207 0.000806251 0)
(1.00193 0.00110836 0)
(1.00175 0.00138994 0)
(1.00153 0.00164499 0)
(1.00127 0.00186747 0)
(1.00097 0.00205141 0)
(1.00065 0.00219101 0)
(1.0003 0.00228089 0)
(0.999932 0.00231632 0)
(0.99956 0.00229361 0)
(0.999191 0.00221051 0)
(0.998836 0.00206666 0)
(0.998505 0.00186399 0)
(0.998211 0.00160694 0)
(0.997963 0.00130235 0)
(0.997769 0.000959003 0)
(0.997637 0.000587085 0)
(0.997569 0.000197682 0)
(0.997569 -0.000197606 0)
(0.997637 -0.00058701 0)
(0.997769 -0.000958931 0)
(0.997963 -0.00130228 0)
(0.998211 -0.00160687 0)
(0.998505 -0.00186393 0)
(0.998836 -0.0020666 0)
(0.999191 -0.00221046 0)
(0.99956 -0.00229357 0)
(0.999932 -0.00231629 0)
(1.0003 -0.00228086 0)
(1.00065 -0.00219099 0)
(1.00097 -0.00205139 0)
(1.00127 -0.00186746 0)
(1.00153 -0.00164498 0)
(1.00175 -0.00138994 0)
(1.00193 -0.00110836 0)
(1.00207 -0.00080625 0)
(1.00216 -0.00048956 0)
(1.00221 -0.000164153 0)
(1.0018 0.000135149 0)
(1.00176 0.00040289 0)
(1.00168 0.000662955 0)
(1.00157 0.000910225 0)
(1.00142 0.0011396 0)
(1.00123 0.00134601 0)
(1.00102 0.00152449 0)
(1.00077 0.00167028 0)
(1.00051 0.00177891 0)
(1.00022 0.00184639 0)
(0.999927 0.00186943 0)
(0.999629 0.00184566 0)
(0.999334 0.00177392 0)
(0.999051 0.0016545 0)
(0.99879 0.00148931 0)
(0.998558 0.00128203 0)
(0.998362 0.00103795 0)
(0.99821 0.0007638 0)
(0.998105 0.000467403 0)
(0.998052 0.000157357 0)
(0.998052 -0.00015729 0)
(0.998105 -0.000467337 0)
(0.99821 -0.000763735 0)
(0.998362 -0.00103789 0)
(0.998558 -0.00128197 0)
(0.99879 -0.00148926 0)
(0.999051 -0.00165445 0)
(0.999334 -0.00177388 0)
(0.999628 -0.00184562 0)
(0.999927 -0.00186939 0)
(1.00022 -0.00184636 0)
(1.00051 -0.00177889 0)
(1.00077 -0.00167026 0)
(1.00102 -0.00152448 0)
(1.00123 -0.001346 0)
(1.00142 -0.00113959 0)
(1.00157 -0.000910221 0)
(1.00168 -0.000662952 0)
(1.00176 -0.000402889 0)
(1.0018 -0.000135149 0)
(1.00147 0.000110878 0)
(1.00143 0.000330418 0)
(1.00137 0.000543321 0)