/*--------------------------------*- C++ -*----------------------------------*\
  =========                 |
  \\      /  F ield         | OpenFOAM: The Open Source CFD Toolbox
   \\    /   O peration     | Website:  https://openfoam.org
    \\  /    A nd           | Version:  6
     \\/     M anipulation  |
\*---------------------------------------------------------------------------*/
FoamFile
{
    version     2.0;
    format      ascii;
    class       volVectorField;
    location    "0";
    object      Ulift0;
}
// * * * * * * * * * * * * * * * * * * * * * * * * * * * * * * * * * * * * * //

dimensions      [0 1 -1 0 0 0 0];

internalField   nonuniform List<vector> 
4000
(
(1 2.49917e-10 0)
(1 4.94506e-11 0)
(1 8.81796e-11 0)
(1 8.11908e-11 0)
(1 -1.18948e-12 0)
(1 -4.51795e-11 0)
(1 -8.60876e-11 0)
(1 -1.39326e-10 0)
(1 -7.15767e-11 0)
(1 -1.58487e-10 0)
(1 -2.19823e-11 0)
(1 -1.64e-10 0)
(1 1.81293e-11 0)
(1 -1.63653e-10 0)
(1 5.06845e-11 0)
(1 -1.51225e-10 0)
(1 7.55148e-11 0)
(1 -1.35617e-10 0)
(1 8.93347e-11 0)
(1 -1.2565e-10 0)
(1 9.4716e-11 0)
(1 -1.23202e-10 0)
(1 9.68376e-11 0)
(1 -1.26755e-10 0)
(1 9.93697e-11 0)
(1 -1.34221e-10 0)
(1 1.0393e-10 0)
(1 -1.4346e-10 0)
(1 1.10889e-10 0)
(1 -1.52714e-10 0)
(1 1.19912e-10 0)
(1 -1.60927e-10 0)
(1 1.30234e-10 0)
(1 -1.6777e-10 0)
(1 1.40935e-10 0)
(1 -1.73473e-10 0)
(1 1.51183e-10 0)
(1 -1.78374e-10 0)
(1 1.60365e-10 0)
(1 -1.82694e-10 0)
(1 1.68133e-10 0)
(1 -1.86367e-10 0)
(1 1.74439e-10 0)
(1 -1.89078e-10 0)
(1 1.79245e-10 0)
(1 -1.90622e-10 0)
(1 1.82511e-10 0)
(1 -1.91324e-10 0)
(1 1.83788e-10 0)
(1 -1.92418e-10 0)
(1 1.82348e-10 0)
(1 -1.95896e-10 0)
(1 1.77361e-10 0)
(1 -2.03563e-10 0)
(1 1.68657e-10 0)
(1 -2.15468e-10 0)
(1 1.57409e-10 0)
(1 -2.28558e-10 0)
(1 1.46556e-10 0)
(1 -2.367e-10 0)
(1 1.40202e-10 0)
(1 -2.33185e-10 0)
(1 1.41925e-10 0)
(1 -2.1535e-10 0)
(1 1.52624e-10 0)
(1 -1.88636e-10 0)
(1 1.69126e-10 0)
(1 -1.6669e-10 0)
(1 1.85254e-10 0)
(1 -1.63849e-10 0)
(1 1.96278e-10 0)
(1 -1.83564e-10 0)
(1 2.00154e-10 0)
(1 -2.12124e-10 0)
(1 1.9877e-10 0)
(1 -2.12744e-10 0)
(1 2.09862e-10 0)
(1 -1.43722e-10 0)
(1 2.37406e-10 0)
(1 -3.17061e-11 0)
(1 2.37531e-10 0)
(1 6.79315e-11 0)
(1 2.4592e-10 0)
(1 1.57429e-10 0)
(1 2.96268e-10 0)
(1 7.30902e-11 0)
(1 1.74792e-10 0)
(1 -2.34561e-10 0)
(1 3.73041e-11 0)
(1 -2.2774e-10 0)
(1 2.81348e-10 0)
(1 -1.06427e-10 0)
(1 1.70785e-10 0)
(1 -5.09005e-10 0)
(1 -2.20435e-10 0)
(1 -1.08705e-10 0)
(1 3.47735e-10 0)
(1 5.03185e-10 0)
(1 3.53299e-10 0)
(1 1.14117e-10 0)
(1 -1.48483e-10 0)
(1 -2.184e-10 0)
(1 -1.26565e-10 0)
(1 -1.26761e-10 0)
(1 -2.24592e-10 0)
(1 -2.79058e-10 0)
(1 -3.62272e-10 0)
(1 -3.7984e-10 0)
(1 -3.58863e-10 0)
(1 -3.74589e-10 0)
(1 -3.05376e-10 0)
(1 -3.61018e-10 0)
(1 -2.64729e-10 0)
(1 -3.49355e-10 0)
(1 -2.27681e-10 0)
(1 -3.26334e-10 0)
(1 -1.93629e-10 0)
(1 -3.00694e-10 0)
(1 -1.70027e-10 0)
(1 -2.81383e-10 0)
(1 -1.5611e-10 0)
(1 -2.69183e-10 0)
(1 -1.47046e-10 0)
(1 -2.62398e-10 0)
(1 -1.39607e-10 0)
(1 -2.59524e-10 0)
(1 -1.32077e-10 0)
(1 -2.58734e-10 0)
(1 -1.23434e-10 0)
(1 -2.58192e-10 0)
(1 -1.1306e-10 0)
(1 -2.56651e-10 0)
(1 -1.01122e-10 0)
(1 -2.53804e-10 0)
(1 -8.84094e-11 0)
(1 -2.50146e-10 0)
(1 -7.59001e-11 0)
(1 -2.46385e-10 0)
(1 -6.44844e-11 0)
(1 -2.43074e-10 0)
(1 -5.46034e-11 0)
(1 -2.40298e-10 0)
(1 -4.61918e-11 0)
(1 -2.37718e-10 0)
(1 -3.90668e-11 0)
(1 -2.35113e-10 0)
(1 -3.34177e-11 0)
(1 -2.33101e-10 0)
(1 -3.04985e-11 0)
(1 -2.33676e-10 0)
(1 -3.25687e-11 0)
(1 -2.39873e-10 0)
(1 -4.21297e-11 0)
(1 -2.5415e-10 0)
(1 -5.98018e-11 0)
(1 -2.75795e-10 0)
(1 -8.22945e-11 0)
(1 -2.98848e-10 0)
(1 -1.01425e-10 0)
(1 -3.12237e-10 0)
(1 -1.06131e-10 0)
(1 -3.03953e-10 0)
(1 -8.76358e-11 0)
(1 -2.68217e-10 0)
(1 -4.56334e-11 0)
(1 -2.11893e-10 0)
(1 8.37239e-12 0)
(1 -1.55212e-10 0)
(1 5.51754e-11 0)
(1 -1.20459e-10 0)
(1 8.16112e-11 0)
(1 -1.15933e-10 0)
(1 8.68064e-11 0)
(1 -1.3242e-10 0)
(1 8.42725e-11 0)
(1 -1.27669e-10 0)
(1 1.24531e-10 0)
(1 -3.54455e-11 0)
(1 2.2283e-10 0)
(1 8.92619e-11 0)
(1 2.6701e-10 0)
(1 1.53368e-10 0)
(1 3.06606e-10 0)
(1 2.92385e-10 0)
(1 4.2629e-10 0)
(1 2.66375e-10 0)
(1 1.60368e-10 0)
(1 -2.67243e-10 0)
(1 -2.12938e-10 0)
(1 -2.43474e-10 0)
(1 2.7311e-10 0)
(1 2.60757e-10 0)
(1 1.65412e-10 0)
(1 -6.47012e-10 0)
(1 -7.39615e-10 0)
(1 -5.67157e-10 0)
(1 4.32531e-10 0)
(1 8.97061e-10 0)
(1 6.57226e-10 0)
(1 2.16737e-10 0)
(1 -3.67275e-10 0)
(1 -4.64661e-10 0)
(1 -4.85925e-10 0)
(1 -5.01063e-10 0)
(1 -5.27813e-10 0)
(1 -5.32254e-10 0)
(1 -5.65757e-10 0)
(1 -5.33129e-10 0)
(1 -5.50971e-10 0)
(1 -5.02487e-10 0)
(1 -5.30425e-10 0)
(1 -4.86748e-10 0)
(1 -5.23215e-10 0)
(1 -4.79473e-10 0)
(1 -5.13426e-10 0)
(1 -4.67528e-10 0)
(1 -4.97915e-10 0)
(1 -4.51175e-10 0)
(1 -4.79244e-10 0)
(1 -4.30466e-10 0)
(1 -4.57046e-10 0)
(1 -4.05062e-10 0)
(1 -4.32353e-10 0)
(1 -3.77724e-10 0)
(1 -4.08575e-10 0)
(1 -3.5213e-10 0)
(1 -3.88069e-10 0)
(1 -3.29939e-10 0)
(1 -3.71056e-10 0)
(1 -3.10686e-10 0)
(1 -3.56238e-10 0)
(1 -2.93197e-10 0)
(1 -3.42425e-10 0)
(1 -2.76641e-10 0)
(1 -3.29126e-10 0)
(1 -2.60935e-10 0)
(1 -3.16564e-10 0)
(1 -2.46633e-10 0)
(1 -3.05337e-10 0)
(1 -2.34303e-10 0)
(1 -2.95848e-10 0)
(1 -2.24259e-10 0)
(1 -2.88109e-10 0)
(1 -2.16474e-10 0)
(1 -2.82003e-10 0)
(1 -2.11001e-10 0)
(1 -2.77961e-10 0)
(1 -2.08787e-10 0)
(1 -2.77673e-10 0)
(1 -2.11889e-10 0)
(1 -2.83969e-10 0)
(1 -2.23018e-10 0)
(1 -2.99708e-10 0)
(1 -2.43825e-10 0)
(1 -3.25028e-10 0)
(1 -2.72076e-10 0)
(1 -3.54889e-10 0)
(1 -3.00064e-10 0)
(1 -3.78148e-10 0)
(1 -3.15254e-10 0)
(1 -3.80513e-10 0)
(1 -3.0475e-10 0)
(1 -3.51101e-10 0)
(1 -2.6196e-10 0)
(1 -2.89745e-10 0)
(1 -1.92065e-10 0)
(1 -2.10358e-10 0)
(1 -1.12309e-10 0)
(1 -1.35702e-10 0)
(1 -4.20677e-11 0)
(1 -8.15165e-11 0)
(1 9.4369e-12 0)
(1 -5.00776e-11 0)
(1 3.85737e-11 0)
(1 -3.29214e-11 0)
(1 6.00206e-11 0)
(1 1.3966e-11 0)
(1 1.21011e-10 0)
(1 1.07819e-10 0)
(1 1.66767e-10 0)
(1 1.23791e-10 0)
(1 9.98482e-11 0)
(1 9.90678e-11 0)
(1 1.52533e-10 0)
(1 2.26792e-10 0)
(1 2.64834e-10 0)
(1 7.77695e-11 0)
(1 -1.21401e-10 0)
(1 -3.34198e-10 0)
(1 -1.75536e-10 0)
(1 1.09353e-10 0)
(1 5.64631e-10 0)
(1 3.30284e-10 0)
(1 -1.48485e-10 0)
(1 -7.96663e-10 0)
(1 -9.8164e-10 0)
(1 -2.835e-10 0)
(1 3.5225e-10 0)
(1 4.28959e-10 0)
(1 1.72611e-10 0)
(1 -5.29668e-10 0)
(1 -7.02301e-10 0)
(1 -8.05708e-10 0)
(1 -8.52402e-10 0)
(1 -8.6152e-10 0)
(1 -8.39081e-10 0)
(1 -8.2146e-10 0)
(1 -7.95938e-10 0)
(1 -7.73015e-10 0)
(1 -7.67739e-10 0)
(1 -7.51451e-10 0)
(1 -7.65505e-10 0)
(1 -7.47859e-10 0)
(1 -7.68849e-10 0)
(1 -7.44085e-10 0)
(1 -7.66027e-10 0)
(1 -7.35177e-10 0)
(1 -7.54122e-10 0)
(1 -7.16995e-10 0)
(1 -7.2939e-10 0)
(1 -6.85961e-10 0)
(1 -6.92484e-10 0)
(1 -6.45425e-10 0)
(1 -6.50264e-10 0)
(1 -6.02988e-10 0)
(1 -6.10208e-10 0)
(1 -5.64385e-10 0)
(1 -5.75956e-10 0)
(1 -5.31335e-10 0)
(1 -5.4733e-10 0)
(1 -5.02779e-10 0)
(1 -5.22489e-10 0)
(1 -4.77038e-10 0)
(1 -4.99826e-10 0)
(1 -4.53032e-10 0)
(1 -4.78621e-10 0)
(1 -4.3073e-10 0)
(1 -4.59192e-10 0)
(1 -4.10682e-10 0)
(1 -4.42085e-10 0)
(1 -3.93375e-10 0)
(1 -4.27675e-10 0)
(1 -3.79073e-10 0)
(1 -4.16072e-10 0)
(1 -3.67948e-10 0)
(1 -4.07572e-10 0)
(1 -3.60718e-10 0)
(1 -4.03573e-10 0)
(1 -3.59481e-10 0)
(1 -4.06776e-10 0)
(1 -3.67291e-10 0)
(1 -4.20346e-10 0)
(1 -3.86704e-10 0)
(1 -4.45676e-10 0)
(1 -4.16764e-10 0)
(1 -4.79003e-10 0)
(1 -4.50447e-10 0)
(1 -5.09863e-10 0)
(1 -4.74248e-10 0)
(1 -5.22553e-10 0)
(1 -4.72063e-10 0)
(1 -5.02029e-10 0)
(1 -4.32406e-10 0)
(1 -4.4193e-10 0)
(1 -3.55597e-10 0)
(1 -3.50023e-10 0)
(1 -2.56125e-10 0)
(1 -2.47024e-10 0)
(1 -1.56551e-10 0)
(1 -1.54445e-10 0)
(1 -7.18935e-11 0)
(1 -8.08035e-11 0)
(1 -6.42566e-12 0)
(1 -2.89044e-11 0)
(1 3.77612e-11 0)
(1 1.0564e-11 0)
(1 8.60619e-11 0)
(1 7.49994e-11 0)
(1 1.46671e-10 0)
(1 1.06202e-10 0)
(1 9.39885e-11 0)
(1 -1.00763e-11 0)
(1 -3.13034e-11 0)
(1 -3.33992e-11 0)
(1 6.91022e-11 0)
(1 1.05788e-10 0)
(1 5.16913e-11 0)
(1 -1.78374e-10 0)
(1 -3.13796e-10 0)
(1 -3.08202e-10 0)
(1 8.9183e-11 0)
(1 4.78073e-10 0)
(1 5.79885e-10 0)
(1 7.26255e-11 0)
(1 -6.49379e-10 0)
(1 -1.19017e-09 0)
(1 -8.64856e-10 0)
(1 -2.02987e-10 0)
(1 1.47967e-10 0)
(1 9.67594e-11 0)
(1 -6.42126e-10 0)
(1 -8.52011e-10 0)
(1 -1.02034e-09 0)
(1 -1.10755e-09 0)
(1 -1.12338e-09 0)
(1 -1.10104e-09 0)
(1 -1.07703e-09 0)
(1 -1.03969e-09 0)
(1 -1.03078e-09 0)
(1 -1.0078e-09 0)
(1 -1.02044e-09 0)
(1 -1.00578e-09 0)
(1 -1.02545e-09 0)
(1 -1.00872e-09 0)
(1 -1.0266e-09 0)
(1 -1.0057e-09 0)
(1 -1.01848e-09 0)
(1 -9.90966e-10 0)
(1 -9.94956e-10 0)
(1 -9.57948e-10 0)
(1 -9.52728e-10 0)
(1 -9.07725e-10 0)
(1 -8.97942e-10 0)
(1 -8.49817e-10 0)
(1 -8.41353e-10 0)
(1 -7.94221e-10 0)
(1 -7.90585e-10 0)
(1 -7.45917e-10 0)
(1 -7.47711e-10 0)
(1 -7.04874e-10 0)
(1 -7.11026e-10 0)
(1 -6.6879e-10 0)
(1 -6.78052e-10 0)
(1 -6.35524e-10 0)
(1 -6.47111e-10 0)
(1 -6.04177e-10 0)
(1 -6.18045e-10 0)
(1 -5.75102e-10 0)
(1 -5.91455e-10 0)
(1 -5.49077e-10 0)
(1 -5.68065e-10 0)
(1 -5.2668e-10 0)
(1 -5.48267e-10 0)
(1 -5.08273e-10 0)
(1 -5.32424e-10 0)
(1 -4.94454e-10 0)
(1 -5.21639e-10 0)
(1 -4.87117e-10 0)
(1 -5.18706e-10 0)
(1 -4.89654e-10 0)
(1 -5.27523e-10 0)
(1 -5.05726e-10 0)
(1 -5.50968e-10 0)
(1 -5.36222e-10 0)
(1 -5.87279e-10 0)
(1 -5.75736e-10 0)
(1 -6.26907e-10 0)
(1 -6.10698e-10 0)
(1 -6.52514e-10 0)
(1 -6.21899e-10 0)
(1 -6.44311e-10 0)
(1 -5.91955e-10 0)
(1 -5.89329e-10 0)
(1 -5.14794e-10 0)
(1 -4.90017e-10 0)
(1 -4.0115e-10 0)
(1 -3.66132e-10 0)
(1 -2.75949e-10 0)
(1 -2.45888e-10 0)
(1 -1.63398e-10 0)
(1 -1.46583e-10 0)
(1 -7.18685e-11 0)
(1 -6.98782e-11 0)
(1 -2.79842e-12 0)
(1 -1.30321e-11 0)
(1 5.07007e-11 0)
(1 4.89706e-11 0)
(1 1.17318e-10 0)
(1 1.17615e-10 0)
(1 1.31113e-10 0)
(1 5.67863e-11 0)
(1 -3.0584e-11 0)
(1 -1.12591e-10 0)
(1 -1.22974e-10 0)
(1 -7.11718e-11 0)
(1 -3.49778e-12 0)
(1 -8.31502e-11 0)
(1 -2.34378e-10 0)
(1 -4.30998e-10 0)
(1 -3.73152e-10 0)
(1 -7.04695e-11 0)
(1 4.29649e-10 0)
(1 5.31276e-10 0)
(1 1.99711e-10 0)
(1 -5.93173e-10 0)
(1 -1.21959e-09 0)
(1 -1.08067e-09 0)
(1 -4.99945e-10 0)
(1 -8.66751e-11 0)
(1 1.32646e-11 0)
(1 -8.72139e-10 0)
(1 -1.05326e-09 0)
(1 -1.23825e-09 0)
(1 -1.34993e-09 0)
(1 -1.38762e-09 0)
(1 -1.38103e-09 0)
(1 -1.35938e-09 0)
(1 -1.33816e-09 0)
(1 -1.32179e-09 0)
(1 -1.31896e-09 0)
(1 -1.31581e-09 0)
(1 -1.32365e-09 0)
(1 -1.32098e-09 0)
(1 -1.32773e-09 0)
(1 -1.31928e-09 0)
(1 -1.32117e-09 0)
(1 -1.30504e-09 0)
(1 -1.29835e-09 0)
(1 -1.27135e-09 0)
(1 -1.25333e-09 0)
(1 -1.21569e-09 0)
(1 -1.18917e-09 0)
(1 -1.1461e-09 0)
(1 -1.11769e-09 0)
(1 -1.07529e-09 0)
(1 -1.05017e-09 0)
(1 -1.01175e-09 0)
(1 -9.91844e-10 0)
(1 -9.57494e-10 0)
(1 -9.42008e-10 0)
(1 -9.10182e-10 0)
(1 -8.97581e-10 0)
(1 -8.66738e-10 0)
(1 -8.55806e-10 0)
(1 -8.25253e-10 0)
(1 -8.15716e-10 0)
(1 -7.85653e-10 0)
(1 -7.77819e-10 0)
(1 -7.48793e-10 0)
(1 -7.43229e-10 0)
(1 -7.1583e-10 0)
(1 -7.12757e-10 0)
(1 -6.87267e-10 0)
(1 -6.86879e-10 0)
(1 -6.63741e-10 0)
(1 -6.66535e-10 0)
(1 -6.46796e-10 0)
(1 -6.54192e-10 0)
(1 -6.399e-10 0)
(1 -6.54107e-10 0)
(1 -6.47679e-10 0)
(1 -6.70721e-10 0)
(1 -6.73255e-10 0)
(1 -7.04698e-10 0)
(1 -7.13844e-10 0)
(1 -7.48914e-10 0)
(1 -7.5728e-10 0)
(1 -7.86227e-10 0)
(1 -7.82472e-10 0)
(1 -7.93235e-10 0)
(1 -7.66201e-10 0)
(1 -7.49681e-10 0)
(1 -6.94347e-10 0)
(1 -6.50232e-10 0)
(1 -5.71765e-10 0)
(1 -5.10454e-10 0)
(1 -4.23517e-10 0)
(1 -3.6236e-10 0)
(1 -2.83153e-10 0)
(1 -2.35123e-10 0)
(1 -1.70044e-10 0)
(1 -1.36551e-10 0)
(1 -8.34991e-11 0)
(1 -6.13823e-11 0)
(1 -1.62974e-11 0)
(1 4.31028e-12 0)
(1 5.57985e-11 0)
(1 8.61005e-11 0)
(1 1.25966e-10 0)
(1 1.08104e-10 0)
(1 5.04504e-11 0)
(1 -6.5846e-11 0)
(1 -1.62695e-10 0)
(1 -2.16071e-10 0)
(1 -1.86996e-10 0)
(1 -1.63816e-10 0)
(1 -2.14753e-10 0)
(1 -3.84684e-10 0)
(1 -5.31044e-10 0)
(1 -5.19194e-10 0)
(1 -1.89115e-10 0)
(1 2.46683e-10 0)
(1 4.63912e-10 0)
(1 1.70165e-10 0)
(1 -5.23034e-10 0)
(1 -1.16026e-09 0)
(1 -1.17742e-09 0)
(1 -7.11247e-10 0)
(1 -2.60226e-10 0)
(1 -5.11699e-11 0)
(1 -1.03188e-09 0)
(1 -1.22811e-09 0)
(1 -1.4231e-09 0)
(1 -1.55149e-09 0)
(1 -1.60789e-09 0)
(1 -1.61914e-09 0)
(1 -1.61242e-09 0)
(1 -1.59931e-09 0)
(1 -1.59611e-09 0)
(1 -1.59367e-09 0)
(1 -1.60303e-09 0)
(1 -1.60516e-09 0)
(1 -1.61467e-09 0)
(1 -1.61117e-09 0)
(1 -1.61379e-09 0)
(1 -1.60148e-09 0)
(1 -1.59394e-09 0)
(1 -1.56975e-09 0)
(1 -1.54879e-09 0)
(1 -1.5112e-09 0)
(1 -1.47824e-09 0)
(1 -1.43151e-09 0)
(1 -1.39342e-09 0)
(1 -1.34509e-09 0)
(1 -1.30904e-09 0)
(1 -1.26452e-09 0)
(1 -1.23429e-09 0)
(1 -1.1951e-09 0)
(1 -1.17058e-09 0)
(1 -1.13536e-09 0)
(1 -1.1146e-09 0)
(1 -1.08127e-09 0)
(1 -1.06242e-09 0)
(1 -1.02955e-09 0)
(1 -1.01176e-09 0)
(1 -9.79256e-10 0)
(1 -9.62717e-10 0)
(1 -9.31089e-10 0)
(1 -9.16522e-10 0)
(1 -8.8666e-10 0)
(1 -8.74686e-10 0)
(1 -8.47113e-10 0)
(1 -8.38029e-10 0)
(1 -8.13137e-10 0)
(1 -8.07357e-10 0)
(1 -7.86051e-10 0)
(1 -7.84784e-10 0)
(1 -7.6897e-10 0)
(1 -7.74511e-10 0)
(1 -7.66916e-10 0)
(1 -7.82064e-10 0)
(1 -7.85062e-10 0)
(1 -8.10916e-10 0)
(1 -8.23749e-10 0)
(1 -8.57285e-10 0)
(1 -8.73919e-10 0)
(1 -9.06057e-10 0)
(1 -9.14709e-10 0)
(1 -9.31853e-10 0)
(1 -9.18451e-10 0)
(1 -9.07372e-10 0)
(1 -8.61945e-10 0)
(1 -8.1716e-10 0)
(1 -7.40607e-10 0)
(1 -6.69137e-10 0)
(1 -5.74873e-10 0)
(1 -4.95212e-10 0)
(1 -4.03889e-10 0)
(1 -3.361e-10 0)
(1 -2.62032e-10 0)
(1 -2.14233e-10 0)
(1 -1.57171e-10 0)
(1 -1.2525e-10 0)
(1 -7.83224e-11 0)
(1 -5.34703e-11 0)
(1 -5.25992e-12 0)
(1 2.94405e-11 0)
(1 8.48668e-11 0)
(1 1.09394e-10 0)
(1 1.06514e-10 0)
(1 3.24783e-11 0)
(1 -8.48858e-11 0)
(1 -2.10377e-10 0)
(1 -2.87986e-10 0)
(1 -3.0618e-10 0)
(1 -3.06597e-10 0)
(1 -3.86547e-10 0)
(1 -5.34582e-10 0)
(1 -6.84052e-10 0)
(1 -6.41675e-10 0)
(1 -3.45232e-10 0)
(1 1.01308e-10 0)
(1 3.15989e-10 0)
(1 1.09454e-10 0)
(1 -5.12208e-10 0)
(1 -1.09564e-09 0)
(1 -1.16645e-09 0)
(1 -7.98888e-10 0)
(1 -3.89659e-10 0)
(1 -1.09196e-10 0)
(1 -1.3436e-09 0)
(1 -1.47964e-09 0)
(1 -1.65457e-09 0)
(1 -1.78572e-09 0)
(1 -1.85551e-09 0)
(1 -1.88204e-09 0)
(1 -1.88728e-09 0)
(1 -1.8882e-09 0)
(1 -1.89104e-09 0)
(1 -1.90048e-09 0)
(1 -1.91063e-09 0)
(1 -1.92296e-09 0)
(1 -1.9292e-09 0)
(1 -1.93398e-09 0)
(1 -1.92953e-09 0)
(1 -1.92233e-09 0)
(1 -1.90386e-09 0)
(1 -1.8813e-09 0)
(1 -1.84658e-09 0)
(1 -1.80846e-09 0)
(1 -1.76045e-09 0)
(1 -1.71285e-09 0)
(1 -1.6598e-09 0)
(1 -1.61159e-09 0)
(1 -1.56131e-09 0)
(1 -1.51851e-09 0)
(1 -1.47467e-09 0)
(1 -1.43864e-09 0)
(1 -1.40055e-09 0)
(1 -1.36941e-09 0)
(1 -1.33463e-09 0)
(1 -1.30588e-09 0)
(1 -1.27218e-09 0)
(1 -1.24414e-09 0)
(1 -1.21066e-09 0)
(1 -1.18323e-09 0)
(1 -1.15038e-09 0)
(1 -1.12431e-09 0)
(1 -1.09311e-09 0)
(1 -1.0694e-09 0)
(1 -1.04069e-09 0)
(1 -1.01994e-09 0)
(1 -9.94283e-10 0)
(1 -9.7698e-10 0)
(1 -9.55001e-10 0)
(1 -9.42126e-10 0)
(1 -9.25449e-10 0)
(1 -9.19206e-10 0)
(1 -9.10572e-10 0)
(1 -9.14076e-10 0)
(1 -9.16747e-10 0)
(1 -9.32555e-10 0)
(1 -9.47563e-10 0)
(1 -9.74623e-10 0)
(1 -9.98097e-10 0)
(1 -1.02908e-09 0)
(1 -1.05018e-09 0)
(1 -1.07127e-09 0)
(1 -1.07431e-09 0)
(1 -1.06922e-09 0)
(1 -1.03945e-09 0)
(1 -9.9717e-10 0)
(1 -9.29426e-10 0)
(1 -8.51792e-10 0)
(1 -7.55455e-10 0)
(1 -6.59071e-10 0)
(1 -5.56199e-10 0)
(1 -4.65684e-10 0)
(1 -3.78854e-10 0)
(1 -3.1113e-10 0)
(1 -2.48426e-10 0)
(1 -2.0277e-10 0)
(1 -1.57079e-10 0)
(1 -1.22909e-10 0)
(1 -8.21108e-11 0)
(1 -4.42593e-11 0)
(1 6.73971e-12 0)
(1 5.2857e-11 0)
(1 8.74393e-11 0)
(1 7.37373e-11 0)
(1 -2.498e-13 0)
(1 -1.33485e-10 0)
(1 -2.77529e-10 0)
(1 -3.90277e-10 0)
(1 -4.44295e-10 0)
(1 -4.86111e-10 0)
(1 -5.71554e-10 0)
(1 -7.20605e-10 0)
(1 -8.37031e-10 0)
(1 -7.92397e-10 0)
(1 -4.93417e-10 0)
(1 -8.14512e-11 0)
(1 1.64548e-10 0)
(1 8.97999e-12 0)
(1 -5.04322e-10 0)
(1 -1.02579e-09 0)
(1 -1.15439e-09 0)
(1 -8.86318e-10 0)
(1 -4.92514e-10 0)
(1 -1.5306e-10 0)
(1 -1.55033e-09 0)
(1 -1.70281e-09 0)
(1 -1.87147e-09 0)
(1 -2.00255e-09 0)
(1 -2.08008e-09 0)
(1 -2.11689e-09 0)
(1 -2.13245e-09 0)
(1 -2.14139e-09 0)
(1 -2.15381e-09 0)
(1 -2.16922e-09 0)
(1 -2.18852e-09 0)
(1 -2.2046e-09 0)
(1 -2.21866e-09 0)
(1 -2.22418e-09 0)
(1 -2.22455e-09 0)
(1 -2.21387e-09 0)
(1 -2.19611e-09 0)
(1 -2.1658e-09 0)
(1 -2.12813e-09 0)
(1 -2.07939e-09 0)
(1 -2.02659e-09 0)
(1 -1.96754e-09 0)
(1 -1.90977e-09 0)
(1 -1.85065e-09 0)
(1 -1.7969e-09 0)
(1 -1.74426e-09 0)
(1 -1.69834e-09 0)
(1 -1.65324e-09 0)
(1 -1.61406e-09 0)
(1 -1.57409e-09 0)
(1 -1.53865e-09 0)
(1 -1.50067e-09 0)
(1 -1.46628e-09 0)
(1 -1.42852e-09 0)
(1 -1.3943e-09 0)
(1 -1.35658e-09 0)
(1 -1.32305e-09 0)
(1 -1.28654e-09 0)
(1 -1.25502e-09 0)
(1 -1.22089e-09 0)
(1 -1.19236e-09 0)
(1 -1.1615e-09 0)
(1 -1.13667e-09 0)
(1 -1.10974e-09 0)
(1 -1.08939e-09 0)
(1 -1.06768e-09 0)
(1 -1.0537e-09 0)
(1 -1.03973e-09 0)
(1 -1.03526e-09 0)
(1 -1.03275e-09 0)
(1 -1.04141e-09 0)
(1 -1.05304e-09 0)
(1 -1.07581e-09 0)
(1 -1.10011e-09 0)
(1 -1.13217e-09 0)
(1 -1.16029e-09 0)
(1 -1.18894e-09 0)
(1 -1.20494e-09 0)
(1 -1.21212e-09 0)
(1 -1.19755e-09 0)
(1 -1.16677e-09 0)
(1 -1.10991e-09 0)
(1 -1.03617e-09 0)
(1 -9.40235e-10 0)
(1 -8.35413e-10 0)
(1 -7.20551e-10 0)
(1 -6.10783e-10 0)
(1 -5.05266e-10 0)
(1 -4.16543e-10 0)
(1 -3.39174e-10 0)
(1 -2.80282e-10 0)
(1 -2.2887e-10 0)
(1 -1.8995e-10 0)
(1 -1.50256e-10 0)
(1 -1.14973e-10 0)
(1 -6.96926e-11 0)
(1 -2.26518e-11 0)
(1 2.86171e-11 0)
(1 5.64348e-11 0)
(1 4.07234e-11 0)
(1 -4.5192e-11 0)
(1 -1.90344e-10 0)
(1 -3.5895e-10 0)
(1 -5.01773e-10 0)
(1 -5.97547e-10 0)
(1 -6.71464e-10 0)
(1 -7.77754e-10 0)
(1 -9.14272e-10 0)
(1 -1.01129e-09 0)
(1 -9.38684e-10 0)
(1 -6.44916e-10 0)
(1 -2.40089e-10 0)
(1 5.64499e-12 0)
(1 -9.45504e-11 0)
(1 -5.24537e-10 0)
(1 -9.79034e-10 0)
(1 -1.12574e-09 0)
(1 -9.29487e-10 0)
(1 -5.79246e-10 0)
(1 -1.94506e-10 0)
(1 -1.90772e-09 0)
(1 -1.99851e-09 0)
(1 -2.14029e-09 0)
(1 -2.26284e-09 0)
(1 -2.34171e-09 0)
(1 -2.38285e-09 0)
(1 -2.40312e-09 0)
(1 -2.41829e-09 0)
(1 -2.43621e-09 0)
(1 -2.45955e-09 0)
(1 -2.48461e-09 0)
(1 -2.50875e-09 0)
(1 -2.52709e-09 0)
(1 -2.53874e-09 0)
(1 -2.54003e-09 0)
(1 -2.53152e-09 0)
(1 -2.5102e-09 0)
(1 -2.47766e-09 0)
(1 -2.4325e-09 0)
(1 -2.37845e-09 0)
(1 -2.31613e-09 0)
(1 -2.25079e-09 0)
(1 -2.18332e-09 0)
(1 -2.11848e-09 0)
(1 -2.05589e-09 0)
(1 -1.99875e-09 0)
(1 -1.94491e-09 0)
(1 -1.89629e-09 0)
(1 -1.84971e-09 0)
(1 -1.80672e-09 0)
(1 -1.76374e-09 0)
(1 -1.72264e-09 0)
(1 -1.68026e-09 0)
(1 -1.63919e-09 0)
(1 -1.59646e-09 0)
(1 -1.55529e-09 0)
(1 -1.513e-09 0)
(1 -1.47314e-09 0)
(1 -1.43286e-09 0)
(1 -1.3957e-09 0)
(1 -1.35869e-09 0)
(1 -1.32539e-09 0)
(1 -1.29254e-09 0)
(1 -1.26378e-09 0)
(1 -1.2361e-09 0)
(1 -1.21349e-09 0)
(1 -1.19319e-09 0)
(1 -1.17956e-09 0)
(1 -1.17028e-09 0)
(1 -1.16986e-09 0)
(1 -1.17552e-09 0)
(1 -1.19108e-09 0)
(1 -1.21254e-09 0)
(1 -1.24204e-09 0)
(1 -1.27338e-09 0)
(1 -1.30641e-09 0)
(1 -1.333e-09 0)
(1 -1.35143e-09 0)
(1 -1.35287e-09 0)
(1 -1.33617e-09 0)
(1 -1.29465e-09 0)
(1 -1.23055e-09 0)
(1 -1.14162e-09 0)
(1 -1.03502e-09 0)
(1 -9.1354e-10 0)
(1 -7.88323e-10 0)
(1 -6.64361e-10 0)
(1 -5.52616e-10 0)
(1 -4.55084e-10 0)
(1 -3.7744e-10 0)
(1 -3.14934e-10 0)
(1 -2.67684e-10 0)
(1 -2.27234e-10 0)
(1 -1.92264e-10 0)
(1 -1.5404e-10 0)
(1 -1.11946e-10 0)
(1 -6.22443e-11 0)
(1 -1.63796e-11 0)
(1 8.2848e-12 0)
(1 -1.83242e-11 0)
(1 -1.14934e-10 0)
(1 -2.78239e-10 0)
(1 -4.70838e-10 0)
(1 -6.47823e-10 0)
(1 -7.81081e-10 0)
(1 -8.88792e-10 0)
(1 -1.00432e-09 0)
(1 -1.12977e-09 0)
(1 -1.19472e-09 0)
(1 -1.10125e-09 0)
(1 -8.03632e-10 0)
(1 -4.1495e-10 0)
(1 -1.56069e-10 0)
(1 -2.07503e-10 0)
(1 -5.50606e-10 0)
(1 -9.48414e-10 0)
(1 -1.12124e-09 0)
(1 -9.92156e-10 0)
(1 -6.54584e-10 0)
(1 -2.27218e-10 0)
(1 -2.13948e-09 0)
(1 -2.2542e-09 0)
(1 -2.39055e-09 0)
(1 -2.50734e-09 0)
(1 -2.58452e-09 0)
(1 -2.62526e-09 0)
(1 -2.64564e-09 0)
(1 -2.66184e-09 0)
(1 -2.68363e-09 0)
(1 -2.71225e-09 0)
(1 -2.74507e-09 0)
(1 -2.77641e-09 0)
(1 -2.80284e-09 0)
(1 -2.82001e-09 0)
(1 -2.82658e-09 0)
(1 -2.81951e-09 0)
(1 -2.79877e-09 0)
(1 -2.76275e-09 0)
(1 -2.71356e-09 0)
(1 -2.65228e-09 0)
(1 -2.58331e-09 0)
(1 -2.50919e-09 0)
(1 -2.43455e-09 0)
(1 -2.3612e-09 0)
(1 -2.29234e-09 0)
(1 -2.22776e-09 0)
(1 -2.16876e-09 0)
(1 -2.11359e-09 0)
(1 -2.06265e-09 0)
(1 -2.0134e-09 0)
(1 -1.96617e-09 0)
(1 -1.91864e-09 0)
(1 -1.87181e-09 0)
(1 -1.82382e-09 0)
(1 -1.77634e-09 0)
(1 -1.72797e-09 0)
(1 -1.68088e-09 0)
(1 -1.63377e-09 0)
(1 -1.58883e-09 0)
(1 -1.54471e-09 0)
(1 -1.50354e-09 0)
(1 -1.46374e-09 0)
(1 -1.42732e-09 0)
(1 -1.39274e-09 0)
(1 -1.36239e-09 0)
(1 -1.33493e-09 0)
(1 -1.31311e-09 0)
(1 -1.29607e-09 0)
(1 -1.28702e-09 0)
(1 -1.28504e-09 0)
(1 -1.2929e-09 0)
(1 -1.30891e-09 0)
(1 -1.33442e-09 0)
(1 -1.36568e-09 0)
(1 -1.40159e-09 0)
(1 -1.43596e-09 0)
(1 -1.46552e-09 0)
(1 -1.48237e-09 0)
(1 -1.48261e-09 0)
(1 -1.45926e-09 0)
(1 -1.411e-09 0)
(1 -1.33478e-09 0)
(1 -1.23428e-09 0)
(1 -1.11225e-09 0)
(1 -9.77816e-10 0)
(1 -8.38085e-10 0)
(1 -7.04283e-10 0)
(1 -5.83164e-10 0)
(1 -4.8231e-10 0)
(1 -4.02018e-10 0)
(1 -3.42425e-10 0)
(1 -2.97168e-10 0)
(1 -2.62323e-10 0)
(1 -2.29454e-10 0)
(1 -1.95148e-10 0)
(1 -1.53221e-10 0)
(1 -1.06813e-10 0)
(1 -6.37007e-11 0)
(1 -4.71486e-11 0)
(1 -8.36749e-11 0)
(1 -1.95531e-10 0)
(1 -3.77802e-10 0)
(1 -5.97373e-10 0)
(1 -8.08004e-10 0)
(1 -9.80231e-10 0)
(1 -1.11914e-09 0)
(1 -1.24872e-09 0)
(1 -1.36044e-09 0)
(1 -1.39626e-09 0)
(1 -1.27169e-09 0)
(1 -9.64448e-10 0)
(1 -5.77799e-10 0)
(1 -3.12453e-10 0)
(1 -3.19494e-10 0)
(1 -5.92146e-10 0)
(1 -9.36423e-10 0)
(1 -1.11834e-09 0)
(1 -1.03614e-09 0)
(1 -7.26541e-10 0)
(1 -2.60516e-10 0)
(1 -2.51509e-09 0)
(1 -2.57573e-09 0)
(1 -2.68695e-09 0)
(1 -2.79215e-09 0)
(1 -2.86201e-09 0)
(1 -2.89662e-09 0)
(1 -2.912e-09 0)
(1 -2.92593e-09 0)
(1 -2.94856e-09 0)
(1 -2.9816e-09 0)
(1 -3.02056e-09 0)
(1 -3.05985e-09 0)
(1 -3.09358e-09 0)
(1 -3.11798e-09 0)
(1 -3.12939e-09 0)
(1 -3.12583e-09 0)
(1 -3.10523e-09 0)
(1 -3.06776e-09 0)
(1 -3.01401e-09 0)
(1 -2.94732e-09 0)
(1 -2.87097e-09 0)
(1 -2.78965e-09 0)
(1 -2.70685e-09 0)
(1 -2.62641e-09 0)
(1 -2.54998e-09 0)
(1 -2.47915e-09 0)
(1 -2.41342e-09 0)
(1 -2.35283e-09 0)
(1 -2.29566e-09 0)
(1 -2.24123e-09 0)
(1 -2.18769e-09 0)
(1 -2.13483e-09 0)
(1 -2.08135e-09 0)
(1 -2.02765e-09 0)
(1 -1.97308e-09 0)
(1 -1.91879e-09 0)
(1 -1.8645e-09 0)
(1 -1.81147e-09 0)
(1 -1.75946e-09 0)
(1 -1.70979e-09 0)
(1 -1.66198e-09 0)
(1 -1.61712e-09 0)
(1 -1.57464e-09 0)
(1 -1.53577e-09 0)
(1 -1.50023e-09 0)
(1 -1.46948e-09 0)
(1 -1.44367e-09 0)
(1 -1.42493e-09 0)
(1 -1.41363e-09 0)
(1 -1.41182e-09 0)
(1 -1.41948e-09 0)
(1 -1.4377e-09 0)
(1 -1.46477e-09 0)
(1 -1.4994e-09 0)
(1 -1.53716e-09 0)
(1 -1.57424e-09 0)
(1 -1.60372e-09 0)
(1 -1.61996e-09 0)
(1 -1.61565e-09 0)
(1 -1.58643e-09 0)
(1 -1.52803e-09 0)
(1 -1.44054e-09 0)
(1 -1.32554e-09 0)
(1 -1.18954e-09 0)
(1 -1.04014e-09 0)
(1 -8.88303e-10 0)
(1 -7.43836e-10 0)
(1 -6.16846e-10 0)
(1 -5.12613e-10 0)
(1 -4.33865e-10 0)
(1 -3.7729e-10 0)
(1 -3.38331e-10 0)
(1 -3.08626e-10 0)
(1 -2.81693e-10 0)
(1 -2.50355e-10 0)
(1 -2.12141e-10 0)
(1 -1.68499e-10 0)
(1 -1.3163e-10 0)
(1 -1.23576e-10 0)
(1 -1.73293e-10 0)
(1 -3.01612e-10 0)
(1 -5.05836e-10 0)
(1 -7.53832e-10 0)
(1 -1.00016e-09 0)
(1 -1.20992e-09 0)
(1 -1.37895e-09 0)
(1 -1.51637e-09 0)
(1 -1.61192e-09 0)
(1 -1.61365e-09 0)
(1 -1.45972e-09 0)
(1 -1.14056e-09 0)
(1 -7.55112e-10 0)
(1 -4.7459e-10 0)
(1 -4.35318e-10 0)
(1 -6.40386e-10 0)
(1 -9.43019e-10 0)
(1 -1.13907e-09 0)
(1 -1.0997e-09 0)
(1 -7.91429e-10 0)
(1 -2.87754e-10 0)
(1 -2.75599e-09 0)
(1 -2.84702e-09 0)
(1 -2.95813e-09 0)
(1 -3.05651e-09 0)
(1 -3.11761e-09 0)
(1 -3.14167e-09 0)
(1 -3.14683e-09 0)
(1 -3.1537e-09 0)
(1 -3.17447e-09 0)
(1 -3.21045e-09 0)
(1 -3.25635e-09 0)
(1 -3.30431e-09 0)
(1 -3.34761e-09 0)
(1 -3.38065e-09 0)
(1 -3.3995e-09 0)
(1 -3.40083e-09 0)
(1 -3.38274e-09 0)
(1 -3.34455e-09 0)
(1 -3.28793e-09 0)
(1 -3.21587e-09 0)
(1 -3.13301e-09 0)
(1 -3.04392e-09 0)
(1 -2.95349e-09 0)
(1 -2.86515e-09 0)
(1 -2.78159e-09 0)
(1 -2.70367e-09 0)
(1 -2.63182e-09 0)
(1 -2.56507e-09 0)
(1 -2.50242e-09 0)
(1 -2.44213e-09 0)
(1 -2.38321e-09 0)
(1 -2.32438e-09 0)
(1 -2.26526e-09 0)
(1 -2.20518e-09 0)
(1 -2.14464e-09 0)
(1 -2.08377e-09 0)
(1 -2.02341e-09 0)
(1 -1.96376e-09 0)
(1 -1.90591e-09 0)
(1 -1.84998e-09 0)
(1 -1.79678e-09 0)
(1 -1.74618e-09 0)
(1 -1.699e-09 0)
(1 -1.65522e-09 0)
(1 -1.6159e-09 0)
(1 -1.58131e-09 0)
(1 -1.55312e-09 0)
(1 -1.53223e-09 0)
(1 -1.52043e-09 0)
(1 -1.51858e-09 0)
(1 -1.52802e-09 0)
(1 -1.54844e-09 0)
(1 -1.57913e-09 0)
(1 -1.6171e-09 0)
(1 -1.65881e-09 0)
(1 -1.69836e-09 0)
(1 -1.72943e-09 0)
(1 -1.7443e-09 0)
(1 -1.73651e-09 0)
(1 -1.70003e-09 0)
(1 -1.63182e-09 0)
(1 -1.53113e-09 0)
(1 -1.40165e-09 0)
(1 -1.24982e-09 0)
(1 -1.08581e-09 0)
(1 -9.20833e-10 0)
(1 -7.67321e-10 0)
(1 -6.34986e-10 0)
(1 -5.30634e-10 0)
(1 -4.55433e-10 0)
(1 -4.06583e-10 0)
(1 -3.76699e-10 0)
(1 -3.57077e-10 0)
(1 -3.38259e-10 0)
(1 -3.13749e-10 0)
(1 -2.79949e-10 0)
(1 -2.40893e-10 0)
(1 -2.09371e-10 0)
(1 -2.10004e-10 0)
(1 -2.71883e-10 0)
(1 -4.17192e-10 0)
(1 -6.43728e-10 0)
(1 -9.21361e-10 0)
(1 -1.20364e-09 0)
(1 -1.45198e-09 0)
(1 -1.65177e-09 0)
(1 -1.80131e-09 0)
(1 -1.88312e-09 0)
(1 -1.85301e-09 0)
(1 -1.66459e-09 0)
(1 -1.32497e-09 0)
(1 -9.3048e-10 0)
(1 -6.33599e-10 0)
(1 -5.51684e-10 0)
(1 -6.98221e-10 0)
(1 -9.59583e-10 0)
(1 -1.16153e-09 0)
(1 -1.15226e-09 0)
(1 -8.5897e-10 0)
(1 -3.17476e-10 0)
(1 -3.13637e-09 0)
(1 -3.17944e-09 0)
(1 -3.2704e-09 0)
(1 -3.35457e-09 0)
(1 -3.40073e-09 0)
(1 -3.40852e-09 0)
(1 -3.39873e-09 0)
(1 -3.39545e-09 0)
(1 -3.41203e-09 0)
(1 -3.4498e-09 0)
(1 -3.50179e-09 0)
(1 -3.55855e-09 0)
(1 -3.61157e-09 0)
(1 -3.65419e-09 0)
(1 -3.6812e-09 0)
(1 -3.68859e-09 0)
(1 -3.67365e-09 0)
(1 -3.63585e-09 0)
(1 -3.57681e-09 0)
(1 -3.50022e-09 0)
(1 -3.41095e-09 0)
(1 -3.3147e-09 0)
(1 -3.21649e-09 0)
(1 -3.12056e-09 0)
(1 -3.02943e-09 0)
(1 -2.94459e-09 0)
(1 -2.86603e-09 0)
(1 -2.79312e-09 0)
(1 -2.72424e-09 0)
(1 -2.65804e-09 0)
(1 -2.59299e-09 0)
(1 -2.52813e-09 0)
(1 -2.46249e-09 0)
(1 -2.39599e-09 0)
(1 -2.32869e-09 0)
(1 -2.26119e-09 0)
(1 -2.19392e-09 0)
(1 -2.12772e-09 0)
(1 -2.06319e-09 0)
(1 -2.00106e-09 0)
(1 -1.94157e-09 0)
(1 -1.8853e-09 0)
(1 -1.83253e-09 0)
(1 -1.78392e-09 0)
(1 -1.7399e-09 0)
(1 -1.70162e-09 0)
(1 -1.6702e-09 0)
(1 -1.64732e-09 0)
(1 -1.63426e-09 0)
(1 -1.63263e-09 0)
(1 -1.64318e-09 0)
(1 -1.66601e-09 0)
(1 -1.69952e-09 0)
(1 -1.74094e-09 0)
(1 -1.78557e-09 0)
(1 -1.82732e-09 0)
(1 -1.8585e-09 0)
(1 -1.87136e-09 0)
(1 -1.8583e-09 0)
(1 -1.81359e-09 0)
(1 -1.73371e-09 0)
(1 -1.61909e-09 0)
(1 -1.47383e-09 0)
(1 -1.30624e-09 0)
(1 -1.12739e-09 0)
(1 -9.50776e-10 0)
(1 -7.89496e-10 0)
(1 -6.54647e-10 0)
(1 -5.52604e-10 0)
(1 -4.84693e-10 0)
(1 -4.46411e-10 0)
(1 -4.29125e-10 0)
(1 -4.21643e-10 0)
(1 -4.1348e-10 0)
(1 -3.96722e-10 0)
(1 -3.68816e-10 0)
(1 -3.34423e-10 0)
(1 -3.09031e-10 0)
(1 -3.18257e-10 0)
(1 -3.93122e-10 0)
(1 -5.55987e-10 0)
(1 -8.06499e-10 0)
(1 -1.11508e-09 0)
(1 -1.43468e-09 0)
(1 -1.72199e-09 0)
(1 -1.95184e-09 0)
(1 -2.11082e-09 0)
(1 -2.17666e-09 0)
(1 -2.11237e-09 0)
(1 -1.88939e-09 0)
(1 -1.52826e-09 0)
(1 -1.12131e-09 0)
(1 -7.99668e-10 0)
(1 -6.71191e-10 0)
(1 -7.61102e-10 0)
(1 -9.90953e-10 0)
(1 -1.20239e-09 0)
(1 -1.2209e-09 0)
(1 -9.2026e-10 0)
(1 -3.4224e-10 0)
(1 -3.37829e-09 0)
(1 -3.45646e-09 0)
(1 -3.55201e-09 0)
(1 -3.62799e-09 0)
(1 -3.65761e-09 0)
(1 -3.64363e-09 0)
(1 -3.61278e-09 0)
(1 -3.59426e-09 0)
(1 -3.60414e-09 0)
(1 -3.64329e-09 0)
(1 -3.70274e-09 0)
(1 -3.77047e-09 0)
(1 -3.83594e-09 0)
(1 -3.8909e-09 0)
(1 -3.92887e-09 0)
(1 -3.9447e-09 0)
(1 -3.93509e-09 0)
(1 -3.89914e-09 0)
(1 -3.83872e-09 0)
(1 -3.75784e-09 0)
(1 -3.66231e-09 0)
(1 -3.55841e-09 0)
(1 -3.45206e-09 0)
(1 -3.3478e-09 0)
(1 -3.24876e-09 0)
(1 -3.15646e-09 0)
(1 -3.07112e-09 0)
(1 -2.99176e-09 0)
(1 -2.91692e-09 0)
(1 -2.8449e-09 0)
(1 -2.77424e-09 0)
(1 -2.70355e-09 0)
(1 -2.63208e-09 0)
(1 -2.55952e-09 0)
(1 -2.48619e-09 0)
(1 -2.41239e-09 0)
(1 -2.33891e-09 0)
(1 -2.26646e-09 0)
(1 -2.19595e-09 0)
(1 -2.12784e-09 0)
(1 -2.06275e-09 0)
(1 -2.00106e-09 0)
(1 -1.94338e-09 0)
(1 -1.89011e-09 0)
(1 -1.8421e-09 0)
(1 -1.80041e-09 0)
(1 -1.76659e-09 0)
(1 -1.74211e-09 0)
(1 -1.72877e-09 0)
(1 -1.72801e-09 0)
(1 -1.74085e-09 0)
(1 -1.76687e-09 0)
(1 -1.8045e-09 0)
(1 -1.85025e-09 0)
(1 -1.89898e-09 0)
(1 -1.94345e-09 0)
(1 -1.97548e-09 0)
(1 -1.98626e-09 0)
(1 -1.96792e-09 0)
(1 -1.91407e-09 0)
(1 -1.82177e-09 0)
(1 -1.69182e-09 0)
(1 -1.5298e-09 0)
(1 -1.34515e-09 0)
(1 -1.1512e-09 0)
(1 -9.62991e-10 0)
(1 -7.95396e-10 0)
(1 -6.60089e-10 0)
(1 -5.63993e-10 0)
(1 -5.07578e-10 0)
(1 -4.85128e-10 0)
(1 -4.85454e-10 0)
(1 -4.9531e-10 0)
(1 -5.01755e-10 0)
(1 -4.96002e-10 0)
(1 -4.75045e-10 0)
(1 -4.45215e-10 0)
(1 -4.23622e-10 0)
(1 -4.38524e-10 0)
(1 -5.22701e-10 0)
(1 -7.00696e-10 0)
(1 -9.73544e-10 0)
(1 -1.31259e-09 0)
(1 -1.67e-09 0)
(1 -1.99762e-09 0)
(1 -2.26115e-09 0)
(1 -2.43593e-09 0)
(1 -2.49217e-09 0)
(1 -2.39765e-09 0)
(1 -2.13766e-09 0)
(1 -1.74699e-09 0)
(1 -1.31753e-09 0)
(1 -9.67675e-10 0)
(1 -7.92606e-10 0)
(1 -8.28517e-10 0)
(1 -1.02402e-09 0)
(1 -1.23973e-09 0)
(1 -1.27933e-09 0)
(1 -9.8693e-10 0)
(1 -3.70723e-10 0)
(1 -3.74965e-09 0)
(1 -3.78941e-09 0)
(1 -3.8678e-09 0)
(1 -3.92682e-09 0)
(1 -3.93224e-09 0)
(1 -3.89047e-09 0)
(1 -3.83445e-09 0)
(1 -3.7984e-09 0)
(1 -3.80055e-09 0)
(1 -3.84084e-09 0)
(1 -3.90796e-09 0)
(1 -3.98739e-09 0)
(1 -4.06643e-09 0)
(1 -4.13508e-09 0)
(1 -4.18525e-09 0)
(1 -4.21073e-09 0)
(1 -4.20737e-09 0)
(1 -4.174e-09 0)
(1 -4.11252e-09 0)
(1 -4.02759e-09 0)
(1 -3.92572e-09 0)
(1 -3.81413e-09 0)
(1 -3.69928e-09 0)
(1 -3.58643e-09 0)
(1 -3.47907e-09 0)
(1 -3.37901e-09 0)
(1 -3.2864e-09 0)
(1 -3.20031e-09 0)
(1 -3.11912e-09 0)
(1 -3.0411e-09 0)
(1 -2.9644e-09 0)
(1 -2.88773e-09 0)
(1 -2.81014e-09 0)
(1 -2.73148e-09 0)
(1 -2.65179e-09 0)
(1 -2.5716e-09 0)
(1 -2.49162e-09 0)
(1 -2.41285e-09 0)
(1 -2.33598e-09 0)
(1 -2.26175e-09 0)
(1 -2.19066e-09 0)
(1 -2.12337e-09 0)
(1 -2.06029e-09 0)
(1 -2.00209e-09 0)
(1 -1.94964e-09 0)
(1 -1.90435e-09 0)
(1 -1.86764e-09 0)
(1 -1.84141e-09 0)
(1 -1.82746e-09 0)
(1 -1.82752e-09 0)
(1 -1.84227e-09 0)
(1 -1.87139e-09 0)
(1 -1.91274e-09 0)
(1 -1.96254e-09 0)
(1 -2.01459e-09 0)
(1 -2.06109e-09 0)
(1 -2.09278e-09 0)
(1 -2.10036e-09 0)
(1 -2.0751e-09 0)