/*--------------------------------*- C++ -*----------------------------------*\
| =========                 |                                                 |
| \\      /  F ield         | OpenFOAM: The Open Source CFD Toolbox           |
|  \\    /   O peration     | Version:  v2106                                 |
|   \\  /    A nd           | Website:  www.openfoam.com                      |
|    \\/     M anipulation  |                                                 |
\*---------------------------------------------------------------------------*/
FoamFile
{
    version     2.0;
    format      ascii;
    arch        "LSB;label=32;scalar=64";
    class       volScalarField;
    location    "0";
    object      p;
}
// * * * * * * * * * * * * * * * * * * * * * * * * * * * * * * * * * * * * * //

dimensions      [0 2 -2 0 0 0 0];

internalField   nonuniform List<scalar> 
11644
(
27.4114
27.5051
27.6921
27.9717
28.3422
28.8015
29.346
29.9707
30.6683
31.4291
32.2402
33.0851
33.9432
34.7904
35.5989
36.3386
36.9785
37.4893
37.8457
38.0288
38.0288
37.8457
37.4893
36.9785
36.3386
35.5989
34.7904
33.9432
33.0851
32.2402
31.4292
30.6683
29.9707
29.346
28.8015
28.3422
27.9717
27.6922
27.5051
27.4114
27.2378
27.3322
27.5208
27.803
28.1778
28.6436
29.1975
29.8355
30.5512
31.336
32.1776
33.0603
33.9635
34.862
35.7264
36.5233
37.2178
37.7756
38.1666
38.3682
38.3682
38.1666
37.7756
37.2178
36.5233
35.7264
34.8621
33.9635
33.0603
32.1777
31.336
30.5512
29.8355
29.1976
28.6436
28.1778
27.803
27.5208
27.3323
27.2379
26.89
26.9855
27.1766
27.4633
27.8455
28.3228
28.894
29.5566
30.3067
31.1376
32.0394
32.9976
33.9922
34.9968
35.9783
36.897
37.7092
38.3697
38.8372
39.0798
39.0798
38.8372
38.3697
37.7092
36.8971
35.9783
34.9969
33.9922
32.9976
32.0394
31.1377
30.3067
29.5567
28.894
28.3229
27.8456
27.4633
27.1766
26.9855
26.89
26.3655
26.462
26.6555
26.9469
27.3375
27.8285
28.4212
29.1161
29.9127
30.8082
31.7968
32.8674
34.0023
35.1744
36.346
37.4679
38.481
39.3208
39.924
40.2399
40.2399
39.924
39.3208
38.4811
37.4679
36.346
35.1744
34.0023
32.8675
31.7968
30.8083
29.9127
29.1161
28.4212
27.8285
27.3375
26.947
26.6555
26.462
26.3655
25.6624
25.759
25.9533
26.2472
26.6436
27.1461
27.7592
28.4875
29.3356
30.3069
31.4024
32.6184
33.9433
35.3529
36.8054
38.2397
39.5734
40.7092
41.5422
41.9844
41.9844
41.5423
40.7092
39.5734
38.2397
36.8054
35.3529
33.9433
32.6185
31.4024
30.3069
29.3356
28.4875
27.7592
27.1462
26.6436
26.2473
25.9534
25.7591
25.6624
24.7805
24.8755
25.067
25.358
25.7534
26.2593
26.8841
27.6373
28.5305
29.5757
30.7851
32.168
33.7274
35.4517
37.2981
39.197
41.032
42.6572
43.8835
44.547
44.547
43.8835
42.6572
41.032
39.1971
37.2982
35.4518
33.7275
32.1681
30.7851
29.5758
28.5305
27.6374
26.8841
26.2594
25.7534
25.3581
25.067
24.8755
24.7805
23.7229
23.8134
23.9964
24.276
24.6585
25.1529
25.7712
26.5285
27.4441
28.5411
29.8468
31.3914
33.2064
35.3245
37.6934
40.2713
41.8177
44.1346
46.0321
47.221
47.475
46.7414
45.1672
43.0275
40.2713
37.6934
35.3245
33.2065
31.3914
29.8468
28.5412
27.4441
26.5285
25.7712
25.153
24.6585
24.276
23.9965
23.8135
23.723
22.498
22.5803
22.7472
23.0035
23.3567
23.8175
24.401
25.127
26.0222
27.1207
28.4666
30.1144
32.1267
34.2256
36.9442
40.1132
43.6482
47.1982
50.3261
52.3869
52.8325
51.5306
48.8536
45.4404
41.8683
38.4905
35.5383
32.1267
30.1144
28.4667
27.1207
26.0222
25.1271
24.401
23.8175
23.3567
23.0035
22.7473
22.5803
22.498
21.1208
21.1907
21.3328
21.5519
21.8556
22.2553
22.767
23.4129
24.224
25.2428
26.5284
28.1629
30.2599
32.82
36.0543
40.1635
44.4073
49.7789
55.1303
59.1673
60.4331
58.3785
53.8702
48.4133
43.1622
37.9879
34.3389
30.2599
28.163
26.5285
25.2428
24.224
23.413
22.767
22.2554
21.8557
21.5519
21.3328
21.1907
21.1208
19.6142
19.6675
19.776
19.9436
20.1771
20.486
20.8847
21.3934
22.0415
22.8713
23.9452
25.3563
27.2459
30.1163
33.5375
38.0785
44.0666
52.22
61.9702
70.8569
74.3225
69.9433
60.7208
51.0907
42.6462
35.7369
31.6829
27.2459
25.3563
23.9452
22.8714
22.0415
21.3935
20.8847
20.486
20.1771
19.9437
19.776
19.6675
19.6142
18.009
18.0422
18.1096
18.2138
18.3588
18.5507
18.7987
19.1161
19.5228
20.0483
20.7382
21.6641
22.942
25.7044
28.5221
33.2315
40.1239
51.336
68.8371
92.4834
105.567
91.0412
67.4968
49.6015
38.1007
30.4711
26.9605
22.9421
21.6641
20.7382
20.0483
19.5228
19.1161
18.7987
18.5507
18.3588
18.2138
18.1096
18.0422
18.009
16.3425
16.3534
16.3752
16.4084
16.4536
16.5117
16.5842
16.6736
16.7838
16.9207
17.094
17.3196
17.6246
19.6555
20.7773
23.873
28.5033
37.3027
58.1723
56.1462
35.4662
26.5578
21.5991
20.1416
17.6246
17.3196
17.094
16.9207
16.7838
16.6737
16.5842
16.5117
16.4536
16.4085
16.3752
16.3534
16.3425
14.656
14.6442
14.6199
14.5809
14.5244
14.4458
14.3383
14.1926
13.995
13.7251
13.3519
12.8266
12.0696
12.894
11.7673
11.6887
10.5216
7.27144
-2.81883
-2.17621
7.63537
9.97629
10.9655
12.3894
12.0696
12.8266
13.3519
13.7251
13.995
14.1926
14.3383
14.4458
14.5244
14.581
14.6199
14.6442
14.656
12.9911
12.9584
12.8913
12.786
12.6362
12.433
12.163
11.8075
11.3396
10.7199
9.89006
8.76105
7.19351
6.82625
4.02764
1.28597
-4.19111
-15.6096
-36.5092
-34.6805
-13.7533
-3.32907
2.10132
5.5698
7.19349
8.76104
9.89005
10.7199
11.3396
11.8075
12.163
12.433
12.6362
12.786
12.8913
12.9584
12.9911
11.3865
11.3363
11.2335
11.0731
10.847
10.5435
10.1457
9.63032
8.96474
8.10325
6.98122
5.50616
3.54383
2.39945
-0.970688
-4.63519
-10.6117
-20.0305
-32.5022
-45.194
-51.4341
-43.8235
-30.8253
-18.6745
-9.37361
-3.14172
0.85576
3.5438
5.50614
6.98121
8.10324
8.96473
9.63032
10.1457
10.5435
10.847
11.0731
11.2335
11.3363
11.3865
9.87483
9.81151
9.68226
9.48167
9.20114
8.82828
8.34594
7.73093
6.95221
5.96853
4.72552
3.15265
1.1616
-0.29706
-3.4611
-7.50192
-11.926
-17.9053
-24.0957
-28.9211
-30.4577
-27.9547
-22.6001
-16.3492
-10.5632
-5.36139
-1.77895
1.16157
3.15262
4.7255
5.96852
6.9522
7.73093
8.34594
8.82828
9.20114
9.48167
9.68226
9.81152
9.87483
8.48026
8.40865
8.26295
8.03807
7.72603
7.31557
6.79159
6.13438
5.31886
4.31359
3.08012
1.57256
-0.262129
-2.48296
-4.35652
-7.40895
-10.6151
-14.3232
-17.7214
-20.103
-20.8177
-19.643
-16.9379
-13.4005
-9.0883
-5.8241
-2.48299
-0.262157
1.57254
3.0801
4.31358
5.31885
6.13437
6.79158
7.31557
7.72603
8.03807
8.26295
8.40865
8.48026
7.21813
7.14283
6.9901
6.75568
6.43296
6.01287
5.48366
4.83071
4.0365
3.08085
1.94177
0.597489
-0.969223
-2.76231
-4.33874
-6.5891
-8.85991
-11.2274
-13.2399
-14.569
-14.9557
-14.3173
-12.7884
-10.6557
-7.75977
-5.44171
-2.76234
-0.969246
0.597469
1.94175
3.08084
4.03649
4.8307
5.48365
6.01286
6.43295
6.75568
6.9901
7.14282
7.21813
6.09529
6.0202
5.86838
5.63661
5.31999
4.91202
4.40462
3.78834
3.0528
2.18744
1.18301
0.033894
-1.25799
-2.67762
-3.94318
-5.59148
-7.21138
-8.77829
-10.0486
-10.8583
-11.0897
-10.7067
-9.76836
-8.40729
-6.41583
-4.76174
-2.67764
-1.25801
0.0338771
1.18299
2.18743
3.05279
3.78833
4.40461
4.91201
5.31999
5.6366
5.86838
6.02019
6.09529
5.11136
5.03946
4.89456
4.67447
4.37601
3.99508
3.52696
2.96659
2.30921
1.55128
0.69179
-0.265763
-1.31085
-2.42293
-3.42255
-4.63647
-5.80958
-6.88375
-7.7277
-8.25355
-8.4021
-8.15577
-7.54351
-6.6328
-5.22668
-4.03111
-2.42294
-1.31087
-0.265777
0.691778
1.55127
2.3092
2.96658
3.52695
3.99508
4.376
4.67447
4.89456
5.03946
5.11136
4.26042
4.19377
4.05981
3.85731
3.58454
3.23944
2.81993
2.32425
1.75161
1.10292
0.38189
-0.403632
-1.24008
-2.10641
-2.8947
-3.79859
-4.66331
-5.42245
-6.0063
-6.36471
-6.46524
-6.29843
-5.87989
-5.2469
-4.22792
-3.35174
-2.10643
-1.24009
-0.403643
0.381879
1.10291
1.7516
2.32424
2.81992
3.23943
3.58453
3.8573
4.0598
4.19376
4.26042
3.53277
3.47255
3.35183
3.17012
2.92683
2.62144
2.25375
1.82426
1.33464
0.788313
0.191217
-0.4474
-1.11415
-1.79083
-2.45456
-3.09367
-3.70559
-4.22031
-4.60176
-4.82322
-4.8684
-4.7339
-4.42976
-3.97785
-3.40954
-2.45457
-1.79084
-1.11416
-0.447409
0.191208
0.788304
1.33463
1.82426
2.25375
2.62144
2.92683
3.17012
3.35182
3.47254
3.53277
2.91652
2.86323
2.75665
2.59683
2.384
2.11867
1.80188
1.43549
1.02252
0.567579
0.0772907
-0.439205
-0.969876
-1.49954
-2.00982
-2.47936
-2.89199
-3.22291
-3.45472
-3.57418
-3.57418
-3.45472
-3.22291
-2.89199
-2.47936
-2.00983
-1.49955
-0.969884
-0.439213
0.0772828
0.567571
1.02252
1.43548
1.80187
2.11866
2.384
2.59683
2.75664
2.86322
2.91651
2.39883
2.35247
2.25992
2.12161
1.93827
1.71106
1.44173
1.13285
0.788032
0.412187
0.0118022
-0.404838
-0.827513
-1.24409
-1.64078
-2.00284
-2.31597
-2.56552
-2.73935
-2.82859
-2.82859
-2.73935
-2.56553
-2.31598
-2.00284
-1.64079
-1.2441
-0.82752
-0.404844
0.0117954
0.41218
0.788025
1.13285
1.44172
1.71105
1.93827
2.12161
2.25992
2.35246
2.39883
1.96691
1.92712
1.84783
1.72968
1.57369
1.38134
1.15472
0.896679
0.610909
0.302161
-0.0236459
-0.359336
-0.696468
-1.02545
-1.33583
-1.61673
-1.8575
-2.04816
-2.18034
-2.24801
-2.24801
-2.18034
-2.04816
-1.85751
-1.61673
-1.33583
-1.02546
-0.696473
-0.359341
-0.0236517
0.302155
0.610903
0.896674
1.15472
1.38133
1.57368
1.72968
1.84783
1.92711
1.96691
1.60858
1.57482
1.50763
1.40776
1.27633
1.11497
0.925855
0.711777
0.476272
0.223673
-0.040832
-0.311184
-0.580509
-0.84125
-1.0854
-1.30484
-1.49173
-1.63896
-1.74065
-1.79259
-1.79259
-1.74065
-1.63896
-1.49173
-1.30484
-1.0854
-0.841255
-0.580514
-0.311189
-0.040837
0.223668
0.476267
0.711772
0.92585
1.11497
1.27633
1.40775
1.50763
1.57481
1.60858
1.31272
1.28432
1.22789
1.14418
1.03434
0.89996
0.74314
0.566499
0.373245
0.167194
-0.0472137
-0.264944
-0.480438
-0.687742
-0.880688
-1.05315
-1.19931
-1.31399
-1.39296
-1.43322
-1.43322
-1.39296
-1.31399
-1.19931
-1.05315
-0.880691
-0.687745
-0.480442
-0.264948
-0.0472181
0.16719
0.37324
0.566495
0.743135
0.899956
1.03433
1.14417
1.22789
1.28431
1.31271
1.06937
1.04566
0.998612
0.928929
0.837712
0.726456
0.597079
0.451946
0.293878
0.126165
-0.0474575
-0.222846
-0.395524
-0.560792
-0.713873
-0.850097
-0.965102
-1.05505
-1.11685
-1.14831
-1.14831
-1.11685
-1.05506
-0.965104
-0.850099
-0.713875
-0.560795
-0.395528
-0.22285
-0.0474613
0.126161
0.293874
0.451942
0.597075
0.726452
0.837708
0.928925
0.998608
1.04566
1.06936
0.86986
0.850194
0.811189
0.753507
0.678148
0.586463
0.480159
0.361309
0.232348
0.0960616
-0.0444395
-0.185766
-0.32432
-0.456383
-0.578237
-0.686291
-0.777236
-0.848191
-0.896848
-0.921592
-0.921592
-0.896848
-0.848192
-0.777237
-0.686293
-0.578239
-0.456386
-0.324323
-0.185769
-0.0444428
0.0960581
0.232344
0.361306
0.480156
0.586459
0.678145
0.753503
0.811186
0.85019
0.869856
0.706726
0.69049
0.65831
0.610778
0.548781
0.473506
0.386442
0.289372
0.184363
0.07375
-0.0398972
-0.153818
-0.265122
-0.370861
-0.468123
-0.554128
-0.626339
-0.682567
-0.721068
-0.740629
-0.74063
-0.721068
-0.682568
-0.626341
-0.55413
-0.468125
-0.370863
-0.265124
-0.153821
-0.0399001
0.0737469
0.18436
0.289369
0.386439
0.473503
0.548777
0.610774
0.658307
0.690486
0.706723
0.573623
0.560272
0.533825
0.4948
0.443968
0.382354
0.311232
0.232115
0.14674
0.0570483
-0.0348503
-0.126713
-0.216217
-0.301019
-0.378828
-0.447478
-0.505004
-0.549727
-0.580314
-0.595844
-0.595844
-0.580315
-0.549728
-0.505006
-0.447479
-0.37883
-0.301021
-0.216219
-0.126715
-0.0348528
0.0570456
0.146738
0.232112
0.311229
0.382351
0.443965
0.494797
0.533822
0.560268
0.57362
0.465214
0.454271
0.432605
0.40066
0.359096
0.308785
0.250806
0.18643
0.117102
0.0444261
-0.0298712
-0.103971
-0.176007
-0.244112
-0.306476
-0.361398
-0.40735
-0.443029
-0.467409
-0.47978
-0.47978
-0.467409
-0.44303
-0.407351
-0.361399
-0.306477
-0.244114
-0.176009
-0.103973
-0.0298735
0.0444237
0.1171
0.186427
0.250804
0.308782
0.359093
0.400657
0.432602
0.454268
0.465212
0.377046
0.3681
0.350396
0.324309
0.290399
0.249399
0.202213
0.1499
0.0936574
0.0348013
-0.0252582
-0.0850479
-0.143067
-0.197825
-0.247886
-0.291909
-0.328696
-0.35723
-0.376712
-0.386594
-0.386594
-0.376713
-0.35723
-0.328697
-0.29191
-0.247887
-0.197827
-0.143069
-0.0850498
-0.0252602
0.0347991
0.0936551
0.149898
0.202211
0.249397
0.290396
0.324307
0.350393
0.368098
0.377044
0.305425
0.298127
0.28369
0.262429
0.234813
0.201454
0.163103
0.120638
0.075045
0.0274014
-0.0211444
-0.0694002
-0.116158
-0.160226
-0.200461
-0.235803
-0.265305
-0.28817
-0.303772
-0.311683
-0.311683
-0.303773
-0.28817
-0.265306
-0.235804
-0.200463
-0.160228
-0.11616
-0.0694019
-0.0211462
0.0273995
0.0750429
0.120636
0.163101
0.201451
0.23481
0.262427
0.283688
0.298125
0.305422
0.2473
0.241357
0.229605
0.212305
0.189846
0.162739
0.131603
0.097162
0.0602239
0.0216697
-0.0175674
-0.056523
-0.0942246
-0.129717
-0.162088
-0.190495
-0.21419
-0.232541
-0.245058
-0.251402
-0.251402
-0.245058
-0.232542
-0.21419
-0.190496
-0.162089
-0.129718
-0.094226
-0.0565244
-0.017569
0.021668
0.0602221
0.0971601
0.131601
0.162737
0.189844
0.212303
0.229603
0.241355
0.247298
0.200166
0.195334
0.185779
0.17172
0.153478
0.131473
0.106218
0.078303
0.0483916
0.017201
-0.0145112
-0.045965
-0.0763771
-0.104981
-0.131047
-0.153903
-0.172956
-0.187704
-0.197759
-0.202855
-0.202855
-0.19776
-0.187704
-0.172956
-0.153904
-0.131048
-0.104982
-0.0763783
-0.0459663
-0.0145126
0.0171994
0.0483899
0.0783013
0.106216
0.131472
0.153476
0.171718
0.185777
0.195332
0.200164
0.161968
0.158044
0.150285
0.138872
0.124068
0.106221
0.0857491
0.0631369
0.0389248
0.0136967
-0.0119331
-0.0373338
-0.0618741
-0.0849381
-0.105941
-0.124347
-0.139681
-0.151547
-0.159634
-0.163731
-0.163731
-0.159634
-0.151547
-0.139682
-0.124348
-0.105942
-0.084939
-0.0618752
-0.0373349
-0.0119343
0.0136953
0.0389234
0.0631354
0.0857475
0.10622
0.124067
0.13887
0.150283
0.158042
0.161966
0.131029
0.127844
0.12155
0.112292
0.100289
0.0858236
0.0692385
0.0509297
0.0313371
0.010935
-0.00977858
-0.0302938
-0.0501017
-0.0687067
-0.0856399
-0.100472
-0.112823
-0.122377
-0.128887
-0.132184
-0.132185
-0.128887
-0.122377
-0.112823
-0.100472
-0.0856406
-0.0687075
-0.0501026
-0.0302949
-0.00977971
0.0109338
0.0313358
0.0509284
0.0692371
0.0858221
0.100288
0.112291
0.121548
0.127843
0.131027
0.10598
0.103398
0.0982943
0.0907905
0.0810639
0.0693457
0.055916
0.0410969
0.0252463
0.00874924
-0.00799095
-0.0245622
-0.0405539
-0.0555671
-0.0692252
-0.0811833
-0.0911382
-0.0988363
-0.104081
-0.106737
-0.106737
-0.104081
-0.0988366
-0.0911387
-0.0811839
-0.0692258
-0.0555679
-0.0405547
-0.0245631
-0.00799197
0.00874815
0.0252452
0.0410957
0.0559147
0.0693444
0.0810625
0.0907891
0.0982929
0.103396
0.105978
0.0857057
0.0836134
0.0794786
0.0733997
0.0655218
0.0560336
0.0451628
0.0331718
0.0203512
0.0070131
-0.00651582
-0.0199025
-0.0328157
-0.044934
-0.0559544
-0.0656
-0.0736276
-0.0798338
-0.0840612
-0.0862022
-0.0862022
-0.0840614
-0.0798341
-0.0736279
-0.0656005
-0.055955
-0.0449347
-0.0328164
-0.0199034
-0.00651673
0.00701212
0.0203501
0.0331707
0.0451617
0.0560324
0.0655206
0.0733984
0.0794773
0.0836121
0.0857044
0.0693015
0.0676069
0.0642584
0.059336
0.0529581
0.0452782
0.0364815
0.0267812
0.016413
0.00562988
-0.00530374
-0.0161187
-0.0265476
-0.0363314
-0.0452262
-0.0530093
-0.0594853
-0.0644911
-0.0679004
-0.0696269
-0.0696269
-0.0679005
-0.0644914
-0.0594856
-0.0530097
-0.0452267
-0.036332
-0.0265483
-0.0161195
-0.00530456
0.005629
0.016412
0.0267802
0.0364805
0.0452771
0.052957
0.0593349
0.0642572
0.0676058
0.0693003
0.0560313
0.0546595
0.0519487
0.0479644
0.0428026
0.0365881
0.0294716
0.0216258
0.013242
0.00452504
-0.00431111
-0.0130489
-0.0214725
-0.029373
-0.0365539
-0.042836
-0.0480621
-0.0521012
-0.0548517
-0.0562446
-0.0562446
-0.0548519
-0.0521014
-0.0480624
-0.0428364
-0.0365544
-0.0293736
-0.0214731
-0.0130496
-0.00431184
0.00452425
0.0132411
0.0216249
0.0294707
0.0365872
0.0428016
0.0479633
0.0519476
0.0546584
0.0560302
0.0452984
0.0441881
0.0419944
0.0387703
0.0345939
0.0295665
0.0238103
0.0174655
0.010687
0.00364069
-0.00350035
-0.0105603
-0.0173649
-0.0237456
-0.029544
-0.0346157
-0.0388343
-0.0420943
-0.0443142
-0.0454382
-0.0454382
-0.0443143
-0.0420945
-0.0388346
-0.0346161
-0.0295444
-0.0237461
-0.0173655
-0.0105609
-0.00350101
0.00363998
0.0106862
0.0174647
0.0238095
0.0295656
0.034593
0.0387694
0.0419935
0.0441872
0.0452974
0.0366189
0.0357206
0.0339458
0.0313375
0.0279591
0.0238928
0.0192376
0.0141073
0.00862716
0.0029316
-0.00283951
-0.00854406
-0.0140413
-0.0191951
-0.0238779
-0.0279733
-0.0313794
-0.0340112
-0.0358032
-0.0367105
-0.0367106
-0.0358033
-0.0340114
-0.0313796
-0.0279736
-0.0238783
-0.0191956
-0.0140417
-0.0085446
-0.0028401
0.00293096
0.00862648
0.0141066
0.0192369
0.023892
0.0279583
0.0313366
0.0339449
0.0357198
0.0366181
0.0296009
0.0288742
0.0274386
0.0253289
0.0225965
0.0193081
0.0155439
0.0113959
0.00696582
0.00236221
-0.00230177
-0.00691127
-0.0113526
-0.0155159
-0.0192983
-0.0226058
-0.0253563
-0.0274814
-0.0289283
-0.0296609
-0.0296609
-0.0289284
-0.0274816
-0.0253565
-0.022606
-0.0192986
-0.0155163
-0.011353
-0.00691175
-0.0023023
0.00236164
0.00696521
0.0113953
0.0155432
0.0193074
0.0225958
0.0253281
0.0274378
0.0288735
0.0296001
0.0239268
0.0233391
0.022178
0.0204718
0.0182623
0.0156033
0.0125598
0.00920645
0.00562536
0.00190446
-0.00186478
-0.00558954
-0.00917798
-0.0125415
-0.0155968
-0.0182683
-0.0204898
-0.0222061
-0.0233745
-0.0239661
-0.0239662
-0.0233746
-0.0222062
-0.02049
-0.0182686
-0.0155971
-0.0125418
-0.00917837
-0.00558998
-0.00186525
0.00190394
0.00562481
0.00920586
0.0125592
0.0156026
0.0182616
0.0204712
0.0221773
0.0233384
0.0239261
0.0193396
0.0188644
0.0179255
0.0165459
0.0147593
0.0126094
0.0101489
0.00743812
0.00454347
0.0015361
-0.00151004
-0.00451995
-0.00741941
-0.0101369
-0.0126052
-0.0147632
-0.0165576
-0.0179439
-0.0188876
-0.0193654
-0.0193654
-0.0188877
-0.017944
-0.0165578
-0.0147634
-0.0126054
-0.0101372
-0.00741976
-0.00452034
-0.00151047
0.00153564
0.00454298
0.0074376
0.0101484
0.0126089
0.0147587
0.0165453
0.0179249
0.0188638
0.019339
0.0156315
0.0152472
0.0144881
0.0133726
0.0119282
0.0101901
0.00820105
0.00600977
0.00367007
0.00123944
-0.00122232
-0.00365461
-0.00599748
-0.00819311
-0.0101873
-0.0119307
-0.0133803
-0.0145001
-0.0152624
-0.0156484
-0.0156484
-0.0152625
-0.0145002
-0.0133804
-0.0119309
-0.0101875
-0.00819338
-0.00599779
-0.00365496
-0.00122271
0.00123903
0.00366963
0.00600931
0.00820056
0.0101896
0.0119276
0.0133721
0.0144875
0.0152466
0.0156309
0.012634
0.0123233
0.0117096
0.0108078
0.00964005
0.00823503
0.00662716
0.00485593
0.00296484
0.00100038
-0.000989124
-0.00295467
-0.00484784
-0.00662192
-0.00823314
-0.0096417
-0.0108128
-0.0117174
-0.0123333
-0.0126451
-0.0126451
-0.0123333
-0.0117175
-0.0108129
-0.00964188
-0.00823336
-0.00662217
-0.00484812
-0.00295499
-0.000989468
0.001
0.00296444
0.00485551
0.00662672
0.00823457
0.00963958
0.0108073
0.0117091
0.0123228
0.0126335
0.0102111
0.00995997
0.0094638
0.00873479
0.00779083
0.00665507
0.00535541
0.00392375
0.00239529
0.000807614
-0.000800217
-0.00238861
-0.00391843
-0.00535196
-0.00665382
-0.0077919
-0.00873806
-0.00946895
-0.00996649
-0.0102184
-0.0102184
-0.00996654
-0.00946904
-0.00873819
-0.00779205
-0.00665402
-0.00535218
-0.00391868
-0.00238889
-0.000800527
0.00080728
0.00239494
0.00392337
0.00535501
0.00665466
0.0077904
0.00873435
0.00946335
0.00995951
0.0102107
0.00825276
0.00804973
0.00764864
0.00705935
0.00629631
0.00537827
0.00432776
0.00317062
0.00193527
0.000652123
-0.00064726
-0.00193088
-0.00316711
-0.00432549
-0.00537744
-0.006297
-0.00706149
-0.00765202
-0.00805401
-0.00825753
-0.00825754
-0.00805406
-0.0076521
-0.0070616
-0.00629715
-0.00537761
-0.00432569
-0.00316734
-0.00193113
-0.000647538
0.000651823
0.00193495
0.00317028
0.00432741
0.00537789
0.00629593
0.00705896
0.00764824
0.00804933
0.00825235
0.0066699
0.00650579
0.00618158
0.00570524
0.00508847
0.00434643
0.00349735
0.0025621
0.00156368
0.000526652
-0.000523456
-0.00156079
-0.0025598
-0.00349585
-0.00434589
-0.00508893
-0.00570664
-0.00618379
-0.0065086
-0.00667304
-0.00667305
-0.00650864
-0.00618387
-0.00570674
-0.00508905
-0.00434604
-0.00349603
-0.00256
-0.00156102
-0.000523705
0.000526383
0.00156339
0.00256179
0.00349703
0.0043461
0.00508813
0.00570489
0.00618122
0.00650542
0.00666953
0.00539057
0.00525792
0.00499586
0.00461085
0.00411233
0.00351257
0.0028263
0.00207041
0.00126348
0.000425377
-0.000423278
-0.00126159
-0.0020689
-0.00282532
-0.00351221
-0.00411263
-0.00461177
-0.00499732
-0.00525977
-0.00539264
-0.00539266
-0.00525981
-0.00499739
-0.00461186
-0.00411274
-0.00351235
-0.00282548
-0.00206908
-0.00126179
-0.000423502
0.000425134
0.00126322
0.00207013
0.00282601
0.00351227
0.00411202
0.00461053
0.00499554
0.00525759
0.00539024
0.00435659
0.00424937
0.00403756
0.00372636
0.00332344
0.00283868
0.00228402
0.0016731
0.00102095
0.000343611
-0.000342236
-0.00101971
-0.00167211
-0.00228338
-0.00283845
-0.00332364
-0.00372698
-0.00403853
-0.0042506
-0.00435797
-0.00435798
-0.00425063
-0.00403858
-0.00372706
-0.00332374
-0.00283858
-0.00228353
-0.00167228
-0.00101989
-0.000342438
0.000343394
0.00102072
0.00167286
0.00228377
0.00283841
0.00332316
0.00372608
0.00403727
0.00424908
0.0043563
0.00352092
0.00343426
0.00326306
0.00301154
0.00268588
0.00229409
0.0018458
0.00135205
0.000824992
0.000277585
-0.000276689
-0.000824183
-0.00135141
-0.00184539
-0.00229394
-0.00268602
-0.00301195
-0.00326371
-0.00343508
-0.00352184
-0.00352185
-0.00343511
-0.00326376
-0.00301202
-0.00268611
-0.00229405
-0.00184552
-0.00135156
-0.000824348
-0.00027687
0.00027739
0.000824783
0.00135183
0.00184557
0.00229384
0.00268563
0.00301128
0.0032628
0.00343399
0.00352065
0.00284552
0.00277548
0.00263711
0.00243383
0.00217062
0.00185397
0.00149167
0.00109262
0.000666659
0.000224261
-0.000223681
-0.000666137
-0.00109221
-0.00149141
-0.00185389
-0.00217073
-0.00243411
-0.00263755
-0.00277604
-0.00284615
-0.00284616
-0.00277606
-0.0026376
-0.00243418
-0.00217081
-0.00185399
-0.00149152
-0.00109234
-0.000666285
-0.000223844
0.000224085
0.000666471
0.00109242
0.00149146
0.00185375
0.0021704
0.0024336
0.00263688
0.00277524
0.00284528
0.00229967
0.00224306
0.00213123
0.00196693
0.00175421
0.00149829
0.00120548
0.000882976
0.000538721
0.000181189
-0.00018082
-0.00053839
-0.000882717
-0.00120532
-0.00149825
-0.00175429
-0.00196714
-0.00213154
-0.00224345
-0.0023001
-0.00230011
-0.00224347
-0.00213158
-0.0019672
-0.00175437
-0.00149834
-0.00120542
-0.000882836
-0.000538523
-0.000180966
0.000181031
0.000538552
0.000882797
0.00120529
0.0014981
0.00175401
0.00196673
0.00213102
0.00224285
0.00229946
0.00185853
0.00181277
0.00172239
0.0015896
0.00141768
0.00121085
0.000974199
0.000713559
0.000435341
0.000146395
-0.000146166
-0.000435137
-0.000713403
-0.00097411
-0.00121084
-0.00141775
-0.00158975
-0.00172261
-0.00181305
-0.00185883
-0.00185884
-0.00181307
-0.00172265
-0.00158981
-0.00141782
-0.00121092
-0.000974204
-0.00071351
-0.000435257
-0.000146297
0.000146253
0.000435189
0.000713398
0.000974031
0.00121067
0.0014175
0.00158942
0.0017222
0.00181258
0.00185833
0.001502
0.00146502
0.00139197
0.00128466
0.00114571
0.000978549
0.000787294
0.00057665
0.000351802
0.000118285
-0.00011815
-0.000351684
-0.000576563
-0.000787251
-0.000978558
-0.00114577
-0.00128477
-0.00139214
-0.00146522
-0.00150222
-0.00150223
-0.00146524
-0.00139217
-0.00128482
-0.00114583
-0.000978631
-0.000787336
-0.00057666
-0.000351791
-0.000118268
0.000118158
0.000351665
0.000576505
0.000787142
0.000978391
0.00114554
0.00128449
0.0013918
0.00146485
0.00150182
0.00121386
0.00118398
0.00112494
0.00103821
0.00092591
0.000790815
0.000636247
0.00046601
0.000284294
9.55746e-05
-9.55032e-05
-0.000284234
-0.000465971
-0.000636237
-0.00079084
-0.000925972
-0.0010383
-0.00112507
-0.00118413
-0.00121403
-0.00121404
-0.00118415
-0.0011251
-0.00103835
-0.000926026
-0.000790906
-0.000636313
-0.000466057
-0.000284331
-9.5609e-05
9.54601e-05
0.000284172
0.00046588
0.000636111
0.000790674
0.000925764
0.00103806
0.00112479
0.00118382
0.0012137
0.000980995
0.000956842
0.00090913
0.000839034
0.000748278
0.000639097
0.000514179
0.000376598
0.000229742
7.7225e-05
-7.71964e-05
-0.00022972
-0.000376591
-0.000514192
-0.000639134
-0.00074834
-0.00083912
-0.000909238
-0.000956968
-0.000981133
-0.000981138
-0.000956984
-0.000909265
-0.000839158
-0.000748388
-0.000639192
-0.00051426
-0.000376669
-0.000229807
-7.72915e-05
7.71221e-05
0.000229632
0.000376482
0.000514057
0.00063897
0.000748147
0.000838899
0.000908993
0.000956703
0.000980855
0.000792799
0.00077328
0.00073472
0.000678069
0.000604723
0.000516486
0.00041553
0.000304341
0.000185657
6.23983e-05
-6.23989e-05
-0.000185662
-0.000304356
-0.000415559
-0.00051653
-0.000604785
-0.000678148
-0.000734814
-0.000773387
-0.000792916
-0.000792921
-0.000773401
-0.000734839
-0.000678182
-0.000604828
-0.000516583
-0.00041562
-0.000304426
-0.00018574
-6.24844e-05
6.23059e-05
0.000185558
0.000304237
0.00041542
0.000516371
0.000604605
0.000677948
0.000734596
0.000773155
0.000792673
0.000640706
0.00062493
0.000593767
0.000547984
0.000488707
0.000417396
0.000335807
0.000245947
0.000150031
5.04178e-05
-5.04384e-05
-0.000150055
-0.000245978
-0.000335846
-0.000417447
-0.00048877
-0.000548058
-0.000593853
-0.000625025
-0.000640808
-0.000640812
-0.000625039
-0.000593875
-0.000548089
-0.000488809
-0.000417494
-0.000335902
-0.000246041
-0.000150125
-5.05152e-05
5.03347e-05
0.000149942
0.000245853
0.000335708
0.000417293
0.000488601
0.000547875
0.000593656
0.000624818
0.000640593
0.000517789
0.00050504
0.000479854
0.000442853
0.000394947
0.000337316
0.000271378
0.000198757
0.00012124
4.07368e-05
-4.07712e-05
-0.000121277
-0.000198798
-0.000271426
-0.000337371
-0.000395011
-0.000442925
-0.000479934
-0.000505127
-0.000517882
-0.000517886
-0.000505139
-0.000479954
-0.000442953
-0.000395046
-0.000337414
-0.000271475
-0.000198855
-0.00012134
-4.08402e-05
4.06622e-05
0.00012116
0.000198672
0.000271289
0.000337224
0.000394852
0.000442755
0.000479754
0.000504938
0.000517687
0.000418451
0.000408148
0.000387794
0.000357891
0.000319175
0.000272599
0.00021931
0.00016062
9.79737e-05
3.29138e-05
-3.29578e-05
-9.80193e-05
-0.000160669
-0.000219363
-0.000272657
-0.000319239
-0.000357962
-0.000387871
-0.00040823
-0.000418538
-0.000418542
-0.000408241
-0.000387888
-0.000357986
-0.000319271
-0.000272696
-0.000219408
-0.000160719
-9.80758e-05
-3.30197e-05
3.28468e-05
9.7902e-05
0.000160544
0.00021923
0.000272516
0.000319089
0.000357803
0.000387704
0.000408057
0.00041836
0.00033817
0.000329843
0.000313394
0.000289227
0.000257938
0.000220297
0.000177231
0.000129799
7.91711e-05
2.65922e-05
-2.66427e-05
-7.92228e-05
-0.000129853
-0.000177288
-0.000220358
-0.000258004
-0.000289297
-0.000313469
-0.000329922
-0.000338253
-0.000338257
-0.000329932
-0.000313485
-0.000289319
-0.000258032
-0.000220392
-0.000177328
-0.000129899
-7.92735e-05
-2.66983e-05
2.6532e-05
7.91067e-05
0.000129731
0.000177159
0.000220222
0.000257861
0.000289148
0.000313313
0.000329762
0.000338088
0.00027329
0.000266561
0.000253267
0.000233736
0.000208449
0.000178029
0.000143224
0.000104892
6.39761e-05
2.14838e-05
-2.15387e-05
-6.40318e-05
-0.000104949
-0.000143284
-0.000178092
-0.000208515
-0.000233806
-0.00025334
-0.000266637
-0.00027337
-0.000273373
-0.000266646
-0.000253354
-0.000233826
-0.000208541
-0.000178123
-0.00014332
-0.00010499
-6.40774e-05
-2.15886e-05
2.14297e-05
6.39182e-05
0.000104831
0.00014316
0.000177962
0.00020838
0.000233665
0.000253194
0.000266488
0.000273217
0.000220857
0.000215418
0.000204674
0.00018889
0.000168454
0.00014387
0.000115742
8.47631e-05
5.16963e-05
1.73556e-05
-1.74135e-05
-5.17548e-05
-8.48229e-05
-0.000115803
-0.000143934
-0.000168521
-0.000188959
-0.000204746
-0.000215493
-0.000220934
-0.000220937
-0.000215501
-0.000204759
-0.000188977
-0.000168544
-0.000143961
-0.000115836
-8.48596e-05
-5.17958e-05
-1.74584e-05
1.7307e-05
5.16444e-05
8.47081e-05
0.000115684
0.00014381
0.000168392
0.000188827
0.000204609
0.000215352
0.000220791
0.000178482
0.000174087
0.000165404
0.000152648
0.000136132
0.000116264
9.35319e-05
6.8496e-05
4.17726e-05
1.40197e-05
-1.40794e-05
-4.18327e-05
-6.85571e-05
-9.35943e-05
-0.000116328
-0.000136198
-0.000152716
-0.000165475
-0.00017416
-0.000178558
-0.00017856
-0.000174167
-0.000165486
-0.000152732
-0.000136219
-0.000116353
-9.36234e-05
-6.85901e-05
-4.18695e-05
-1.41197e-05
1.3976e-05
4.17259e-05
6.84465e-05
9.348e-05
0.00011621
0.000136076
0.000152591
0.000165346
0.000174028
0.000178423
0.000144237
0.000140684
0.000133667
0.000123358
0.000110011
9.39539e-05
7.55828e-05
5.53497e-05
3.37528e-05
1.1324e-05
-1.13846e-05
-3.38139e-05
-5.54115e-05
-7.56457e-05
-9.40182e-05
-0.000110077
-0.000123426
-0.000133737
-0.000140756
-0.00014431
-0.000144313
-0.000140762
-0.000133747
-0.00012344
-0.000110095
-9.40406e-05
-7.56717e-05
-5.54411e-05
-3.38469e-05
-1.14209e-05
1.12848e-05
3.37109e-05
5.53053e-05
7.55361e-05
9.39054e-05
0.000109961
0.000123307
0.000133615
0.000140631
0.000144183
0.000116561
0.00011369
0.000108019
9.96876e-05
8.89007e-05
7.59241e-05
6.10772e-05
4.47256e-05
2.72718e-05
9.1456e-06
-9.20666e-06
-2.73331e-05
-4.47875e-05
-6.114e-05
-7.59881e-05
-8.89661e-05
-9.97544e-05
-0.000108088
-0.00011376
-0.000116633
-0.000116635
-0.000113766
-0.000108097
-9.97674e-05
-8.89826e-05
-7.60081e-05
-6.11635e-05
-4.48141e-05
-2.73628e-05
-9.2392e-06
9.11039e-06
2.72341e-05
4.46857e-05
6.10353e-05
7.58805e-05
8.88557e-05
9.96413e-05
0.000107972
0.000113642
0.000116513
9.41943e-05
9.18743e-05
8.72912e-05
8.0558e-05
7.18405e-05
6.13533e-05
4.93545e-05
3.61397e-05
2.20342e-05
7.38534e-06
-7.44628e-06
-2.20954e-05
-3.62014e-05
-4.9417e-05
-6.14166e-05
-7.1905e-05
-8.06238e-05
-8.73584e-05
-9.1943e-05
-9.42647e-05
-9.42664e-05
-9.1948e-05
-8.73668e-05
-8.06355e-05
-7.19199e-05
-6.14346e-05
-4.9438e-05
-3.62253e-05
-2.21221e-05
-7.47551e-06
7.35371e-06
2.20004e-05
3.61039e-05
4.93169e-05
6.13141e-05
7.18e-05
8.05165e-05
8.72489e-05
9.18314e-05
9.41511e-05
7.61187e-05
7.42438e-05
7.05399e-05
6.50984e-05
5.80532e-05
4.95778e-05
3.98809e-05
2.92012e-05
1.78017e-05
5.96297e-06
-6.02339e-06
-1.78623e-05
-2.92623e-05
-3.99426e-05
-4.96403e-05
-5.81166e-05
-6.51629e-05
-7.06057e-05
-7.43109e-05
-7.61873e-05
-7.61888e-05
-7.43154e-05
-7.06132e-05
-6.51734e-05
-5.813e-05
-4.96565e-05
-3.99615e-05
-2.92837e-05
-1.78862e-05
-6.04964e-06
5.93456e-06
1.77713e-05