/*--------------------------------*- C++ -*----------------------------------*\
| =========                 |                                                 |
| \\      /  F ield         | OpenFOAM: The Open Source CFD Toolbox           |
|  \\    /   O peration     | Version:  v2106                                 |
|   \\  /    A nd           | Website:  www.openfoam.com                      |
|    \\/     M anipulation  |                                                 |
\*---------------------------------------------------------------------------*/
FoamFile
{
    version     2.0;
    format      ascii;
    arch        "LSB;label=32;scalar=64";
    class       volVectorField;
    location    "0";
    object      U;
}
// * * * * * * * * * * * * * * * * * * * * * * * * * * * * * * * * * * * * * //

dimensions      [0 1 -1 0 0 0 0];

internalField   nonuniform List<vector> 
11644
(
(1.00124 -0.000922899 0)
(1.00123 -0.00276501 0)
(1.00122 -0.00459517 0)
(1.0012 -0.00640278 0)
(1.00117 -0.00817329 0)
(1.00113 -0.0098865 0)
(1.00106 -0.011515 0)
(1.00096 -0.0130224 0)
(1.00084 -0.0143627 0)
(1.00066 -0.0154793 0)
(1.00045 -0.0163057 0)
(1.00018 -0.0167683 0)
(0.999855 -0.0167904 0)
(0.999488 -0.0163003 0)
(0.99909 -0.0152405 0)
(0.998682 -0.0135804 0)
(0.998293 -0.011327 0)
(0.997958 -0.00853498 0)
(0.997711 -0.00530965 0)
(0.997579 -0.00180252 5.59769e-28)
(0.997579 0.00180244 -5.59769e-28)
(0.997711 0.00530957 0)
(0.997958 0.00853491 0)
(0.998293 0.0113269 0)
(0.998682 0.0135803 0)
(0.99909 0.0152405 0)
(0.999488 0.0163002 0)
(0.999855 0.0167904 0)
(1.00018 0.0167683 0)
(1.00045 0.0163057 0)
(1.00066 0.0154793 0)
(1.00084 0.0143627 0)
(1.00096 0.0130224 0)
(1.00106 0.011515 0)
(1.00113 0.00988651 0)
(1.00117 0.00817329 0)
(1.0012 0.00640278 0)
(1.00122 0.00459517 0)
(1.00123 0.00276501 0)
(1.00124 0.0009229 0)
(1.0038 -0.000943717 0)
(1.00378 -0.00282891 0)
(1.00375 -0.0047064 0)
(1.0037 -0.00656835 0)
(1.00362 -0.00840306 0)
(1.00348 -0.0101931 0)
(1.00329 -0.0119133 0)
(1.00301 -0.0135291 0)
(1.00263 -0.0149946 0)
(1.00212 -0.0162511 0)
(1.00146 -0.0172269 0)
(1.00063 -0.0178383 0)
(0.999641 -0.0179942 0)
(0.998495 -0.0176029 0)
(0.997237 -0.0165846 0)
(0.995934 -0.0148861 0)
(0.994682 -0.0124977 0)
(0.993594 -0.00946809 0)
(0.992786 -0.00591291 0)
(0.992354 -0.00201136 -2.27613e-27)
(0.992354 0.00201127 2.27613e-27)
(0.992786 0.00591282 0)
(0.993594 0.00946801 0)
(0.994682 0.0124976 0)
(0.995934 0.0148861 0)
(0.997237 0.0165846 0)
(0.998495 0.0176029 0)
(0.999641 0.0179942 0)
(1.00063 0.0178383 0)
(1.00146 0.0172269 0)
(1.00212 0.0162511 0)
(1.00263 0.0149946 0)
(1.00301 0.0135291 0)
(1.00329 0.0119133 0)
(1.00348 0.0101931 0)
(1.00362 0.00840307 0)
(1.0037 0.00656835 0)
(1.00375 0.0047064 0)
(1.00378 0.00282891 0)
(1.0038 0.000943717 0)
(1.00638 -0.000955012 0)
(1.00636 -0.00286564 0)
(1.00632 -0.00477724 0)
(1.00626 -0.00668801 0)
(1.00614 -0.00859256 0)
(1.00596 -0.0104799 0)
(1.00567 -0.0123313 0)
(1.00525 -0.0141177 0)
(1.00466 -0.0157964 0)
(1.00385 -0.0173085 0)
(1.00278 -0.0185753 0)
(1.0014 -0.0194974 0)
(0.999709 -0.0199556 0)
(0.99771 -0.0198184 0)
(0.995467 -0.0189558 0)
(0.993096 -0.0172619 0)
(0.990771 -0.0146825 0)
(0.988715 -0.0112439 0)
(0.987169 -0.00707638 0)
(0.986336 -0.00241685 -4.63669e-27)
(0.986336 0.00241675 4.63669e-27)
(0.987169 0.00707629 0)
(0.988715 0.0112439 0)
(0.990771 0.0146824 0)
(0.993096 0.0172619 0)
(0.995467 0.0189557 0)
(0.99771 0.0198183 0)
(0.999709 0.0199556 0)
(1.0014 0.0194974 0)
(1.00278 0.0185753 0)
(1.00385 0.0173085 0)
(1.00466 0.0157964 0)
(1.00525 0.0141177 0)
(1.00567 0.0123313 0)
(1.00596 0.0104799 0)
(1.00614 0.00859256 0)
(1.00626 0.00668801 0)
(1.00632 0.00477724 0)
(1.00636 0.00286565 0)
(1.00638 0.000955013 0)
(1.00899 -0.000965204 0)
(1.00898 -0.00290035 0)
(1.00895 -0.00484904 0)
(1.0089 -0.00681845 0)
(1.0088 -0.00881294 0)
(1.00861 -0.0108321 0)
(1.0083 -0.0128684 0)
(1.00782 -0.0149037 0)
(1.0071 -0.0169048 0)
(1.00607 -0.0188174 0)
(1.00465 -0.0205593 0)
(1.00276 -0.0220121 0)
(1.00034 -0.0230163 0)
(0.997379 -0.0233732 0)
(0.993935 -0.0228627 0)
(0.990168 -0.0212746 0)
(0.98636 -0.0184559 0)
(0.982892 -0.0143684 0)
(0.980226 -0.00915018 0)
(0.97877 -0.0031445 0)
(0.97877 0.00314438 0)
(0.980226 0.00915007 0)
(0.982892 0.0143683 0)
(0.98636 0.0184559 0)
(0.990168 0.0212745 0)
(0.993935 0.0228626 0)
(0.997379 0.0233732 0)
(1.00034 0.0230163 0)
(1.00276 0.0220121 0)
(1.00465 0.0205593 0)
(1.00607 0.0188174 0)
(1.0071 0.0169048 0)
(1.00782 0.0149037 0)
(1.0083 0.0128684 0)
(1.00861 0.0108321 0)
(1.0088 0.00881295 0)
(1.0089 0.00681846 0)
(1.00895 0.00484904 0)
(1.00898 0.00290035 0)
(1.00899 0.000965205 0)
(1.01162 -0.00096676 0)
(1.01163 -0.00291008 0)
(1.01164 -0.00488247 0)
(1.01164 -0.00690255 0)
(1.01161 -0.00898772 0)
(1.01149 -0.0111527 0)
(1.01126 -0.0134073 0)
(1.01082 -0.0157529 0)
(1.01011 -0.0181765 0)
(1.00901 -0.0206421 0)
(1.00739 -0.0230773 0)
(1.0051 -0.0253558 0)
(1.00198 -0.0272736 0)
(0.997938 -0.0285317 0)
(0.993 -0.0287624 0)
(0.987319 -0.0275638 0)
(0.981317 -0.0245775 0)
(0.975585 -0.0195859 0)
(0.971041 -0.0126824 0)
(0.968507 -0.00439677 -9.96265e-27)
(0.968507 0.00439661 9.96265e-27)
(0.971041 0.0126822 0)
(0.975585 0.0195857 0)
(0.981317 0.0245774 0)
(0.987319 0.0275637 0)
(0.993 0.0287624 0)
(0.997938 0.0285317 0)
(1.00198 0.0272736 0)
(1.0051 0.0253558 0)
(1.00739 0.0230773 0)
(1.00901 0.0206421 0)
(1.01011 0.0181765 0)
(1.01082 0.0157529 0)
(1.01126 0.0134073 0)
(1.01149 0.0111527 0)
(1.01161 0.00898773 0)
(1.01164 0.00690256 0)
(1.01164 0.00488247 0)
(1.01163 0.00291008 0)
(1.01162 0.000966761 0)
(1.01422 -0.000950318 0)
(1.01427 -0.00286613 0)
(1.01435 -0.00482766 0)
(1.01445 -0.00686634 0)
(1.01455 -0.00901499 0)
(1.01461 -0.0113075 0)
(1.01457 -0.013778 0)
(1.01435 -0.0164579 0)
(1.01385 -0.0193707 0)
(1.01292 -0.0225226 0)
(1.01137 -0.0258847 0)
(1.00895 -0.0293646 0)
(1.00534 -0.0327503 0)
(1.00015 -0.0355893 0)
(0.993438 -0.0373039 0)
(0.985073 -0.0371576 0)
(0.975721 -0.0344244 0)
(0.966273 -0.0283375 0)
(0.95845 -0.0187701 0)
(0.953943 -0.00658817 -2.11889e-26)
(0.953943 0.00658795 2.11889e-26)
(0.95845 0.0187699 0)
(0.966273 0.0283374 0)
(0.975721 0.0344243 0)
(0.985072 0.0371576 0)
(0.993438 0.0373039 0)
(1.00015 0.0355893 0)
(1.00534 0.0327503 0)
(1.00895 0.0293647 0)
(1.01137 0.0258847 0)
(1.01292 0.0225226 0)
(1.01385 0.0193708 0)
(1.01435 0.0164579 0)
(1.01457 0.013778 0)
(1.01461 0.0113075 0)
(1.01455 0.009015 0)
(1.01445 0.00686635 0)
(1.01435 0.00482767 0)
(1.01427 0.00286614 0)
(1.01422 0.000950319 0)
(1.01675 -0.000905928 0)
(1.01684 -0.00273772 0)
(1.01702 -0.00463016 0)
(1.01727 -0.00662683 0)
(1.01758 -0.00877623 0)
(1.0179 -0.0111335 0)
(1.0182 -0.0137616 0)
(1.01839 -0.0167321 0)
(1.01837 -0.0201233 0)
(1.01797 -0.0240145 0)
(1.01695 -0.0284748 0)
(1.01499 -0.0335463 0)
(1.01165 -0.0392488 0)
(1.00517 -0.0447137 0)
(0.996768 -0.0492696 0)
(0.985007 -0.0524224 0)
(0.978436 -0.0444872 0)
(0.964445 -0.0425049 0)
(0.950522 -0.0312353 0)
(0.940299 -0.0145331 -2.92589e-21)
(0.936742 0.00506998 0)
(0.940771 0.0236249 2.6749e-20)
(0.950735 0.0377121 0)
(0.963439 0.0460788 0)
(0.985007 0.0524224 0)
(0.996768 0.0492696 0)
(1.00517 0.0447137 0)
(1.01165 0.0392488 0)
(1.01499 0.0335463 0)
(1.01695 0.0284748 0)
(1.01797 0.0240145 0)
(1.01837 0.0201233 0)
(1.01839 0.0167322 0)
(1.0182 0.0137616 0)
(1.0179 0.0111335 0)
(1.01758 0.00877625 0)
(1.01727 0.00662685 0)
(1.01702 0.00463017 0)
(1.01684 0.00273773 0)
(1.01675 0.000905929 0)
(1.0191 -0.000824777 0)
(1.01925 -0.00249724 0)
(1.01955 -0.0042399 0)
(1.01999 -0.00610494 0)
(1.02057 -0.00815325 0)
(1.02126 -0.0104585 0)
(1.02203 -0.0131122 0)
(1.02284 -0.0162289 0)
(1.0236 -0.0199516 0)
(1.02415 -0.0244542 0)
(1.02428 -0.0299344 0)
(1.02359 -0.036577 0)
(1.02148 -0.0443166 0)
(1.01882 -0.0542089 0)
(1.01141 -0.0588532 0)
(0.998792 -0.067252 0)
(0.974174 -0.0710707 0)
(0.949597 -0.0677643 0)
(0.924097 -0.0530811 0)
(0.905134 -0.0257937 3.22013e-21)
(0.900807 0.00882716 0)
(0.913242 0.0408492 -3.22021e-21)
(0.936608 0.062061 0)
(0.962314 0.0705242 0)
(0.977255 0.0703308 0)
(0.993545 0.0631188 0)
(1.00447 0.0542099 0)
(1.02148 0.0443167 0)
(1.02359 0.0365771 0)
(1.02428 0.0299345 0)
(1.02415 0.0244543 0)
(1.0236 0.0199517 0)
(1.02284 0.016229 0)
(1.02203 0.0131122 0)
(1.02126 0.0104586 0)
(1.02057 0.00815327 0)
(1.01999 0.00610495 0)
(1.01955 0.00423991 0)
(1.01925 0.00249724 0)
(1.0191 0.000824779 0)
(1.02118 -0.000701366 0)
(1.02139 -0.002127 0)
(1.02182 -0.00362326 0)
(1.02247 -0.00524416 0)
(1.02334 -0.00705513 0)
(1.02445 -0.00913945 0)
(1.0258 -0.0116068 0)
(1.02739 -0.0146055 0)
(1.02919 -0.0183386 0)
(1.03114 -0.0230877 0)
(1.03311 -0.0292437 0)
(1.0348 -0.0373473 0)
(1.03564 -0.0473805 0)
(1.0292 -0.0644593 0)
(1.02318 -0.0728243 0)
(1.00857 -0.0906948 0)
(0.994864 -0.101584 0)
(0.958252 -0.109544 0)
(0.909107 -0.0977037 6.8754e-21)
(0.862175 -0.0559818 0)
(0.841746 0.0087252 -3.71909e-21)
(0.859854 0.0695418 0)
(0.902635 0.103304 -5.39329e-20)
(0.947359 0.108829 0)
(0.981195 0.0978265 0)
(1.01791 0.0819508 0)
(1.02683 0.0645869 0)
(1.03564 0.0473807 0)
(1.0348 0.0373475 0)
(1.03311 0.0292438 0)
(1.03114 0.0230878 0)
(1.02919 0.0183387 0)
(1.02739 0.0146055 0)
(1.0258 0.0116069 0)
(1.02445 0.00913948 0)
(1.02334 0.00705515 0)
(1.02247 0.00524417 0)
(1.02182 0.00362327 0)
(1.02139 0.00212701 0)
(1.02118 0.000701368 0)
(1.02286 -0.000535678 0)
(1.02313 -0.00162619 0)
(1.02368 -0.00277608 0)
(1.02452 -0.00403182 0)
(1.02568 -0.00545152 0)
(1.0272 -0.00711197 0)
(1.02914 -0.00911917 0)
(1.03154 -0.0116242 0)
(1.0345 -0.014848 0)
(1.0381 -0.0191216 0)
(1.04245 -0.024952 0)
(1.0476 -0.0331294 0)
(1.05354 -0.0439466 0)
(1.05178 -0.0696872 0)
(1.05333 -0.0811054 0)
(1.04246 -0.118227 0)
(1.01904 -0.147375 0)
(0.968735 -0.181549 0)
(0.875433 -0.196946 5.87741e-20)
(0.759212 -0.137146 0)
(0.705936 0.0103664 1.04037e-19)
(0.772539 0.150176 1.27387e-19)
(0.889372 0.198012 -5.65082e-20)
(0.977166 0.177071 0)
(1.02849 0.135989 0)
(1.05204 0.0953151 0)
(1.053 0.0684932 0)
(1.05354 0.0439469 0)
(1.0476 0.0331296 0)
(1.04245 0.0249522 0)
(1.0381 0.0191217 0)
(1.0345 0.014848 0)
(1.03154 0.0116242 0)
(1.02914 0.00911921 0)
(1.0272 0.00711199 0)
(1.02568 0.00545153 0)
(1.02452 0.00403184 0)
(1.02368 0.00277609 0)
(1.02313 0.00162619 0)
(1.02286 0.000535679 0)
(1.02404 -0.000334612 0)
(1.02435 -0.00101556 0)
(1.02499 -0.00173302 0)
(1.02598 -0.00251618 0)
(1.02736 -0.00340249 0)
(1.0292 -0.00444302 0)
(1.03159 -0.00571066 0)
(1.03467 -0.00731328 0)
(1.03861 -0.0094156 0)
(1.04369 -0.0122771 0)
(1.05029 -0.0163201 0)
(1.05896 -0.022256 0)
(1.07055 -0.0305014 0)
(1.07783 -0.0622515 0)
(1.09415 -0.0706593 0)
(1.10295 -0.130699 0)
(1.10514 -0.194887 9.14391e-21)
(1.07861 -0.28598 -4.8584e-20)
(0.932581 -0.429702 -4.1236e-19)
(0.557974 -0.445921 -8.90796e-18)
(0.26357 0.0190735 0)
(0.586748 0.45697 -2.1443e-18)
(0.908753 0.421493 4.24378e-19)
(1.08589 0.268566 2.27068e-20)
(1.11203 0.155525 -2.3597e-21)
(1.10384 0.0873596 0)
(1.08544 0.0567479 0)
(1.07055 0.0305016 0)
(1.05896 0.0222562 0)
(1.05029 0.0163202 0)
(1.04369 0.0122772 0)
(1.03861 0.00941565 0)
(1.03467 0.00731332 0)
(1.03159 0.00571069 0)
(1.0292 0.00444304 0)
(1.02736 0.0034025 0)
(1.02598 0.00251619 0)
(1.02499 0.00173303 0)
(1.02435 0.00101556 0)
(1.02404 0.000334613 0)
(1.02465 -0.000111882 0)
(1.02498 -0.000337364 0)
(1.02566 -0.000568318 0)
(1.02671 -0.000809564 0)
(1.02819 -0.00106793 0)
(1.03018 -0.00135356 0)
(1.03279 -0.00168192 0)
(1.03619 -0.00207709 0)
(1.04063 -0.00257729 0)
(1.04648 -0.00324478 0)
(1.05429 -0.00418402 0)
(1.06495 -0.00557892 0)
(1.0799 -0.00754058 0)
(1.09666 -0.037262 0)
(1.12726 -0.0300339 0)
(1.16674 -0.0913237 0)
(1.23214 -0.160168 6.83856e-21)
(1.34337 -0.305523 -1.16022e-19)
(1.51735 -0.682648 6.51595e-18)
(1.50557 0.638458 -1.32149e-18)
(1.33668 0.222806 -7.83644e-21)
(1.22024 0.0928288 0)
(1.14899 0.0384128 0)
(1.1102 0.0231473 0)
(1.0799 0.00754068 0)
(1.06495 0.00557898 0)
(1.05429 0.00418406 0)
(1.04648 0.00324481 0)
(1.04063 0.00257731 0)
(1.03619 0.0020771 0)
(1.03279 0.00168193 0)
(1.03018 0.00135357 0)
(1.02819 0.00106794 0)
(1.02671 0.000809567 0)
(1.02566 0.00056832 0)
(1.02498 0.000337365 0)
(1.02465 0.000111882 0)
(1.02465 0.000114034 0)
(1.02497 0.000351019 0)
(1.02562 0.000615564 0)
(1.02664 0.000928945 0)
(1.02808 0.00131741 0)
(1.03 0.00181553 0)
(1.03252 0.00247137 0)
(1.0358 0.00335506 0)
(1.04006 0.00457333 0)
(1.04563 0.00629542 0)
(1.05303 0.00880078 0)
(1.06301 0.0125683 0)
(1.07683 0.0179205 0)
(1.09677 -0.00131332 0)
(1.12778 0.0275819 0)
(1.17703 -0.000369472 0)
(1.26632 0.00286444 0)
(1.45582 0.109495 -2.14261e-20)
(1.02497 0.152007 1.87694e-18)
(1.69802 -0.321657 -4.20918e-19)
(1.43933 -0.0986106 0)
(1.23989 -0.0547897 0)
(1.14974 -0.0354012 0)
(1.11054 -0.0218002 0)
(1.07683 -0.0179206 0)
(1.06301 -0.0125683 0)
(1.05303 -0.00880082 0)
(1.04563 -0.00629545 0)
(1.04006 -0.00457334 0)
(1.0358 -0.00335507 0)
(1.03252 -0.00247138 0)
(1.03 -0.00181553 0)
(1.02808 -0.00131742 0)
(1.02664 -0.000928947 0)
(1.02562 -0.000615566 0)
(1.02497 -0.00035102 0)
(1.02465 -0.000114035 0)
(1.02405 0.000323492 0)
(1.02434 0.000988499 0)
(1.02491 0.00170923 0)
(1.02581 0.00252876 0)
(1.02706 0.00350025 0)
(1.02872 0.00469336 0)
(1.03086 0.006204 0)
(1.03359 0.00816963 0)
(1.03705 0.0107943 0)
(1.04142 0.0143908 0)
(1.04696 0.0194543 0)
(1.05399 0.0267916 0)
(1.06293 0.0368076 0)
(1.07804 0.02984 0)
(1.09518 0.0689027 0)
(1.12203 0.0754416 0)
(1.15597 0.133983 0)
(1.17417 0.308644 1.25236e-22)
(1.09019 0.596512 0)
(1.10505 -0.572559 4.16035e-19)
(1.17466 -0.28423 0)
(1.14305 -0.148288 0)
(1.10526 -0.0854408 0)
(1.08613 -0.0555314 0)
(1.06293 -0.0368078 0)
(1.05399 -0.0267918 0)
(1.04696 -0.0194544 0)
(1.04142 -0.0143909 0)
(1.03705 -0.0107943 0)
(1.03359 -0.00816966 0)
(1.03086 -0.00620403 0)
(1.02872 -0.00469338 0)
(1.02706 -0.00350026 0)
(1.02581 -0.00252877 0)
(1.02491 -0.00170923 0)
(1.02434 -0.000988502 0)
(1.02405 -0.000323493 0)
(1.02293 0.000499665 0)
(1.02316 0.00152297 0)
(1.02362 0.00262018 0)
(1.02432 0.00384759 0)
(1.02529 0.00527329 0)
(1.02654 0.00698406 0)
(1.02811 0.00909531 0)
(1.03003 0.0117655 0)
(1.03234 0.0152178 0)
(1.03504 0.0197731 0)
(1.03811 0.0259006 0)
(1.04143 0.0342988 0)
(1.04462 0.0451173 0)
(1.05193 0.0461709 0)
(1.0541 0.0799127 0)
(1.05636 0.0977598 0)
(1.04569 0.147851 0)
(0.995346 0.22237 -4.46842e-21)
(0.874025 0.271887 -6.21321e-21)
(0.686731 0.212955 -2.12197e-20)
(0.576349 -0.00878869 -1.97816e-20)
(0.709769 -0.230345 -3.09114e-19)
(0.893973 -0.269137 -1.1693e-19)
(1.00478 -0.213969 4.46859e-21)
(1.04623 -0.144291 0)
(1.05302 -0.0942556 0)
(1.05353 -0.0672948 0)
(1.04462 -0.0451176 0)
(1.04143 -0.034299 0)
(1.03811 -0.0259007 0)
(1.03504 -0.0197732 0)
(1.03234 -0.0152179 0)
(1.03003 -0.0117655 0)
(1.02811 -0.00909534 0)
(1.02654 -0.00698409 0)
(1.02529 -0.00527331 0)
(1.02432 -0.0038476 0)
(1.02362 -0.00262018 0)
(1.02316 -0.00152298 0)
(1.02293 -0.000499666 0)
(1.02139 0.000631549 0)
(1.02155 0.0019208 0)
(1.02187 0.00329024 0)
(1.02235 0.00479964 0)
(1.02299 0.00651899 0)
(1.02378 0.00853389 0)
(1.02472 0.0109525 0)
(1.02577 0.0139141 0)
(1.02689 0.0175999 0)
(1.02797 0.0222447 0)
(1.02882 0.0281433 0)
(1.02909 0.0356392 0)
(1.0282 0.0447667 0)
(1.02902 0.0492387 0)
(1.02354 0.0718021 0)
(1.0086 0.0902305 0)
(0.990342 0.112066 0)
(0.947911 0.126184 0)
(0.888846 0.117521 2.85198e-21)
(0.831829 0.0696556 -1.43135e-20)
(0.811618 -0.0106821 0)
(0.844028 -0.0855736 0)
(0.904556 -0.122886 -4.97365e-20)
(0.960313 -0.124033 0)
(0.998401 -0.106772 0)
(1.0182 -0.0810427 0)
(1.0271 -0.0633555 0)
(1.0282 -0.0447668 0)
(1.02909 -0.0356393 0)
(1.02882 -0.0281434 0)
(1.02797 -0.0222448 0)
(1.02689 -0.0176 0)
(1.02577 -0.0139141 0)
(1.02472 -0.0109525 0)
(1.02378 -0.00853392 0)
(1.02299 -0.00651901 0)
(1.02235 -0.00479966 0)
(1.02187 -0.00329025 0)
(1.02155 -0.0019208 0)
(1.02139 -0.000631551 0)
(1.01956 0.000715133 0)
(1.01965 0.0021703 0)
(1.01983 0.00370135 0)
(1.02008 0.00536325 0)
(1.02039 0.00721784 0)
(1.02075 0.00933678 0)
(1.0211 0.0118047 0)
(1.02139 0.0147221 0)
(1.02152 0.0182071 0)
(1.02133 0.0223948 0)
(1.02058 0.0274317 0)
(1.01892 0.0334663 0)
(1.01583 0.0406309 0)
(1.00887 0.0476186 0)
(1.00532 0.0545309 0)
(0.991987 0.0656004 0)
(0.975475 0.0779437 0)
(0.949822 0.0736187 0)
(0.921386 0.0606625 0)
(0.898596 0.0328588 0)
(0.891293 -0.00489806 6.33819e-22)
(0.903182 -0.041076 -2.00385e-20)
(0.928367 -0.0652973 0)
(0.956718 -0.0747084 0)
(0.982939 -0.0687266 0)
(0.999411 -0.0612994 0)
(1.00887 -0.0476188 0)
(1.01583 -0.040631 0)
(1.01892 -0.0334664 0)
(1.02058 -0.0274318 0)
(1.02133 -0.0223949 0)
(1.02152 -0.0182072 0)
(1.02139 -0.0147221 0)
(1.0211 -0.0118047 0)
(1.02075 -0.00933681 0)
(1.02039 -0.00721786 0)
(1.02008 -0.00536327 0)
(1.01983 -0.00370136 0)
(1.01965 -0.0021703 0)
(1.01956 -0.000715135 0)
(1.01757 0.00075274 0)
(1.01759 0.00227944 0)
(1.01764 0.00387033 0)
(1.01769 0.00557034 0)
(1.01773 0.00742756 0)
(1.01772 0.0094939 0)
(1.0176 0.0118252 0)
(1.01731 0.0144796 0)
(1.01673 0.0175137 0)
(1.01571 0.0209731 0)
(1.01403 0.0248752 0)
(1.01141 0.0291742 0)
(1.00742 0.0336945 0)
(1.00152 0.0377977 0)
(0.99644 0.0432757 0)
(0.986068 0.0465914 0)
(0.974442 0.0537566 0)
(0.959204 0.04515 0)
(0.944509 0.0346628 0)
(0.933886 0.0178933 0)
(0.930658 -0.00262973 0)
(0.935955 -0.0225785 0)
(0.947951 -0.0379159 0)
(0.963076 -0.0467278 0)
(0.979846 -0.0471188 0)
(0.991611 -0.0452108 0)
(1.00152 -0.0377977 0)
(1.00742 -0.0336946 0)
(1.01141 -0.0291742 0)
(1.01403 -0.0248752 0)
(1.01571 -0.0209732 0)
(1.01673 -0.0175137 0)
(1.01731 -0.0144796 0)
(1.0176 -0.0118252 0)
(1.01772 -0.00949392 0)
(1.01773 -0.00742758 0)
(1.01769 -0.00557036 0)
(1.01764 -0.00387034 0)
(1.01759 -0.00227944 0)
(1.01757 -0.000752742 0)
(1.01552 0.000751184 0)
(1.0155 0.00226985 0)
(1.01544 0.00383738 0)
(1.01534 0.00548656 0)
(1.01516 0.00725031 0)
(1.01488 0.00916078 0)
(1.01443 0.0112476 0)
(1.01376 0.0135345 0)
(1.01275 0.016033 0)
(1.0113 0.0187323 0)
(1.00925 0.0215837 0)
(1.00641 0.0244758 0)
(1.00257 0.0272026 0)
(0.99755 0.0293707 0)
(0.993054 0.0333891 0)
(0.985415 0.0332434 0)
(0.977463 0.0376452 0)
(0.968236 0.0291088 0)
(0.960058 0.0214039 0)
(0.954502 0.0107428 0)
(0.952865 -0.00156609 0)
(0.955563 -0.0136277 0)
(0.961919 -0.0236388 0)
(0.9705 -0.0305016 0)
(0.981202 -0.0327809 0)
(0.989379 -0.0331191 0)
(0.997549 -0.0293707 0)
(1.00257 -0.0272027 0)
(1.00641 -0.0244758 0)
(1.00925 -0.0215837 0)
(1.0113 -0.0187324 0)
(1.01275 -0.016033 0)
(1.01376 -0.0135345 0)
(1.01443 -0.0112477 0)
(1.01488 -0.0091608 0)
(1.01516 -0.00725032 0)
(1.01534 -0.00548657 0)
(1.01544 -0.00383739 0)
(1.0155 -0.00226985 0)
(1.01552 -0.000751186 0)
(1.01352 0.000719576 0)
(1.01346 0.00216989 0)
(1.01333 0.00365331 0)
(1.01311 0.00519081 0)
(1.01279 0.00680157 0)
(1.01233 0.00850134 0)
(1.01169 0.0103 0)
(1.01081 0.012198 0)
(1.00961 0.0141807 0)
(1.00802 0.0162106 0)
(1.00593 0.0182176 0)
(1.00326 0.0200863 0)
(0.999899 0.0216454 0)
(0.995818 0.0226654 0)
(0.992214 0.0255999 0)
(0.986735 0.0240238 0)
(0.981288 0.0269261 0)
(0.9755 0.0196025 0)
(0.970645 0.0140175 0)
(0.967475 0.00691275 0)
(0.966559 -0.00100271 0)
(0.968073 -0.00879799 0)
(0.971729 -0.0155762 0)
(0.976888 -0.0207099 0)
(0.983876 -0.0232733 0)
(0.989529 -0.02439 0)
(0.995818 -0.0226654 0)
(0.999899 -0.0216455 0)
(1.00326 -0.0200863 0)
(1.00593 -0.0182176 0)
(1.00802 -0.0162107 0)
(1.00961 -0.0141807 0)
(1.01081 -0.012198 0)
(1.01169 -0.0103 0)
(1.01233 -0.00850136 0)
(1.01279 -0.00680159 0)
(1.01311 -0.00519082 0)
(1.01333 -0.00365331 0)
(1.01346 -0.0021699 0)
(1.01352 -0.000719577 0)
(1.01163 0.000667402 0)
(1.01155 0.00200875 0)
(1.01137 0.00336913 0)
(1.01109 0.00475952 0)
(1.01069 0.00618819 0)
(1.01013 0.00765892 0)
(1.00939 0.00916876 0)
(1.00843 0.010705 0)
(1.0072 0.0122411 0)
(1.00564 0.0137319 0)
(1.00371 0.0151081 0)
(1.00136 0.0162708 0)
(0.998568 0.0170876 0)
(0.995356 0.0175273 0)
(0.992553 0.0197186 0)
(0.988635 0.0176046 0)
(0.98489 0.0197164 0)
(0.981035 0.0136811 0)
(0.978006 0.00960431 0)
(0.97609 0.00468188 0)
(0.975556 -0.000677573 -1.8388e-31)
(0.976485 -0.00597272 0)
(0.978741 -0.0107164 0)
(0.982016 -0.0145342 0)
(0.986627 -0.0169355 0)
(0.990672 -0.0181589 0)
(0.995356 -0.0175273 0)
(0.998568 -0.0170876 0)
(1.00136 -0.0162709 0)
(1.00371 -0.0151081 0)
(1.00564 -0.0137319 0)
(1.0072 -0.0122411 0)
(1.00843 -0.010705 0)
(1.00939 -0.00916878 0)
(1.01013 -0.00765893 0)
(1.01069 -0.0061882 0)
(1.01109 -0.00475953 0)
(1.01137 -0.00336913 0)
(1.01155 -0.00200875 0)
(1.01163 -0.000667403 0)
(1.00991 0.00060321 0)
(1.00981 0.00181243 0)
(1.00961 0.0030294 0)
(1.00929 0.00425744 0)
(1.00885 0.00549701 0)
(1.00827 0.00674417 0)
(1.00751 0.00798878 0)
(1.00656 0.00921232 0)
(1.00538 0.0103854 0)
(1.00396 0.0114654 0)
(1.00226 0.0123938 0)
(1.00027 0.0130959 0)
(0.998019 0.0134816 0)
(0.995534 0.0134561 0)
(0.992928 0.0131066 0)
(0.990391 0.0149033 0)
(0.9878 0.0114163 0)
(0.98544 0.0090804 0)
(0.98363 0.00611213 0)
(0.982556 0.0027033 0)
(0.982343 -0.000907894 3.51254e-32)
(0.983014 -0.00445056 0)
(0.984493 -0.00766521 0)
(0.986616 -0.0103415 0)
(0.989135 -0.0122939 0)
(0.992928 -0.0131066 0)
(0.995534 -0.0134561 0)
(0.998019 -0.0134816 0)
(1.00027 -0.0130959 0)
(1.00226 -0.0123939 0)
(1.00396 -0.0114654 0)
(1.00538 -0.0103854 0)
(1.00656 -0.00921233 0)
(1.00751 -0.00798879 0)
(1.00827 -0.00674418 0)
(1.00885 -0.00549702 0)
(1.00929 -0.00425744 0)
(1.00961 -0.0030294 0)
(1.00981 -0.00181243 0)
(1.00991 -0.000603211 0)
(1.00836 0.000533923 0)
(1.00826 0.0016018 0)
(1.00805 0.00266918 0)
(1.00773 0.00373403 0)
(1.00729 0.00479181 0)
(1.00672 0.0058342 0)
(1.00599 0.00684786 0)
(1.0051 0.00781304 0)
(1.00404 0.00870228 0)
(1.00278 0.00947933 0)
(1.00133 0.0100986 0)
(0.999694 0.010506 0)
(0.997893 0.0106405 0)
(0.995973 0.0104383 0)
(0.994001 0.00983849 0)
(0.992163 0.00885194 0)
(0.990429 0.0074677 0)
(0.988997 0.00565242 0)
(0.987967 0.00352875 0)
(0.987427 0.00120015 -5.16375e-32)
(0.987427 -0.00120012 5.16375e-32)
(0.987967 -0.00352872 0)
(0.988997 -0.00565239 0)
(0.990429 -0.00746767 0)
(0.992163 -0.00885192 0)
(0.994001 -0.00983847 0)
(0.995973 -0.0104383 0)
(0.997893 -0.0106405 0)
(0.999694 -0.010506 0)
(1.00133 -0.0100986 0)
(1.00278 -0.00947934 0)
(1.00404 -0.00870229 0)
(1.0051 -0.00781305 0)
(1.00599 -0.00684786 0)
(1.00672 -0.00583421 0)
(1.00729 -0.00479181 0)
(1.00773 -0.00373403 0)
(1.00805 -0.00266918 0)
(1.00826 -0.0016018 0)
(1.00836 -0.000533924 0)
(1.007 0.000464652 0)
(1.0069 0.00139212 0)
(1.0067 0.00231361 0)
(1.00639 0.00322373 0)
(1.00598 0.0041151 0)
(1.00544 0.00497742 0)
(1.00477 0.00579666 0)
(1.00398 0.00655431 0)
(1.00304 0.00722677 0)
(1.00196 0.00778517 0)
(1.00075 0.00819567 0)
(0.999416 0.00842074 0)
(0.997988 0.00842157 0)
(0.996507 0.0081622 0)
(0.99503 0.00761615 0)
(0.993638 0.00677847 0)
(0.992368 0.0056499 0)
(0.991332 0.00425144 0)
(0.990596 0.00264187 0)
(0.990213 0.000896308 -5.12091e-33)
(0.990213 -0.000896282 5.12091e-33)
(0.990596 -0.00264185 0)
(0.991332 -0.00425142 0)
(0.992368 -0.00564988 0)
(0.993638 -0.00677845 0)
(0.99503 -0.00761614 0)
(0.996507 -0.00816219 0)
(0.997988 -0.00842157 0)
(0.999416 -0.00842074 0)
(1.00075 -0.00819567 0)
(1.00196 -0.00778517 0)
(1.00304 -0.00722678 0)
(1.00398 -0.00655431 0)
(1.00477 -0.00579667 0)
(1.00544 -0.00497742 0)
(1.00598 -0.0041151 0)
(1.00639 -0.00322373 0)
(1.0067 -0.00231361 0)
(1.0069 -0.00139212 0)
(1.007 -0.000464652 0)
(1.00583 0.000398831 0)
(1.00573 0.00119355 0)
(1.00555 0.00197905 0)
(1.00526 0.00274814 0)
(1.00488 0.00349216 0)
(1.0044 0.00420036 0)
(1.00381 0.00485944 0)
(1.00311 0.00545319 0)
(1.0023 0.00596231 0)
(1.00139 0.00636464 0)
(1.00039 0.00663576 0)
(0.999312 0.00675031 0)
(0.998181 0.00668397 0)
(0.997031 0.00641635 0)
(0.995905 0.00593451 0)
(0.994852 0.00523657 0)
(0.993919 0.0043312 0)
(0.993163 0.00324127 0)
(0.99263 0.00200659 0)
(0.992355 0.000679472 0)
(0.992355 -0.000679452 0)
(0.99263 -0.00200657 0)
(0.993163 -0.00324125 0)
(0.993919 -0.00433119 0)
(0.994852 -0.00523656 0)
(0.995905 -0.0059345 0)
(0.997031 -0.00641634 0)
(0.998181 -0.00668396 0)
(0.999312 -0.0067503 0)
(1.00039 -0.00663576 0)
(1.00139 -0.00636464 0)
(1.0023 -0.00596231 0)
(1.00311 -0.00545319 0)
(1.00381 -0.00485945 0)
(1.0044 -0.00420036 0)
(1.00488 -0.00349216 0)
(1.00526 -0.00274814 0)
(1.00555 -0.00197905 0)
(1.00573 -0.00119355 0)
(1.00583 -0.000398832 0)
(1.00482 0.000338514 0)
(1.00474 0.00101205 0)
(1.00457 0.00167482 0)
(1.00432 0.00231894 0)
(1.00398 0.00293548 0)
(1.00355 0.00351418 0)
(1.00304 0.00404311 0)
(1.00244 0.00450864 0)
(1.00175 0.00489543 0)
(1.001 0.00518682 0)
(1.00018 0.00536548 0)
(0.999306 0.00541444 0)
(0.998408 0.00531861 0)
(0.99751 0.00506655 0)
(0.996644 0.00465253 0)
(0.995843 0.00407826 0)
(0.995144 0.00335382 0)
(0.994583 0.00249874 0)
(0.99419 0.00154225 0)
(0.993988 0.000521435 0)
(0.993988 -0.000521419 0)
(0.99419 -0.00154223 0)
(0.994583 -0.00249872 0)
(0.995144 -0.0033538 0)
(0.995843 -0.00407825 0)
(0.996644 -0.00465252 0)
(0.99751 -0.00506654 0)
(0.998408 -0.0053186 0)
(0.999306 -0.00541444 0)
(1.00018 -0.00536548 0)
(1.001 -0.00518682 0)
(1.00175 -0.00489543 0)
(1.00244 -0.00450864 0)
(1.00304 -0.00404311 0)
(1.00355 -0.00351418 0)
(1.00398 -0.00293548 0)
(1.00432 -0.00231894 0)
(1.00457 -0.00167482 0)
(1.00474 -0.00101205 0)
(1.00482 -0.000338514 0)
(1.00398 0.000284704 0)
(1.0039 0.000850467 0)
(1.00375 0.00140511 0)
(1.00353 0.00194074 0)
(1.00324 0.00244883 0)
(1.00287 0.00292005 0)
(1.00243 0.00334409 0)
(1.00192 0.00370974 0)
(1.00135 0.00400502 0)
(1.00072 0.00421754 0)
(1.00005 0.00433508 0)
(0.99935 0.00434638 0)
(0.998637 0.00424215 0)
(0.997932 0.00401626 0)
(0.99726 0.0036669 0)
(0.996646 0.00319762 0)
(0.996115 0.00261793 0)
(0.995692 0.00194369 0)
(0.995398 0.00119681 0)
(0.995246 0.000404151 -5.18943e-33)
(0.995246 -0.000404137 5.18943e-33)
(0.995398 -0.00119679 0)
(0.995692 -0.00194368 0)
(0.996115 -0.00261792 0)
(0.996646 -0.00319761 0)
(0.99726 -0.0036669 0)
(0.997932 -0.00401625 0)
(0.998637 -0.00424214 0)
(0.99935 -0.00434637 0)
(1.00005 -0.00433508 0)
(1.00072 -0.00421754 0)
(1.00135 -0.00400502 0)
(1.00192 -0.00370974 0)
(1.00243 -0.00334409 0)
(1.00287 -0.00292005 0)
(1.00324 -0.00244884 0)
(1.00353 -0.00194074 0)
(1.00375 -0.00140511 0)
(1.0039 -0.000850468 0)
(1.00398 -0.000284704 0)
(1.00327 0.000237672 0)
(1.0032 0.000709479 0)
(1.00307 0.00117056 0)
(1.00288 0.00161346 0)
(1.00263 0.00203042 0)
(1.00231 0.00241319 0)
(1.00194 0.00275308 0)
(1.00151 0.00304101 0)
(1.00104 0.00326769 0)
(1.00053 0.00342395 0)
(0.99998 0.0035012 0)
(0.999417 0.00349198 0)
(0.998849 0.00339068 0)
(0.998294 0.00319428 0)
(0.997769 0.00290305 0)
(0.997294 0.00252113 0)
(0.996886 0.00205688 0)
(0.996564 0.00152296 0)
(0.99634 0.000935981 0)
(0.996225 0.000315771 0)
(0.996225 -0.000315759 0)
(0.99634 -0.00093597 0)
(0.996564 -0.00152295 0)
(0.996886 -0.00205687 0)
(0.997294 -0.00252112 0)
(0.997769 -0.00290304 0)
(0.998294 -0.00319427 0)
(0.998849 -0.00339067 0)
(0.999417 -0.00349197 0)
(0.99998 -0.00350119 0)
(1.00053 -0.00342395 0)
(1.00104 -0.00326769 0)
(1.00151 -0.00304101 0)
(1.00194 -0.00275308 0)
(1.00231 -0.00241319 0)
(1.00263 -0.00203042 0)
(1.00288 -0.00161346 0)
(1.00307 -0.00117056 0)
(1.0032 -0.000709479 0)
(1.00327 -0.000237672 0)
(1.00267 0.00019721 0)
(1.00262 0.000588354 0)
(1.00251 0.000969598 0)
(1.00235 0.00133419 0)
(1.00213 0.00167525 0)
(1.00187 0.00198566 0)
(1.00155 0.0022582 0)
(1.0012 0.00248557 0)
(1.00081 0.0026606 0)
(1.00039 0.00277651 0)
(0.999945 0.00282723 0)
(0.999491 0.00280787 0)
(0.999039 0.00271509 0)
(0.998599 0.00254768 0)
(0.998187 0.0023069 0)
(0.997817 0.00199686 0)
(0.997501 0.00162465 0)
(0.997252 0.00120033 0)
(0.99708 0.000736603 0)
(0.996992 0.000248319 0)
(0.996992 -0.00024831 0)
(0.99708 -0.000736594 0)
(0.997252 -0.00120032 0)
(0.997501 -0.00162464 0)
(0.997817 -0.00199685 0)
(0.998187 -0.00230689 0)
(0.998599 -0.00254767 0)
(0.999039 -0.00271508 0)
(0.999491 -0.00280786 0)
(0.999945 -0.00282723 0)
(1.00039 -0.00277651 0)
(1.00081 -0.0026606 0)
(1.0012 -0.00248557 0)
(1.00155 -0.0022582 0)
(1.00187 -0.00198566 0)
(1.00213 -0.00167525 0)
(1.00235 -0.00133419 0)
(1.00251 -0.000969598 0)
(1.00262 -0.000588354 0)
(1.00267 -0.00019721 0)
(1.00218 0.000162831 0)
(1.00214 0.000485555 0)
(1.00205 0.000799423 0)
(1.00191 0.00109848 0)
(1.00173 0.00137674 0)
(1.00151 0.00162819 0)
(1.00125 0.00184687 0)
(1.00095 0.00202694 0)
(1.00063 0.00216287 0)
(1.00029 0.00224962 0)
(0.99993 0.00228291 0)
(0.999565 0.00225951 0)
(0.999203 0.00217753 0)
(0.998854 0.00203675 0)
(0.998529 0.00183883 0)
(0.998238 0.00158754 0)
(0.997992 0.00128879 0)
(0.997798 0.000950553 0)
(0.997665 0.000582638 0)
(0.997597 0.000196298 0)
(0.997597 -0.00019629 0)
(0.997665 -0.00058263 0)
(0.997798 -0.000950545 0)
(0.997992 -0.00128878 0)
(0.998238 -0.00158753 0)
(0.998529 -0.00183882 0)
(0.998854 -0.00203674 0)
(0.999203 -0.00217753 0)
(0.999565 -0.00225951 0)
(0.99993 -0.00228291 0)
(1.00029 -0.00224962 0)
(1.00063 -0.00216287 0)
(1.00095 -0.00202694 0)
(1.00125 -0.00184687 0)
(1.00151 -0.00162819 0)
(1.00173 -0.00137674 0)
(1.00191 -0.00109848 0)
(1.00205 -0.000799423 0)
(1.00214 -0.000485554 0)
(1.00218 -0.000162831 0)
(1.00178 0.000133906 0)
(1.00174 0.000399144 0)
(1.00166 0.000656638 0)
(1.00155 0.00090123 0)
(1.0014 0.00112781 0)
(1.00122 0.00133135 0)
(1.001 0.00150695 0)
(1.00076 0.00164996 0)
(1.0005 0.00175609 0)
(1.00022 0.00182161 0)
(0.999926 0.00184345 0)
(0.999633 0.0018195 0)
(0.999343 0.00174874 0)
(0.999065 0.00163147 0)
(0.998808 0.00146945 0)
(0.998578 0.00126599 0)
(0.998385 0.00102595 0)
(0.998233 0.000755658 0)
(0.998129 0.000462744 0)
(0.998076 0.00015583 0)
(0.998076 -0.000155823 0)
(0.998129 -0.000462737 0)
(0.998233 -0.000755651 0)
(0.998385 -0.00102594 0)
(0.998578 -0.00126599 0)
(0.998808 -0.00146945 0)
(0.999065 -0.00163147 0)
(0.999343 -0.00174873 0)
(0.999633 -0.00181949 0)
(0.999926 -0.00184345 0)
(1.00022 -0.0018216 0)
(1.0005 -0.00175609 0)
(1.00076 -0.00164995 0)
(1.001 -0.00150694 0)
(1.00122 -0.00133135 0)