/*--------------------------------*- C++ -*----------------------------------*\
| =========                 |                                                 |
| \\      /  F ield         | OpenFOAM: The Open Source CFD Toolbox           |
|  \\    /   O peration     | Version:  2312                                  |
|   \\  /    A nd           | Website:  www.openfoam.com                      |
|    \\/     M anipulation  |                                                 |
\*---------------------------------------------------------------------------*/
FoamFile
{
    version     2.0;
    format      ascii;
    arch        "LSB;label=32;scalar=64";
    class       volVectorField;
    location    "0";
    object      U;
}
// * * * * * * * * * * * * * * * * * * * * * * * * * * * * * * * * * * * * * //

dimensions      [0 1 -1 0 0 0 0];

internalField   nonuniform List<vector> 
9000
(
(0.54569 0.124838 0)
(0.423991 0.0592407 0)
(0.252002 0.0192784 0)
(0.170326 0.00894679 0)
(0.125243 0.00457216 0)
(0.0973572 0.00256512 0)
(0.0788436 0.00159337 0)
(0.065841 0.00106974 0)
(0.0563226 0.000757746 0)
(0.0491525 0.000556645 0)
(0.0436433 0.000418998 0)
(0.0393515 0.000320543 0)
(0.0359766 0.000247828 0)
(0.0333065 0.000192851 0)
(0.0311865 0.000150564 0)
(0.0295007 0.000117628 0)
(0.0281607 9.17459e-05 0)
(0.0270976 7.12876e-05 0)
(0.0262572 5.5063e-05 0)
(0.0255961 4.21831e-05 0)
(0.0250794 3.197e-05 0)
(0.0246788 2.3898e-05 0)
(0.0243713 1.75531e-05 0)
(0.0241381 1.26053e-05 0)
(0.0239639 8.78883e-06 0)
(0.023836 5.88744e-06 0)
(0.0237443 3.72411e-06 0)
(0.0236803 2.1528e-06 0)
(0.0236375 1.05219e-06 0)
(0.0236106 3.20653e-07 0)
(0.0235954 -1.27902e-07 0)
(0.023589 -3.67562e-07 0)
(0.0235892 -4.63608e-07 0)
(0.0235948 -4.75524e-07 0)
(0.0236054 -4.60061e-07 0)
(0.0236216 -4.74613e-07 0)
(0.0236449 -5.81322e-07 0)
(0.0236781 -8.52642e-07 0)
(0.0237255 -1.37985e-06 0)
(0.0237935 -2.28802e-06 0)
(0.0238915 -3.76679e-06 0)
(0.0240338 -6.14417e-06 0)
(0.0242425 -1.0092e-05 0)
(0.0245543 -1.72248e-05 0)
(0.0250351 -3.19554e-05 0)
(0.0258198 -6.91635e-05 0)
(0.0272065 -0.000186437 0)
(0.029802 -0.000521712 0)
(0.0367135 -0.00213073 0)
(0.0539881 -0.0154749 0)
(0.843381 0.29686 0)
(0.756457 0.216379 0)
(0.557006 0.122547 0)
(0.422489 0.0711011 0)
(0.330579 0.0434934 0)
(0.266432 0.0283466 0)
(0.220488 0.0195557 0)
(0.18667 0.0140989 0)
(0.161174 0.0104978 0)
(0.141585 0.00799894 0)
(0.126318 0.00619516 0)
(0.114295 0.00485309 0)
(0.104755 0.00383116 0)
(0.0971485 0.00303916 0)
(0.0910666 0.0024171 0)
(0.0861985 0.00192361 0)
(0.0823038 0.00152931 0)
(0.0791938 0.00121272 0)
(0.0767182 0.000957802 0)
(0.0747565 0.000752326 0)
(0.073211 0.000586799 0)
(0.0720021 0.00045374 0)
(0.0710647 0.00034717 0)
(0.0703454 0.00026226 0)
(0.0698002 0.000195063 0)
(0.0693933 0.000142331 0)
(0.0690952 0.000101363 0)
(0.0688821 6.99002e-05 0)
(0.0687346 4.60285e-05 0)
(0.0686375 2.81117e-05 0)
(0.068579 1.47257e-05 0)
(0.0685503 4.60304e-06 0)
(0.0685454 -3.42235e-06 0)
(0.0685612 -1.04707e-05 0)
(0.0685968 -1.76804e-05 0)
(0.0686544 -2.62864e-05 0)
(0.0687393 -3.77263e-05 0)
(0.0688606 -5.37954e-05 0)
(0.0690325 -7.68909e-05 0)
(0.069276 -0.000110425 0)
(0.069622 -0.000159572 0)
(0.0701169 -0.000232739 0)
(0.070832 -0.000344676 0)
(0.0718819 -0.000523627 0)
(0.0734602 -0.000829035 0)
(0.0759163 -0.00139918 0)
(0.0799129 -0.00258783 0)
(0.0866814 -0.00533284 0)
(0.0996694 -0.0122792 0)
(0.123416 -0.0338338 0)
(0.873652 0.303899 0)
(0.861542 0.301224 0)
(0.71984 0.215085 0)
(0.591182 0.145547 0)
(0.485708 0.0990817 0)
(0.403924 0.0693545 0)
(0.341249 0.0501003 0)
(0.293014 0.037213 0)
(0.255535 0.0282663 0)
(0.226124 0.0218422 0)
(0.202844 0.0170946 0)
(0.184289 0.0135025 0)
(0.169427 0.0107328 0)
(0.157481 0.00856538 0)
(0.147864 0.00684961 0)
(0.140118 0.00547954 0)
(0.133884 0.0043786 0)
(0.128879 0.00349015 0)
(0.124872 0.00277142 0)
(0.121679 0.0021895 0)
(0.119148 0.00171864 0)
(0.117156 0.00133843 0)
(0.115599 0.00103245 0)
(0.114396 0.000787377 0)
(0.113475 0.00059227 0)
(0.11278 0.000438078 0)
(0.112265 0.000317246 0)
(0.11189 0.000223416 0)
(0.111627 0.000151184 0)
(0.111449 9.5897e-05 0)
(0.111338 5.34798e-05 0)
(0.111281 2.02745e-05 0)
(0.111267 -7.11469e-06 0)
(0.111292 -3.1986e-05 0)
(0.111355 -5.77288e-05 0)
(0.111461 -8.80609e-05 0)
(0.111617 -0.000127351 0)
(0.11184 -0.000181092 0)
(0.112155 -0.000256643 0)
(0.112596 -0.000364457 0)
(0.113216 -0.000520249 0)
(0.114091 -0.000749019 0)
(0.115336 -0.00109298 0)
(0.117131 -0.00162806 0)
(0.11976 -0.00249987 0)
(0.123692 -0.00400622 0)
(0.12971 -0.00679111 0)
(0.139029 -0.0122822 0)
(0.153847 -0.023628 0)
(0.175403 -0.0485686 0)
(0.840149 0.266312 0)
(0.871712 0.337102 0)
(0.790663 0.284607 0)
(0.690244 0.215642 0)
(0.592233 0.158967 0)
(0.507838 0.117578 0)
(0.438463 0.0881892 0)
(0.382423 0.0672162 0)
(0.337368 0.0519894 0)
(0.301128 0.0407053 0)
(0.271907 0.0321755 0)
(0.248284 0.0256135 0)
(0.229146 0.02049 0)
(0.21362 0.0164413 0)
(0.201022 0.0132112 0)
(0.190804 0.0106152 0)
(0.182531 0.00851787 0)
(0.175848 0.0068173 0)
(0.17047 0.00543576 0)
(0.166159 0.00431281 0)
(0.162724 0.00340082 0)
(0.160003 0.00266169 0)
(0.157864 0.00206465 0)
(0.156199 0.00158455 0)
(0.154915 0.00120066 0)
(0.153938 0.000895741 0)
(0.153206 0.000655352 0)
(0.152669 0.000467286 0)
(0.152284 0.00032112 0)
(0.152021 0.00020784 0)
(0.151854 0.00011951 0)
(0.151765 4.89651e-05 0)
(0.15174 -1.04851e-05 0)
(0.151773 -6.53818e-05 0)
(0.151865 -0.000122487 0)
(0.15202 -0.000189251 0)
(0.152252 -0.00027445 0)
(0.152583 -0.000389114 0)
(0.153045 -0.000547955 0)
(0.153688 -0.00077169 0)
(0.154581 -0.001091 0)
(0.155823 -0.00155356 0)
(0.157562 -0.00223709 0)
(0.160013 -0.00327435 0)
(0.1635 -0.00490244 0)
(0.168503 -0.00756136 0)
(0.175721 -0.0120885 0)
(0.186009 -0.0200713 0)
(0.200258 -0.0343072 0)
(0.217698 -0.0594594 0)
(0.792789 0.228258 0)
(0.841577 0.343651 0)
(0.806334 0.32733 0)
(0.738174 0.270898 0)
(0.657792 0.213239 0)
(0.580595 0.165448 0)
(0.512309 0.128448 0)
(0.454227 0.100369 0)
(0.405755 0.079059 0)
(0.365672 0.062748 0)
(0.332668 0.0501201 0)
(0.305548 0.0402293 0)
(0.283289 0.0323998 0)
(0.26504 0.0261455 0)
(0.250099 0.0211125 0)
(0.237889 0.0170389 0)
(0.227934 0.0137283 0)
(0.219845 0.0110303 0)
(0.213296 0.00882869 0)
(0.208019 0.00703201 0)
(0.203789 0.00556739 0)
(0.200421 0.00437615 0)
(0.197759 0.0034105 0)
(0.195672 0.00263114 0)
(0.194054 0.00200551 0)
(0.192812 0.00150639 0)
(0.191875 0.00111088 0)
(0.19118 0.000799529 0)
(0.190678 0.000555654 0)
(0.190331 0.000364769 0)
(0.190106 0.00021406 0)
(0.189983 9.19029e-05 0)
(0.189946 -1.26113e-05 0)
(0.189987 -0.000110193 0)
(0.190106 -0.000211949 0)
(0.190311 -0.000330136 0)
(0.190617 -0.000479167 0)
(0.191053 -0.000677073 0)
(0.191658 -0.000947696 0)
(0.19249 -0.00132417 0)
(0.193631 -0.00185461 0)
(0.195196 -0.00261186 0)
(0.197345 -0.00371029 0)
(0.200305 -0.00533583 0)
(0.204386 -0.00779931 0)
(0.210007 -0.0116298 0)
(0.217673 -0.0177276 0)
(0.227811 -0.0275702 0)
(0.240393 -0.0432762 0)
(0.253804 -0.06726 0)
(0.743592 0.195142 0)
(0.795602 0.333988 0)
(0.790836 0.348463 0)
(0.751218 0.309692 0)
(0.691465 0.257686 0)
(0.626686 0.208575 0)
(0.564718 0.167177 0)
(0.509037 0.133803 0)
(0.460668 0.107325 0)
(0.419447 0.0863769 0)
(0.384711 0.0697485 0)
(0.355647 0.0564727 0)
(0.331445 0.045806 0)
(0.311367 0.0371847 0)
(0.294765 0.030181 0)
(0.281084 0.0244685 0)
(0.269848 0.0197957 0)
(0.260657 0.0159669 0)
(0.253171 0.0128275 0)
(0.247105 0.0102548 0)
(0.242217 0.00814943 0)
(0.238304 0.00643085 0)
(0.235193 0.00503283 0)
(0.232742 0.00390053 0)
(0.230828 0.00298819 0)
(0.229352 0.0022574 0)
(0.228229 0.00167562 0)
(0.22739 0.00121512 0)
(0.226779 0.00085199 0)
(0.226352 0.000565388 0)
(0.226073 0.000336786 0)
(0.225917 0.000149313 0)
(0.225867 -1.29285e-05 0)
(0.225915 -0.00016559 0)
(0.226059 -0.000324923 0)
(0.22631 -0.000508839 0)
(0.226685 -0.000738313 0)
(0.227216 -0.00103938 0)
(0.227947 -0.00144604 0)
(0.228943 -0.00200481 0)
(0.230291 -0.00278174 0)
(0.23211 -0.00387393 0)
(0.234561 -0.00542821 0)
(0.237853 -0.00767176 0)
(0.242256 -0.0109612 0)
(0.248079 -0.0158565 0)
(0.255614 -0.0232167 0)
(0.264927 -0.0342712 0)
(0.275464 -0.0504577 0)
(0.285443 -0.072772 0)
(0.696142 0.167331 0)
(0.745094 0.316216 0)
(0.758891 0.354295 0)
(0.741687 0.333838 0)
(0.701616 0.291232 0)
(0.651172 0.244726 0)
(0.598507 0.201984 0)
(0.548289 0.165387 0)
(0.50274 0.135037 0)
(0.46264 0.110206 0)
(0.42799 0.0899832 0)
(0.398418 0.0735118 0)
(0.3734 0.0600681 0)
(0.352374 0.0490652 0)
(0.3348 0.0400358 0)
(0.320184 0.0326096 0)
(0.308085 0.026493 0)
(0.298119 0.0214516 0)
(0.289952 0.0172971 0)
(0.283294 0.0138773 0)
(0.2779 0.0110676 0)
(0.273559 0.00876555 0)
(0.27009 0.0068863 0)
(0.267342 0.00535894 0)
(0.265184 0.00412391 0)
(0.263511 0.00313085 0)
(0.262229 0.00233692 0)
(0.261266 0.00170537 0)
(0.26056 0.00120441 0)
(0.260062 0.000806164 0)
(0.259734 0.00048578 0)
(0.259548 0.000220525 0)
(0.259486 -1.10792e-05 0)
(0.259538 -0.000230216 0)
(0.259705 -0.000458874 0)
(0.259995 -0.000721204 0)
(0.260429 -0.00104531 0)
(0.261039 -0.00146572 0)
(0.261873 -0.00202689 0)
(0.262997 -0.00278848 0)
(0.264498 -0.00383324 0)
(0.266491 -0.00527911 0)
(0.269122 -0.00729772 0)
(0.272571 -0.010142 0)
(0.277043 -0.0141858 0)
(0.282732 -0.0199724 0)
(0.289738 -0.0282568 0)
(0.297873 -0.0399825 0)
(0.306349 -0.0560277 0)
(0.313529 -0.0765632 0)
(0.651267 0.144583 0)
(0.694908 0.29515 0)
(0.719074 0.349963 0)
(0.718244 0.346098 0)
(0.695137 0.314396 0)
(0.658876 0.273091 0)
(0.616786 0.231502 0)
(0.573865 0.193658 0)
(0.533047 0.160849 0)
(0.495818 0.133087 0)
(0.46276 0.109879 0)
(0.433934 0.0905844 0)
(0.409122 0.0745782 0)
(0.387973 0.0613053 0)
(0.370088 0.0502964 0)
(0.355065 0.0411624 0)
(0.342524 0.0335839 0)
(0.332117 0.0272988 0)
(0.323531 0.022092 0)
(0.31649 0.0177859 0)
(0.310754 0.0142334 0)
(0.306112 0.0113117 0)
(0.302384 0.00891822 0)
(0.299416 0.0069662 0)
(0.297074 0.00538231 0)
(0.295247 0.00410412 0)
(0.293841 0.00307816 0)
(0.292778 0.00225835 0)
(0.291994 0.00160459 0)
(0.291438 0.00108161 0)
(0.291069 0.00065778 0)
(0.290857 0.000304114 0)
(0.290785 -6.8544e-06 0)
(0.29084 -0.000302229 0)
(0.291023 -0.000610094 0)
(0.291344 -0.000961152 0)
(0.291823 -0.00139083 0)
(0.292494 -0.00194213 0)
(0.293402 -0.00266955 0)
(0.294612 -0.00364472 0)
(0.296206 -0.00496453 0)
(0.298288 -0.00676278 0)
(0.300981 -0.0092268 0)
(0.304425 -0.0126199 0)
(0.308755 -0.0173086 0)
(0.31406 -0.0237877 0)
(0.320291 -0.0326808 0)
(0.327106 -0.0446635 0)
(0.333662 -0.0601985 0)
(0.338577 -0.0790128 0)
(0.608859 0.126139 0)
(0.646865 0.27341 0)
(0.676178 0.339228 0)
(0.686708 0.349243 0)
(0.67735 0.328454 0)
(0.653993 0.293772 0)
(0.622572 0.25515 0)
(0.587811 0.217736 0)
(0.55291 0.183818 0)
(0.519798 0.154133 0)
(0.489502 0.128656 0)
(0.462456 0.107031 0)
(0.438734 0.0887899 0)
(0.4182 0.0734583 0)
(0.400613 0.0606006 0)
(0.385682 0.049835 0)
(0.373102 0.0408342 0)
(0.36258 0.0333213 0)
(0.353839 0.0270629 0)
(0.346626 0.0218621 0)
(0.340715 0.0175532 0)
(0.335907 0.0139958 0)
(0.332026 0.0110711 0)
(0.32892 0.00867766 0)
(0.326457 0.00672905 0)
(0.324527 0.00515106 0)
(0.323035 0.00387973 0)
(0.3219 0.0028596 0)
(0.321059 0.00204221 0)
(0.320459 0.00138467 0)
(0.320058 0.000848438 0)
(0.319827 0.00039804 0)
(0.319745 -1.80638e-07 0)
(0.319802 -0.000379427 0)
(0.319997 -0.000774008 0)
(0.320339 -0.0012212 0)
(0.320848 -0.00176362 0)
(0.321556 -0.00245227 0)
(0.322507 -0.00335071 0)
(0.323759 -0.00454067 0)
(0.325385 -0.00612984 0)
(0.327473 -0.00826229 0)
(0.33012 -0.0111321 0)
(0.33342 -0.0149994 0)
(0.337446 -0.0202061 0)
(0.342196 -0.0271808 0)
(0.347519 -0.0364126 0)
(0.352998 -0.0483513 0)
(0.357833 -0.0631716 0)
(0.360905 -0.080387 0)
(0.568619 0.111104 0)
(0.601478 0.252305 0)
(0.632786 0.324691 0)
(0.650857 0.345677 0)
(0.652187 0.334932 0)
(0.639965 0.307395 0)
(0.618583 0.272901 0)
(0.592134 0.237214 0)
(0.563744 0.203363 0)
(0.535545 0.172718 0)
(0.508852 0.145716 0)
(0.484388 0.122313 0)
(0.462479 0.102236 0)
(0.443193 0.0851284 0)
(0.426442 0.0706184 0)
(0.412055 0.0583548 0)
(0.399813 0.0480208 0)
(0.389486 0.0393376 0)
(0.380843 0.0320628 0)
(0.373663 0.0259875 0)
(0.367745 0.0209321 0)
(0.362905 0.0167421 0)
(0.358978 0.0132848 0)
(0.355819 0.0104461 0)
(0.353304 0.00812726 0)
(0.351323 0.00624317 0)
(0.349784 0.00471988 0)
(0.348609 0.00349285 0)
(0.347734 0.0025054 0)
(0.347107 0.00170713 0)
(0.346686 0.00105257 0)
(0.346441 0.000499774 0)
(0.346352 8.87964e-06 0)
(0.346409 -0.000459393 0)
(0.346609 -0.000945484 0)
(0.346961 -0.00149302 0)
(0.347484 -0.00215135 0)
(0.348206 -0.00297868 0)
(0.349166 -0.00404621 0)
(0.350417 -0.00544354 0)
(0.352018 -0.00728551 0)
(0.354037 -0.00972097 0)
(0.356544 -0.0129428 0)
(0.359591 -0.017198 0)
(0.363194 -0.0227926 0)
(0.367284 -0.0300832 0)
(0.371647 -0.0394349 0)
(0.375846 -0.0511199 0)
(0.379163 -0.0651243 0)
(0.380717 -0.0808806 0)
(0.530278 0.0986962 0)
(0.558734 0.232415 0)
(0.59023 0.308082 0)
(0.613079 0.33733 0)
(0.622462 0.335324 0)
(0.619503 0.31483 0)
(0.607144 0.285078 0)
(0.588682 0.252029 0)
(0.566949 0.219195 0)
(0.544077 0.188444 0)
(0.52153 0.16063 0)
(0.50023 0.136013 0)
(0.480696 0.114536 0)
(0.463172 0.0959799 0)
(0.447715 0.0800605 0)
(0.434266 0.0664768 0)
(0.4227 0.0549384 0)
(0.412851 0.0451771 0)
(0.404542 0.0369514 0)
(0.397592 0.0300473 0)
(0.391827 0.0242768 0)
(0.387085 0.0194752 0)
(0.383218 0.0154991 0)
(0.380092 0.0122233 0)
(0.377592 0.00953889 0)
(0.375614 0.00735072 0)
(0.374071 0.00557565 0)
(0.372888 0.0041407 0)
(0.372003 0.00298134 0)
(0.371365 0.00203997 0)
(0.370936 0.00126442 0)
(0.370685 0.000606427 0)
(0.370592 2.01229e-05 0)
(0.370646 -0.000539644 0)
(0.370845 -0.00111915 0)
(0.371197 -0.00176793 0)
(0.371716 -0.00254137 0)
(0.372429 -0.00350382 0)
(0.373368 -0.00473253 0)
(0.374576 -0.00632246 0)
(0.376099 -0.00839216 0)
(0.377986 -0.0110904 0)
(0.380276 -0.0146026 0)
(0.382988 -0.0191555 0)
(0.38609 -0.0250143 0)
(0.389466 -0.0324648 0)
(0.392871 -0.0417659 0)
(0.395877 -0.0530565 0)
(0.397868 -0.0662066 0)
(0.398157 -0.0806393 0)
(0.493634 0.0882991 0)
(0.518439 0.21393 0)
(0.54915 0.290509 0)
(0.574848 0.325676 0)
(0.590143 0.330959 0)
(0.594686 0.317012 0)
(0.590175 0.292194 0)
(0.579087 0.262355 0)
(0.563832 0.231251 0)
(0.546405 0.201109 0)
(0.528296 0.173123 0)
(0.510535 0.147834 0)
(0.493783 0.125397 0)
(0.478419 0.105741 0)
(0.464625 0.0886834 0)
(0.452448 0.0739884 0)
(0.441847 0.0614045 0)
(0.432728 0.0506852 0)
(0.424967 0.041599 0)
(0.418426 0.0339338 0)
(0.412963 0.0274985 0)
(0.408443 0.0221226 0)
(0.404737 0.0176549 0)
(0.401727 0.0139619 0)
(0.399308 0.010926 0)
(0.397386 0.00844372 0)
(0.39588 0.00642369 0)
(0.394721 0.00478527 0)
(0.393851 0.00345673 0)
(0.393222 0.00237375 0)
(0.392797 0.00147786 0)
(0.392546 0.000714863 0)
(0.392452 3.32005e-05 0)
(0.392502 -0.000617763 0)
(0.392695 -0.00128967 0)
(0.393035 -0.00203735 0)
(0.393536 -0.00292137 0)
(0.394217 -0.004011 0)
(0.395106 -0.00538783 0)
(0.396234 -0.00714985 0)
(0.397634 -0.00941609 0)
(0.399334 -0.0123312 0)
(0.401351 -0.0160688 0)
(0.403669 -0.0208313 0)
(0.406225 -0.0268421 0)
(0.408872 -0.0343223 0)
(0.411352 -0.0434438 0)
(0.41327 -0.0542497 0)
(0.414107 -0.0665434 0)
(0.413329 -0.0797762 0)
(0.458545 0.0794419 0)
(0.480365 0.196847 0)
(0.509816 0.272663 0)
(0.53705 0.311807 0)
(0.556581 0.322953 0)
(0.567071 0.314842 0)
(0.569222 0.294851 0)
(0.564743 0.26851 0)
(0.555577 0.239632 0)
(0.543487 0.210661 0)
(0.529901 0.183051 0)
(0.515884 0.157585 0)
(0.502176 0.134609 0)
(0.489257 0.114204 0)
(0.477408 0.096292 0)
(0.466768 0.0807124 0)
(0.457375 0.0672626 0)
(0.4492 0.0557265 0)
(0.442173 0.0458899 0)
(0.4362 0.0375491 0)
(0.431175 0.0305153 0)
(0.42699 0.0246162 0)
(0.423539 0.0196963 0)
(0.420722 0.0156163 0)
(0.418447 0.012252 0)
(0.416632 0.00949294 0)
(0.415203 0.007241 0)
(0.4141 0.0054088 0)
(0.413269 0.00391825 0)
(0.412666 0.00269895 0)
(0.412257 0.00168669 0)
(0.412015 0.000821821 0)
(0.411922 4.7621e-05 0)
(0.411968 -0.000691518 0)
(0.412148 -0.001452 0)
(0.412467 -0.00229321 0)
(0.412934 -0.0032799 0)
(0.413564 -0.00448504 0)
(0.414377 -0.00599284 0)
(0.415393 -0.00790216 0)
(0.416634 -0.0103299 0)
(0.418108 -0.0134134 0)
(0.419809 -0.0173118 0)
(0.421699 -0.0222017 0)
(0.423689 -0.0282662 0)
(0.425616 -0.0356701 0)
(0.427225 -0.0445169 0)
(0.428163 -0.0547832 0)
(0.427995 -0.0662393 0)
(0.42631 -0.0783812 0)
(0.424912 0.071772 0)
(0.444302 0.181068 0)
(0.472306 0.254958 0)
(0.500202 0.296515 0)
(0.522687 0.312212 0)
(0.537807 0.309135 0)
(0.545501 0.293668 0)
(0.546815 0.270897 0)
(0.543219 0.244546 0)
(0.536204 0.217163 0)
(0.527068 0.190378 0)
(0.51685 0.165165 0)
(0.506324 0.14204 0)
(0.496032 0.121221 0)
(0.486329 0.102738 0)
(0.477427 0.0865088 0)
(0.469431 0.0723844 0)
(0.462374 0.0601863 0)
(0.456237 0.0497238 0)
(0.450969 0.040807 0)
(0.4465 0.033254 0)
(0.442751 0.0268946 0)
(0.439639 0.0215723 0)
(0.437085 0.0171444 0)
(0.435012 0.0134825 0)
(0.43335 0.0104708 0)
(0.432037 0.00800566 0)
(0.431019 0.00599427 0)
(0.43025 0.00435303 0)
(0.42969 0.00300628 0)
(0.429309 0.00188476 0)
(0.429083 0.000924025 0)
(0.428995 6.27625e-05 0)
(0.429034 -0.000758952 0)
(0.429198 -0.00160158 0)
(0.429486 -0.00252821 0)
(0.429906 -0.00360682 0)
(0.430468 -0.00491273 0)
(0.431184 -0.00653128 0)
(0.432064 -0.00856032 0)
(0.433116 -0.0111124 0)
(0.434335 -0.0143159 0)
(0.435695 -0.0183134 0)
(0.437139 -0.023256 0)
(0.438562 -0.0292903 0)
(0.439797 -0.0365338 0)
(0.440602 -0.0450375 0)
(0.440662 -0.0547342 0)
(0.439622 -0.0653825 0)
(0.437159 -0.0765284 0)
(0.392671 0.0650269 0)
(0.410077 0.166463 0)
(0.436606 0.237634 0)
(0.464592 0.280366 0)
(0.489066 0.299458 0)
(0.507727 0.3006 0)
(0.519958 0.289236 0)
(0.526254 0.269948 0)
(0.527649 0.246272 0)
(0.525341 0.220761 0)
(0.520465 0.195151 0)
(0.513988 0.170552 0)
(0.506677 0.147622 0)
(0.499102 0.126701 0)
(0.491667 0.107921 0)
(0.484639 0.0912736 0)
(0.478181 0.0766703 0)
(0.472377 0.0639725 0)
(0.467254 0.0530178 0)
(0.462803 0.0436345 0)
(0.458989 0.0356513 0)
(0.455761 0.0289038 0)
(0.453062 0.0232373 0)
(0.450832 0.0185084 0)
(0.449012 0.0145863 0)
(0.447546 0.0113519 0)
(0.446383 0.00869745 0)
(0.445477 0.00652583 0)
(0.44479 0.00474903 0)
(0.444289 0.00328702 0)
(0.443947 0.00206628 0)
(0.443744 0.0010183 0)
(0.443663 7.78968e-05 0)
(0.443696 -0.000818446 0)
(0.443839 -0.00173447 0)
(0.44409 -0.0027361 0)
(0.444453 -0.00389348 0)
(0.444932 -0.00528317 0)
(0.445533 -0.00699017 0)
(0.446258 -0.00910982 0)
(0.447101 -0.0117488 0)
(0.448046 -0.0150251 0)
(0.449051 -0.0190646 0)
(0.450047 -0.0239942 0)
(0.45092 -0.0299282 0)
(0.451503 -0.0369458 0)
(0.451572 -0.0450589 0)
(0.450853 -0.0541728 0)
(0.449054 -0.0640481 0)
(0.445926 -0.0742804 0)
(0.361777 0.0590116 0)
(0.377553 0.152898 0)
(0.40266 0.220818 0)
(0.430371 0.26376 0)
(0.456115 0.285256 0)
(0.477432 0.289839 0)
(0.493319 0.2821 0)
(0.503829 0.2661 0)
(0.509614 0.245124 0)
(0.511587 0.221658 0)
(0.510699 0.197477 0)
(0.507816 0.173785 0)
(0.503665 0.151345 0)
(0.498819 0.130603 0)
(0.493706 0.111778 0)
(0.488633 0.0949374 0)
(0.483804 0.0800484 0)
(0.479348 0.0670155 0)
(0.475332 0.0557071 0)
(0.471785 0.0459727 0)
(0.468703 0.0376552 0)
(0.466066 0.0305986 0)
(0.463841 0.0246525 0)
(0.461987 0.0196756 0)
(0.460464 0.0155363 0)
(0.459229 0.012114 0)
(0.458245 0.0092984 0)
(0.457476 0.00698931 0)
(0.45689 0.0050954 0)
(0.456462 0.00353323 0)
(0.456169 0.00222591 0)
(0.455994 0.00110166 0)
(0.455924 9.22239e-05 0)
(0.45595 -0.000868747 0)
(0.456069 -0.00184745 0)
(0.456276 -0.00291175 0)
(0.456573 -0.004133 0)
(0.456959 -0.00558784 0)
(0.457433 -0.00735982 0)
(0.457989 -0.00954054 0)
(0.458612 -0.0122299 0)
(0.459273 -0.0155345 0)
(0.459921 -0.0195644 0)
(0.460478 -0.0244242 0)
(0.460825 -0.0302006 0)
(0.460803 -0.0369421 0)
(0.460208 -0.0446328 0)
(0.458802 -0.0531625 0)
(0.456346 -0.0623013 0)
(0.452645 -0.0716916 0)
(0.3322 0.0535803 0)
(0.346626 0.140248 0)
(0.3704 0.204573 0)
(0.397606 0.246981 0)
(0.424085 0.270046 0)
(0.447345 0.277355 0)
(0.46613 0.272746 0)
(0.480152 0.259771 0)
(0.489738 0.24143 0)
(0.495536 0.220088 0)
(0.49831 0.197511 0)
(0.498808 0.17495 0)
(0.497696 0.153247 0)
(0.495525 0.132927 0)
(0.49273 0.114287 0)
(0.489638 0.0974626 0)
(0.486486 0.0824737 0)
(0.483434 0.0692677 0)
(0.480587 0.0577446 0)
(0.478004 0.0477774 0)
(0.475714 0.0392252 0)
(0.47372 0.0319428 0)
(0.472015 0.0257867 0)
(0.470579 0.0206189 0)
(0.469387 0.0163097 0)
(0.468415 0.0127383 0)
(0.467634 0.00979321 0)
(0.467021 0.00737253 0)
(0.466552 0.00538274 0)
(0.466208 0.00373801 0)
(0.465972 0.00235898 0)
(0.465831 0.00117145 0)
(0.465774 0.000104917 0)
(0.465794 -0.000908979 0)
(0.465886 -0.00193806 0)
(0.466045 -0.00305126 0)
(0.46627 -0.0043202 0)
(0.466555 -0.00582067 0)
(0.466894 -0.00763378 0)
(0.467273 -0.00984649 0)
(0.46767 -0.0125512 0)
(0.468046 -0.0158435 0)
(0.468344 -0.0198179 0)
(0.468479 -0.0245596 0)
(0.468335 -0.0301322 0)
(0.467759 -0.0365604 0)
(0.466569 -0.043809 0)
(0.464561 -0.0517605 0)
(0.461538 -0.0601992 0)
(0.457349 -0.0688101 0)
(0.30392 0.0486238 0)
(0.317215 0.128402 0)
(0.339755 0.188921 0)
(0.366315 0.230226 0)
(0.393133 0.254167 0)
(0.417765 0.263566 0)
(0.438802 0.261602 0)
(0.455705 0.251351 0)
(0.46853 0.235514 0)
(0.477692 0.216304 0)
(0.483772 0.195435 0)
(0.487394 0.174171 0)
(0.489148 0.153399 0)
(0.489546 0.133708 0)
(0.489012 0.115458 0)
(0.487883 0.0988405 0)
(0.486413 0.0839261 0)
(0.484789 0.0707023 0)
(0.483141 0.0591008 0)
(0.481559 0.0490187 0)
(0.480096 0.0403327 0)
(0.478782 0.0329101 0)
(0.477631 0.026616 0)
(0.476642 0.0213178 0)
(0.475808 0.0168888 0)
(0.475119 0.0132098 0)
(0.474561 0.0101696 0)
(0.474119 0.00766565 0)
(0.473779 0.00560342 0)
(0.473529 0.00389569 0)
(0.473357 0.00246159 0)
(0.473254 0.0012254 0)
(0.473212 0.000115171 0)
(0.473226 -0.000938621 0)
(0.47329 -0.0020046 0)
(0.473399 -0.00315194 0)
(0.473548 -0.00445169 0)
(0.473728 -0.00597795 0)
(0.473927 -0.0078086 0)
(0.474127 -0.0100254 0)
(0.474298 -0.0127129 0)
(0.474396 -0.0159561 0)
(0.474357 -0.0198353 0)
(0.474095 -0.0244186 0)
(0.473497 -0.0297509 0)
(0.472421 -0.0358389 0)
(0.470704 -0.0426345 0)
(0.468172 -0.050019 0)
(0.464663 -0.057793 0)
(0.46006 -0.0656792 0)
(0.276925 0.0440595 0)
(0.289259 0.117265 0)
(0.310662 0.173861 0)
(0.336489 0.213635 0)
(0.36335 0.237886 0)
(0.388896 0.248814 0)
(0.411641 0.249038 0)
(0.430863 0.241196 0)
(0.446405 0.227692 0)
(0.458477 0.210565 0)
(0.467493 0.19145 0)
(0.473953 0.171593 0)
(0.478361 0.151904 0)
(0.481179 0.133012 0)
(0.48281 0.115327 0)
(0.483585 0.0990877 0)
(0.483768 0.0844079 0)
(0.483562 0.0713123 0)
(0.483118 0.059763 0)
(0.482549 0.0496808 0)
(0.48193 0.0409607 0)
(0.481315 0.0334837 0)
(0.480736 0.0271246 0)
(0.480213 0.0217578 0)
(0.479755 0.017261 0)
(0.479365 0.0135178 0)
(0.479041 0.0104185 0)
(0.478781 0.00786131 0)
(0.478578 0.00575166 0)
(0.478428 0.00400196 0)
(0.478325 0.00253077 0)
(0.478264 0.0012617 0)
(0.478239 0.000122259 0)
(0.478247 -0.000957473 0)
(0.478282 -0.00204612 0)
(0.478339 -0.0032123 0)
(0.47841 -0.00452574 0)
(0.478484 -0.00605814 0)
(0.478544 -0.00788358 0)
(0.478567 -0.0100782 0)
(0.478518 -0.0127189 0)
(0.478348 -0.0158803 0)
(0.477992 -0.0196302 0)
(0.477362 -0.0240223 0)
(0.476351 -0.0290861 0)
(0.474829 -0.0348152 0)
(0.47265 -0.0411539 0)
(0.469667 -0.0479858 0)
(0.465747 -0.0551286 0)
(0.460797 -0.0623388 0)
(0.251204 0.0398247 0)
(0.26271 0.10676 0)
(0.283063 0.159386 0)
(0.308106 0.197309 0)
(0.334785 0.221409 0)
(0.360876 0.233385 0)
(0.384868 0.235375 0)
(0.405915 0.229627 0)
(0.423693 0.218259 0)
(0.438242 0.203127 0)
(0.449824 0.185765 0)
(0.458818 0.167381 0)
(0.465642 0.148884 0)
(0.470701 0.130928 0)
(0.474366 0.113955 0)
(0.476954 0.0982426 0)
(0.478728 0.0839414 0)
(0.479901 0.0711085 0)
(0.48064 0.0597339 0)
(0.481073 0.0497612 0)
(0.481297 0.0411037 0)
(0.481383 0.0336564 0)
(0.481382 0.0273049 0)
(0.481332 0.0219312 0)
(0.481256 0.017419 0)
(0.481172 0.0136556 0)
(0.481091 0.0105343 0)
(0.481018 0.00795485 0)
(0.480958 0.00582373 0)
(0.480912 0.00405398 0)
(0.48088 0.00256451 0)
(0.480862 0.00127912 0)
(0.480856 0.000125582 0)
(0.480858 -0.000965613 0)
(0.480865 -0.00206234 0)
(0.48087 -0.00323194 0)
(0.480864 -0.00454216 0)
(0.480832 -0.00606173 0)
(0.480756 -0.00786048 0)
(0.480608 -0.0100088 0)
(0.480348 -0.0125759 0)
(0.479927 -0.0156273 0)
(0.479277 -0.0192193 0)
(0.478313 -0.0233936 0)
(0.476932 -0.0281679 0)
(0.475017 -0.0335262 0)
(0.47244 -0.0394089 0)
(0.469074 -0.0457048 0)
(0.464809 -0.0522483 0)
(0.459574 -0.0588257 0)
(0.226751 0.0358717 0)
(0.237532 0.0968237 0)
(0.256909 0.145479 0)
(0.281135 0.181321 0)
(0.307458 0.204901 0)
(0.333794 0.217513 0)
(0.358642 0.220891 0)
(0.38108 0.216933 0)
(0.400658 0.207491 0)
(0.417273 0.194236 0)
(0.431056 0.178592 0)
(0.442275 0.161708 0)
(0.45126 0.144478 0)
(0.458359 0.12756 0)
(0.4639 0.11142 0)
(0.468181 0.0963623 0)
(0.471459 0.0825664 0)
(0.473948 0.0701177 0)
(0.475824 0.0590306 0)
(0.477229 0.0492701 0)
(0.478276 0.040767 0)
(0.47905 0.0334303 0)
(0.479621 0.0271565 0)
(0.480039 0.0218367 0)
(0.480344 0.0173608 0)
(0.480565 0.0136213 0)
(0.480726 0.010515 0)
(0.480842 0.00794433 0)
(0.480925 0.00581798 0)
(0.480984 0.00405046 0)
(0.481025 0.00256184 0)
(0.481051 0.001277 0)
(0.481063 0.000124717 0)
(0.48106 -0.000963342 0)
(0.48104 -0.0020536 0)
(0.480994 -0.00321149 0)
(0.480913 -0.00450219 0)
(0.48078 -0.00599098 0)
(0.480573 -0.00774318 0)
(0.480263 -0.00982337 0)
(0.479807 -0.0122936 0)
(0.479155 -0.0152106 0)
(0.478237 -0.0186214 0)
(0.476974 -0.0225572 0)
(0.475268 -0.0270267 0)
(0.473013 -0.0320076 0)
(0.470097 -0.0374392 0)
(0.46641 -0.0432168 0)
(0.461865 -0.0491912 0)
(0.456404 -0.0551748 0)
(0.203561 0.0321645 0)
(0.213696 0.0874053 0)
(0.232155 0.13213 0)
(0.255541 0.165726 0)
(0.281371 0.188494 0)
(0.307703 0.201395 0)
(0.333076 0.205823 0)
(0.356524 0.203369 0)
(0.377505 0.195641 0)
(0.395803 0.18413 0)
(0.411435 0.17014 0)
(0.424569 0.154754 0)
(0.435452 0.138833 0)
(0.44437 0.123029 0)
(0.451611 0.107817 0)
(0.457444 0.093519 0)
(0.462115 0.0803378 0)
(0.465834 0.0683805 0)
(0.468783 0.0576831 0)
(0.471112 0.0482292 0)
(0.472943 0.0399659 0)
(0.474379 0.0328159 0)
(0.4755 0.026687 0)
(0.476373 0.0214792 0)
(0.477048 0.0170897 0)
(0.477568 0.0134167 0)
(0.477965 0.0103616 0)
(0.478265 0.00783053 0)
(0.478489 0.00573489 0)
(0.478651 0.00399164 0)
(0.478763 0.00252288 0)
(0.478832 0.0012553 0)
(0.478863 0.000119454 0)
(0.478856 -0.000951134 0)
(0.478809 -0.00202079 0)
(0.478714 -0.00315247 0)
(0.478562 -0.00440828 0)
(0.478333 -0.00584972 0)
(0.478005 -0.00753741 0)
(0.477545 -0.0095302 0)
(0.47691 -0.0118834 0)
(0.476048 -0.0146459 0)
(0.474893 -0.0178564 0)
(0.473367 -0.0215382 0)
(0.471381 -0.0256929 0)
(0.468838 -0.0302942 0)
(0.465639 -0.0352823 0)
(0.461693 -0.0405601 0)
(0.456925 -0.0459938 0)
(0.451293 -0.0514189 0)
(0.181631 0.0286758 0)
(0.191178 0.0784666 0)
(0.208765 0.119326 0)
(0.23129 0.15057 0)
(0.256513 0.172296 0)
(0.282632 0.185197 0)
(0.308244 0.190379 0)
(0.332365 0.189166 0)
(0.354391 0.182943 0)
(0.374016 0.173031 0)
(0.391161 0.160614 0)
(0.405904 0.146699 0)
(0.418418 0.132103 0)
(0.428927 0.117462 0)
(0.437674 0.10325 0)
(0.444902 0.0897977 0)
(0.450836 0.077323 0)
(0.455683 0.0659502 0)
(0.459621 0.0557326 0)
(0.462807 0.0466703 0)
(0.465373 0.0387249 0)
(0.467429 0.0318321 0)
(0.46907 0.0259106 0)
(0.470372 0.0208696 0)
(0.471398 0.0166139 0)
(0.472202 0.0130482 0)
(0.472824 0.010079 0)
(0.4733 0.0076169 0)
(0.473658 0.00557698 0)
(0.473918 0.00387931 0)
(0.474098 0.00244878 0)
(0.474208 0.00121462 0)
(0.474256 0.000109828 0)
(0.474245 -0.000929581 0)
(0.474173 -0.00196527 0)
(0.474034 -0.00305719 0)
(0.473815 -0.00426399 0)
(0.473499 -0.00564312 0)
(0.47306 -0.00725042 0)
(0.472464 -0.00913917 0)
(0.471669 -0.0113583 0)
(0.470623 -0.01395 0)
(0.469261 -0.0169457 0)
(0.46751 -0.0203622 0)
(0.465288 -0.0241962 0)
(0.462507 -0.0284193 0)
(0.459081 -0.0329739 0)
(0.454932 -0.0377709 0)
(0.449998 -0.0426909 0)
(0.444247 -0.0475898 0)
(0.160958 0.0253857 0)
(0.16996 0.0699793 0)
(0.186705 0.107064 0)
(0.208346 0.135893 0)
(0.232863 0.156402 0)
(0.258591 0.169063 0)
(0.284192 0.17474 0)
(0.30869 0.174528 0)
(0.331436 0.16961 0)
(0.352057 0.16115 0)
(0.370396 0.150211 0)
(0.386452 0.13772 0)
(0.400328 0.124445 0)
(0.412192 0.110995 0)
(0.422244 0.0978331 0)
(0.430693 0.0852931 0)
(0.437748 0.0736 0)
(0.443602 0.0628903 0)
(0.448432 0.0532306 0)
(0.452396 0.0446346 0)
(0.455631 0.037077 0)
(0.458256 0.0305051 0)
(0.460374 0.024848 0)
(0.462072 0.0200241 0)
(0.463422 0.0159463 0)
(0.464488 0.0125257 0)
(0.465319 0.00967492 0)
(0.465958 0.00730945 0)
(0.466439 0.00534876 0)
(0.466791 0.00371675 0)
(0.467033 0.00234175 0)
(0.467181 0.00115619 0)
(0.467245 9.61306e-05 0)
(0.46723 -0.000899358 0)
(0.467136 -0.00188876 0)
(0.466955 -0.00292861 0)
(0.466677 -0.00407378 0)
(0.466281 -0.00537747 0)
(0.465744 -0.00689072 0)
(0.465029 -0.00866146 0)
(0.464096 -0.0107328 0)
(0.462891 -0.0131408 0)
(0.461355 -0.0159111 0)
(0.459417 -0.0190551 0)
(0.457003 -0.0225662 0)
(0.454034 -0.0264153 0)
(0.450433 -0.030548 0)
(0.446135 -0.0348833 0)
(0.441088 -0.0393153 0)
(0.435269 -0.0437181 0)
(0.14154 0.0222801 0)
(0.150026 0.0619248 0)
(0.165944 0.0953422 0)
(0.186677 0.12173 0)
(0.210398 0.140891 0)
(0.235576 0.153116 0)
(0.260948 0.159067 0)
(0.285556 0.159639 0)
(0.308727 0.155839 0)
(0.330038 0.148682 0)
(0.349269 0.139118 0)
(0.36635 0.127993 0)
(0.381325 0.116016 0)
(0.394306 0.103766 0)
(0.405451 0.0916871 0)
(0.414941 0.0801078 0)
(0.42296 0.0692553 0)
(0.42969 0.0592729 0)
(0.435301 0.0502369 0)
(0.43995 0.0421716 0)
(0.443777 0.0350626 0)
(0.446908 0.0288677 0)
(0.449452 0.0235259 0)
(0.451503 0.0189644 0)
(0.453144 0.0151039 0)
(0.454445 0.0118629 0)
(0.455463 0.00916011 0)
(0.456248 0.00691652 0)
(0.45684 0.00505657 0)
(0.457272 0.00350858 0)
(0.45757 0.00220493 0)
(0.457751 0.00108182 0)
(0.457829 7.89089e-05 0)
(0.457811 -0.000861182 0)
(0.457696 -0.00179333 0)
(0.457479 -0.00277028 0)
(0.457148 -0.0038429 0)
(0.456684 -0.00505998 0)