/*--------------------------------*- C++ -*----------------------------------*\
| =========                 |                                                 |
| \\      /  F ield         | OpenFOAM: The Open Source CFD Toolbox           |
|  \\    /   O peration     | Version:  v2106                                 |
|   \\  /    A nd           | Website:  www.openfoam.com                      |
|    \\/     M anipulation  |                                                 |
\*---------------------------------------------------------------------------*/
FoamFile
{
    version     2.0;
    format      ascii;
    arch        "LSB;label=32;scalar=64";
    class       volScalarField;
    location    "0";
    object      Tlift2;
}
// * * * * * * * * * * * * * * * * * * * * * * * * * * * * * * * * * * * * * //

dimensions      [0 0 0 1 0 0 0];

internalField   nonuniform List<scalar> 
22000
(
0.000161913
0.00048558
0.000808767
0.00113114
0.00145235
0.00177205
0.00208985
0.00240539
0.00271828
0.00302813
0.00333455
0.00363714
0.00393552
0.00422931
0.00451811
0.00480158
0.00507933
0.00535103
0.00561633
0.00587492
0.00612649
0.00637074
0.00660741
0.00683622
0.00705694
0.00726935
0.00747323
0.00766841
0.0078547
0.00803197
0.00820006
0.00835886
0.00850828
0.00864822
0.00877861
0.00889939
0.00901053
0.009112
0.00920378
0.00928588
0.00935829
0.00942105
0.00947418
0.00951773
0.00955175
0.0095763
0.00959144
0.00959726
0.00959383
0.00958124
0.00955958
0.00952896
0.00948948
0.00944124
0.00938437
0.00931896
0.00924514
0.00916304
0.00907277
0.00897447
0.00886826
0.00875428
0.00863265
0.00850352
0.00836701
0.00822326
0.00807242
0.00791463
0.00775001
0.00757872
0.00740091
0.00721671
0.00702627
0.00682974
0.00662727
0.00641901
0.00620511
0.00598573
0.00576104
0.00553118
0.00529632
0.00505664
0.00481231
0.00456349
0.00431038
0.00405316
0.00379202
0.00352717
0.00325882
0.00298717
0.00271247
0.00243494
0.00215484
0.00187241
0.00158794
0.0013017
0.00101399
0.000725119
0.00043541
0.000145194
0.000162071
0.000486058
0.000809572
0.00113228
0.00145384
0.00177389
0.00209205
0.00240796
0.00272122
0.00303144
0.00333823
0.00364119
0.00393994
0.00423408
0.00452325
0.00480705
0.00508514
0.00535716
0.00562278
0.00588167
0.00613352
0.00637804
0.00661496
0.00684401
0.00706496
0.00727757
0.00748165
0.007677
0.00786345
0.00804086
0.00820908
0.008368
0.00851751
0.00865753
0.00878799
0.00890883
0.00902002
0.00912152
0.00921332
0.00929542
0.00936783
0.00943057
0.00948368
0.0095272
0.00956118
0.00958568
0.00960076
0.00960652
0.00960302
0.00959035
0.00956862
0.00953791
0.00949834
0.00945
0.00939302
0.00932751
0.00925359
0.00917138
0.009081
0.00898258
0.00887625
0.00876214
0.00864039
0.00851113
0.00837449
0.00823061
0.00807963
0.0079217
0.00775694
0.00758551
0.00740755
0.0072232
0.00703261
0.00683593
0.0066333
0.00642488
0.00621082
0.00599128
0.00576641
0.00553638
0.00530134
0.00506148
0.00481695
0.00456794
0.00431462
0.00405719
0.00379584
0.00353077
0.00326218
0.0029903
0.00271535
0.00243756
0.00215719
0.00187448
0.00158971
0.00130317
0.00101515
0.000725958
0.000435918
0.000145363
0.000162382
0.000486993
0.000811142
0.0011345
0.00145672
0.00177744
0.00209629
0.00241289
0.00272684
0.00303777
0.00334526
0.00364892
0.00394836
0.00424319
0.00453303
0.00481749
0.00509622
0.00536887
0.00563509
0.00589456
0.00614696
0.00639201
0.00662943
0.00685896
0.00708035
0.00729338
0.00749785
0.00769356
0.00788035
0.00805806
0.00822655
0.00838572
0.00853545
0.00867567
0.00880629
0.00892728
0.00903858
0.00914017
0.00923204
0.00931419
0.00938664
0.00944939
0.00950249
0.00954599
0.00957992
0.00960437
0.00961938
0.00962505
0.00962145
0.00960867
0.00958681
0.00955597
0.00951625
0.00946777
0.00941063
0.00934494
0.00927084
0.00918843
0.00909786
0.00899923
0.00889269
0.00877836
0.00865638
0.00852688
0.00838999
0.00824586
0.00809463
0.00793643
0.0077714
0.00759969
0.00742143
0.00723679
0.00704589
0.00684889
0.00664594
0.00643719
0.00622279
0.0060029
0.00577767
0.00554726
0.00531185
0.00507158
0.00482665
0.00457722
0.00432347
0.00406559
0.00380378
0.00353823
0.00326915
0.00299675
0.00272127
0.00244293
0.00216199
0.0018787
0.00159333
0.00130616
0.0010175
0.000727651
0.00043694
0.000145705
0.000162837
0.000488361
0.000813433
0.00113773
0.0014609
0.00178259
0.00210242
0.00242001
0.00273497
0.00304689
0.00335539
0.00366005
0.00396049
0.0042563
0.0045471
0.00483251
0.00511217
0.00538571
0.00565281
0.00591312
0.00616634
0.00641217
0.00665033
0.00688057
0.00710263
0.00731629
0.00752135
0.00771761
0.00790491
0.0080831
0.00825203
0.00841159
0.00856169
0.00870223
0.00883314
0.00895438
0.0090659
0.00916768
0.00925971
0.00934198
0.00941452
0.00947734
0.00953048
0.00957399
0.00960792
0.00963233
0.00964729
0.00965288
0.00964918
0.00963629
0.0096143
0.00958331
0.00954343
0.00949476
0.00943741
0.00937151
0.00929718
0.00921453
0.00912369
0.00902479
0.00891796
0.00880333
0.00868103
0.0085512
0.00841397
0.00826948
0.00811787
0.00795928
0.00779385
0.00762172
0.00744303
0.00725794
0.00706657
0.0068691
0.00666565
0.00645638
0.00624145
0.00602101
0.00579521
0.00556422
0.0053282
0.00508731
0.00484173
0.00459163
0.00433719
0.0040786
0.00381605
0.00354974
0.00327988
0.00300668
0.00273036
0.00245117
0.00216934
0.00188514
0.00159884
0.00131071
0.00102107
0.000730218
0.000438489
0.000146223
0.000163427
0.000490135
0.000816402
0.00114191
0.0014663
0.00178923
0.00211032
0.00242918
0.00274541
0.00305862
0.00336839
0.00367433
0.00397603
0.0042731
0.00456514
0.00485176
0.00513261
0.00540732
0.00567555
0.00593696
0.00619124
0.00643809
0.00667723
0.0069084
0.00713135
0.00734586
0.00755171
0.00774873
0.00793674
0.00811558
0.00828512
0.00844525
0.00859586
0.00873687
0.00886822
0.00898984
0.00910171
0.00920379
0.00929608
0.00937858
0.0094513
0.00951428
0.00956754
0.00961113
0.00964511
0.00966954
0.00968449
0.00969005
0.00968629
0.00967331
0.0096512
0.00962007
0.00958002
0.00953117
0.00947361
0.00940748
0.00933289
0.00924996
0.00915883
0.0090596
0.00895243
0.00883743
0.00871474
0.00858449
0.00844682
0.00830188
0.00814978
0.00799069
0.00782473
0.00765204
0.00747278
0.00728708
0.00709509
0.00689696
0.00669283
0.00648286
0.0062672
0.00604599
0.00581941
0.0055876
0.00535073
0.00510897
0.00486248
0.00461145
0.00435605
0.00409646
0.00383289
0.00356552
0.00329456
0.00302024
0.00274277
0.00246239
0.00217934
0.00189389
0.00160631
0.00131687
0.0010259
0.000733687
0.000440579
0.000146922
0.000164187
0.000492418
0.000820221
0.00114728
0.00147324
0.00179776
0.00212044
0.00244091
0.00275876
0.00307359
0.00338499
0.00369255
0.00399586
0.00429452
0.00458813
0.00487632
0.00515869
0.00543489
0.00570457
0.0059674
0.00622305
0.00647123
0.00671165
0.00694405
0.00716818
0.00738381
0.00759073
0.00778876
0.00797772
0.00815747
0.00832785
0.00848877
0.00864011
0.0087818
0.00891377
0.00903596
0.00914835
0.0092509
0.00934361
0.00942648
0.00949953
0.00956278
0.00961627
0.00966005
0.00969418
0.00971872
0.00973374
0.00973933
0.00973556
0.00972255
0.00970037
0.00966913
0.00962894
0.00957991
0.00952214
0.00945577
0.0093809
0.00929767
0.00920619
0.00910659
0.008999
0.00888356
0.00876039
0.00862963
0.00849142
0.00834589
0.00819318
0.00803343
0.00786678
0.00769337
0.00751334
0.00732684
0.00713401
0.006935
0.00672995
0.00651902
0.00630235
0.00608011
0.00585244
0.00561951
0.00538148
0.00513851
0.00489078
0.00463845
0.00438172
0.00412076
0.00385576
0.00358693
0.00331448
0.00303861
0.00275955
0.00247755
0.00219284
0.00190569
0.00161637
0.00132516
0.00103238
0.000738343
0.000443384
0.000147858
0.000165138
0.000495278
0.000824999
0.00115399
0.00148191
0.00180839
0.00213305
0.00245552
0.00277537
0.00309221
0.00340561
0.00371517
0.00402047
0.00432111
0.00461668
0.00490679
0.00519107
0.00546914
0.00574064
0.00600525
0.00626264
0.0065125
0.00675455
0.00698853
0.00721417
0.00743126
0.00763958
0.00783894
0.00802917
0.00821011
0.00838163
0.00854362
0.00869597
0.00883861
0.00897145
0.00909446
0.0092076
0.00931085
0.00940419
0.00948763
0.0095612
0.00962491
0.00967881
0.00972295
0.00975738
0.00978216
0.00979739
0.00980312
0.00979946
0.0097865
0.00976433
0.00973305
0.00969278
0.00964361
0.00958567
0.00951908
0.00944394
0.00936038
0.00926854
0.00916852
0.00906047
0.00894452
0.00882079
0.00868942
0.00855054
0.00840429
0.00825081
0.00809024
0.00792271
0.00774836
0.00756735
0.0073798
0.00718587
0.0069857
0.00677944
0.00656723
0.00634924
0.0061256
0.00589648
0.00566205
0.00542245
0.00517785
0.00492844
0.00467437
0.00441584
0.00415303
0.00388613
0.00361533
0.00334086
0.00306292
0.00278175
0.00249757
0.00221065
0.00192123
0.00162961
0.00133606
0.0010409
0.000744455
0.000447062
0.000149087
0.000166231
0.000498559
0.000830479
0.00116168
0.00149182
0.00182055
0.00214747
0.0024722
0.00279433
0.00311344
0.00342913
0.00374096
0.00404853
0.00435141
0.00464921
0.00494153
0.00522798
0.00550819
0.0057818
0.00604847
0.00630787
0.00655969
0.00680365
0.00703947
0.00726691
0.00748572
0.00769571
0.00789666
0.00808842
0.00827083
0.00844375
0.00860706
0.00876067
0.00890449
0.00903846
0.00916252
0.00927665
0.00938081
0.009475
0.00955923
0.00963352
0.00969789
0.00975239
0.00979706
0.00983196
0.00985716
0.00987273
0.00987876
0.00987534
0.00986256
0.00984051
0.0098093
0.00976903
0.00971982
0.00966177
0.00959501
0.00951964
0.0094358
0.0093436
0.00924317
0.00913464
0.00901814
0.00889381
0.00876176
0.00862214
0.00847508
0.00832072
0.00815919
0.00799064
0.0078152
0.00763301
0.00744422
0.00724897
0.00704741
0.00683968
0.00662593
0.00640631
0.00618099
0.0059501
0.00571382
0.0054723
0.00522571
0.00497423
0.00471803
0.0044573
0.00419221
0.00392296
0.00364976
0.00337282
0.00309235
0.00280859
0.00252177
0.00223214
0.00193998
0.00164557
0.00134918
0.00105115
0.000751804
0.000451483
0.000150562
0.000167457
0.00050224
0.000836624
0.0011703
0.00150293
0.00183416
0.00216359
0.00249085
0.0028155
0.00313715
0.00345537
0.00376973
0.00407982
0.00438521
0.0046855
0.00498028
0.00526917
0.00555179
0.00582776
0.00609676
0.00635844
0.00661249
0.00685863
0.00709657
0.00732607
0.00754688
0.0077588
0.00796163
0.00815519
0.00833933
0.00851392
0.00867882
0.00883395
0.00897922
0.00911457
0.00923994
0.00935529
0.00946062
0.0095559
0.00964115
0.00971639
0.00978164
0.00983694
0.00988235
0.00991792
0.00994373
0.00995983
0.00996633
0.00996331
0.00995085
0.00992907
0.00989806
0.00985791
0.00980876
0.00975069
0.00968383
0.0096083
0.00952421
0.0094317
0.00933087
0.00922187
0.00910481
0.00897983
0.00884706
0.00870663
0.00855867
0.00840332
0.00824072
0.008071
0.0078943
0.00771076
0.00752052
0.00732374
0.00712054
0.00691108
0.00669551
0.00647398
0.00624664
0.00601365
0.00577517
0.00553137
0.00528241
0.00502846
0.00476971
0.00450634
0.00423854
0.0039665
0.00369043
0.00341055
0.00312707
0.00284023
0.00255027
0.00225745
0.00196204
0.00166432
0.0013646
0.00106319
0.000760426
0.000456667
0.000152292
0.000168811
0.000506303
0.000843402
0.00117981
0.00151517
0.00184914
0.00218134
0.00251136
0.00283879
0.00316321
0.0034842
0.00380133
0.00411418
0.00442233
0.00472535
0.00502285
0.00531443
0.0055997
0.0058783
0.00614988
0.0064141
0.00667065
0.00691923
0.00715957
0.0073914
0.00761449
0.00782862
0.00803359
0.00822923
0.00841539
0.00859191
0.00875869
0.00891562
0.00906261
0.0091996
0.00932655
0.0094434
0.00955015
0.00964679
0.00973331
0.00980974
0.00987611
0.00993246
0.00997883
0.0100153
0.0100419
0.0100588
0.0100659
0.0100635
0.0100515
0.0100302
0.00999949
0.00995961
0.00991063
0.00985265
0.0097858
0.00971018
0.00962592
0.00953313
0.00943194
0.00932247
0.00920485
0.00907921
0.00894567
0.00880436
0.00865542
0.00849899
0.00833519
0.00816416
0.00798603
0.00780096
0.00760908
0.00741053
0.00720545
0.006994
0.00677632
0.00655256
0.00632289
0.00608745
0.00584642
0.00559995
0.00534822
0.0050914
0.00482967
0.00456322
0.00429225
0.00401695
0.00373754
0.00345422
0.00316724
0.00287682
0.00258321
0.00228668
0.0019875
0.00168596
0.00138237
0.00107706
0.000770357
0.000462635
0.000154283
0.000170287
0.000510733
0.000850792
0.00119016
0.0015285
0.00186546
0.00220064
0.00253366
0.00286409
0.00319152
0.00351552
0.00383565
0.0041515
0.00446263
0.00476862
0.00506907
0.00536358
0.00565176
0.00593323
0.00620765
0.00647467
0.00673398
0.00698527
0.00722826
0.0074627
0.00768834
0.00790496
0.00811236
0.00831036
0.00849881
0.00867756
0.00884649
0.0090055
0.00915451
0.00929343
0.00942223
0.00954087
0.00964932
0.00974758
0.00983564
0.00991354
0.00998129
0.0100389
0.0100865
0.0101241
0.0101518
0.0101696
0.0101776
0.0101759
0.0101647
0.0101439
0.0101138
0.0100743
0.0100256
0.00996788
0.00990114
0.00982553
0.00974117
0.00964817
0.00954665
0.00943675
0.00931857
0.00919224
0.0090579
0.00891567
0.00876567
0.00860805
0.00844293
0.00827045
0.00809075
0.00790396
0.00771022
0.00750967
0.00730247
0.00708875
0.00686867
0.00664238
0.00641004
0.0061718
0.00592784
0.00567831
0.0054234
0.00516327
0.00489813
0.00462815
0.00435354
0.0040745
0.00379125
0.003504
0.003213
0.00291848
0.0026207
0.00231993
0.00201645
0.00171055
0.00140256
0.0010928
0.000781627
0.000469408
0.000156542
0.000171883
0.000515522
0.000858777
0.00120135
0.00154289
0.00188306
0.00222146
0.0025577
0.00289136
0.00322202
0.00354924
0.00387261
0.00419167
0.00450602
0.00481521
0.00511885
0.00541652
0.00570784
0.00599243
0.00626994
0.00654001
0.00680233
0.00705659
0.00730251
0.00753983
0.00776829
0.00798768
0.00819779
0.00839844
0.00858947
0.00877074
0.00894212
0.00910351
0.00925481
0.00939597
0.00952692
0.00964763
0.00975807
0.00985824
0.00994813
0.0100278
0.0100972
0.0101564
0.0102054
0.0102444
0.0102734
0.0102924
0.0103015
0.0103008
0.0102905
0.0102705
0.010241
0.0102022
0.010154
0.0100966
0.0100301
0.00995457
0.00987019
0.00977705
0.00967527
0.00956495
0.00944623
0.00931922
0.00918404
0.00904083
0.00888971
0.00873081
0.00856426
0.00839019
0.00820874
0.00802004
0.00782424
0.00762147
0.00741188
0.00719563
0.00697285
0.0067437
0.00650835
0.00626695
0.00601967
0.00576669
0.00550817
0.00524431
0.0049753
0.00470132
0.00442259
0.00413932
0.00385172
0.00356002
0.00326448
0.00296533
0.00266284
0.00235729
0.00204896
0.00173816
0.00142522
0.00111047
0.000794268
0.000477001
0.000159075
0.000173596
0.000520663
0.000867346
0.00121335
0.00155833
0.00190193
0.00224377
0.00258345
0.00292056
0.00325466
0.00358534
0.00391214
0.00423465
0.00455243
0.00486505
0.0051721
0.00547317
0.00576787
0.00605582
0.00633666
0.00661003
0.00687562
0.00713312
0.00738223
0.00762269
0.00785425
0.00807669
0.00828979
0.00849338
0.00868729
0.00887137
0.0090455
0.00920956
0.00936347
0.00950716
0.00964056
0.00976365
0.00987638
0.00997875
0.0100708
0.0101524
0.0102238
0.0102848
0.0103356
0.0103763
0.0104068
0.0104272
0.0104377
0.0104382
0.010429
0.0104101
0.0103815
0.0103434
0.0102958
0.0102389
0.0101728
0.0100975
0.0100132
0.00992001
0.00981801
0.00970732
0.00958807
0.00946037
0.00932434
0.00918011
0.00902779
0.00886752
0.00869942
0.00852362
0.00834026
0.00814947
0.00795139
0.00774617
0.00753394
0.00731486
0.00708908
0.00685675
0.00661804
0.00637311
0.00612213
0.00586528
0.00560274
0.0053347
0.00506135
0.0047829
0.00449956
0.00421154
0.00391908
0.00362242
0.00332179
0.00301747
0.00270972
0.00239884
0.00208511
0.00176885
0.00145039
0.00113009
0.000808303
0.000485431
0.000161886
0.000175427
0.000526154
0.000876497
0.00122616
0.0015748
0.00192206
0.00226756
0.00261091
0.00295167
0.00328944
0.00362377
0.00395424
0.00428041
0.00460184
0.00491811
0.0052288
0.00553349
0.00583181
0.00612335
0.00640776
0.00668469
0.0069538
0.00721478
0.00746735
0.00771123
0.00794617
0.00817194
0.00838832
0.00859514
0.00879222
0.00897942
0.00915659
0.00932364
0.00948046
0.00962699
0.00976315
0.00988892
0.0100043
0.0101091
0.0102036
0.0102876
0.0103612
0.0104243
0.0104772
0.0105197
0.0105521
0.0105742
0.0105863
0.0105883
0.0105804
0.0105627
0.0105352
0.010498
0.0104513
0.010395
0.0103294
0.0102545
0.0101704
0.0100772
0.00997508
0.00986407
0.00974432
0.00961593
0.00947903
0.00933372
0.00918014
0.00901841
0.00884864
0.00867098
0.00848554
0.00829248
0.00809191
0.007884
0.00766887
0.00744668
0.00721759
0.00698175
0.00673932
0.00649049
0.00623541
0.00597427
0.00570727
0.00543459
0.00515644
0.00487303
0.00458457
0.00429131
0.00399346
0.00369129
0.00338504
0.003075
0.00276143
0.00244465
0.00212495
0.00180266
0.00147812
0.00115169
0.000823758
0.000494712
0.000164981
0.000177375
0.000531996
0.000886231
0.00123978
0.00159231
0.00194345
0.00229284
0.00264006
0.0029847
0.00332635
0.00366456
0.00399891
0.00432895
0.00465425
0.00497438
0.00528893
0.00559748
0.00589964
0.00619502
0.00648324
0.00676397
0.00703685
0.00730159
0.00755788
0.00780545
0.00804404
0.00827342
0.00849338
0.00870372
0.00890427
0.00909488
0.00927541
0.00944574
0.00960579
0.00975547
0.00989471
0.0100235
0.0101417
0.0102494
0.0103466
0.0104332
0.0105094
0.010575
0.0106302
0.0106749
0.0107093
0.0107335
0.0107474
0.0107511
0.0107448
0.0107285
0.0107023
0.0106663
0.0106205
0.0105651
0.0105002
0.0104257
0.0103419
0.0102489
0.0101467
0.0100354
0.00991516
0.00978608
0.00964829
0.00950187
0.00934696
0.00918367
0.00901213
0.00883246
0.00864479
0.00844925
0.00824599
0.00803514
0.00781685
0.00759127
0.00735855
0.00711886
0.00687236
0.00661924
0.00635966
0.00609382
0.00582191
0.00554413
0.0052607
0.00497184
0.00467776
0.00437872
0.00407496
0.00376673
0.00345431
0.00313798
0.00281804
0.00249478
0.00216854
0.00183964
0.00150844
0.00117532
0.000840652
0.000504855
0.000168363
0.000179442
0.000538195
0.000896558
0.00125423
0.00161087
0.00196613
0.00231961
0.00267094
0.00301968
0.00336542
0.00370773
0.00404616
0.00438029
0.00470969
0.00503391
0.00535254
0.00566518
0.00597141
0.00627085
0.00656313
0.0068479
0.00712482
0.00739356
0.00765384
0.00790537
0.00814789
0.00838117
0.00860499
0.00881914
0.00902346
0.00921779
0.00940198
0.00957592
0.00973951
0.00989265
0.0100353
0.0101674
0.0102888
0.0103997
0.0104999
0.0105895
0.0106685
0.0107368
0.0107946
0.0108419
0.0108787
0.0109051
0.0109211
0.0109268
0.0109223
0.0109077
0.010883
0.0108484
0.0108038
0.0107494
0.0106852
0.0106114
0.010528
0.0104351
0.0103329
0.0102214
0.0101007
0.009971
0.00983229
0.00968473
0.00952842
0.00936349
0.00919005
0.00900824
0.00881816
0.00861997
0.00841379
0.00819976
0.00797804
0.00774877
0.00751211
0.00726823
0.0070173
0.0067595
0.00649502
0.00622405
0.00594678
0.00566344
0.00537425
0.00507943
0.00477922
0.00447387
0.00416365
0.00384882
0.00352967
0.00320649
0.00287959
0.00254929
0.00221592
0.00187983
0.00154139
0.00120098
0.000859002
0.000515872
0.000172036
0.000181631
0.000544759
0.00090749
0.00126952
0.00163051
0.00199011
0.00234793
0.00270358
0.00305664
0.0034067
0.00375332
0.00409607
0.00443451
0.00476821
0.00509675
0.00541969
0.00573664
0.00604718
0.00635092
0.00664751
0.00693657
0.00721777
0.00749078
0.00775531
0.00801107
0.0082578
0.00849526
0.00872322
0.00894149
0.00914988
0.00934823
0.00953639
0.00971425
0.00988169
0.0100386
0.010185
0.0103207
0.0104457
0.01056
0.0106636
0.0107565
0.0108386
0.01091
0.0109707
0.0110208
0.0110602
0.0110891
0.0111075
0.0111155
0.0111131
0.0111004
0.0110774
0.0110443
0.0110011
0.0109478
0.0108846
0.0108115
0.0107287
0.0106362
0.010534
0.0104223
0.0103012
0.0101708
0.0100312
0.00988243
0.00972467
0.009558
0.00938256
0.00919845
0.00900581
0.00880476
0.00859545
0.008378
0.00815258
0.00791932
0.00767841
0.00743
0.00717427
0.0069114
0.0066416
0.00636506
0.00608199
0.00579262
0.00549717
0.00519589
0.00488903
0.00457685
0.00425962
0.00393764
0.00361119
0.00328058
0.00294615
0.00260821
0.00226713
0.00192326
0.00157699
0.00122871
0.000878824
0.000527771
0.000176004
0.000183945
0.0005517
0.000919048
0.00128568
0.00165127
0.00201545
0.00237784
0.00273805
0.00309566
0.00345026
0.00380142
0.0041487
0.00449168
0.00482992
0.00516299
0.00549048
0.00581196
0.00612705
0.00643534
0.00673646
0.00703006
0.0073158
0.00759334
0.00786239
0.00812266
0.00837387
0.0086158
0.0088482
0.00907087
0.00928363
0.0094863
0.00967875
0.00986083
0.0100324
0.0101935
0.0103439
0.0104835
0.0106124
0.0107305
0.0108378
0.0109342
0.0110198
0.0110946
0.0111585
0.0112117
0.0112541
0.0112858
0.0113068
0.0113173
0.0113172
0.0113066
0.0112856
0.0112542
0.0112125
0.0111606
0.0110986
0.0110264
0.0109442
0.010852
0.01075
0.0106382
0.0105168
0.0103857
0.0102451
0.0100951
0.00993582
0.00976734
0.00958977
0.00940323
0.00920785
0.00900375
0.00879108
0.00856997
0.00834057
0.00810304
0.00785754
0.00760425
0.00734335
0.00707503
0.00679949
0.00651695
0.00622762
0.00593174
0.00562955
0.0053213
0.00500726
0.0046877
0.00436292
0.00403322
0.0036989
0.0033603
0.00301774
0.00267159
0.00232221
0.00196997
0.00161526
0.00125851
0.000900128
0.00054056
0.000180267
0.000186391
0.000559032
0.000931257
0.00130276
0.00167319
0.00204219
0.0024094
0.00277441
0.00313681
0.00349619
0.00385212
0.00420417
0.00455191
0.00489492
0.00523276
0.00556502
0.00589128
0.00621115
0.00652423
0.00683014
0.00712854
0.00741906
0.0077014
0.00797523
0.00824027
0.00849625
0.00874292
0.00898005
0.00920742
0.00942485
0.00963216
0.00982919
0.0100158
0.0101919
0.0103574
0.0105121
0.010656
0.0107891
0.0109113
0.0110226
0.0111229
0.0112123
0.0112907
0.0113582
0.0114147
0.0114604
0.0114951
0.0115191
0.0115323
0.0115347
0.0115265
0.0115077
0.0114783
0.0114384
0.011388
0.0113271
0.011256
0.0111745
0.0110829
0.0109811
0.0108693
0.0107474
0.0106157
0.0104741
0.0103229
0.010162
0.00999159
0.00981178
0.00962267
0.00942438
0.00921704
0.00900078
0.00877575
0.00854211
0.0083
0.00804959
0.00779107
0.00752463
0.00725046
0.00696877
0.00667978
0.00638373
0.00608086
0.00577143
0.0054557
0.00513396
0.00480649
0.0044736
0.00413561
0.00379286
0.00344567
0.00309441
0.00273945
0.00238117
0.00201996
0.00165623
0.00129041
0.000922926
0.000554244
0.000184829
0.000188974
0.000566776
0.000944149
0.00132078
0.00169632
0.00207042
0.00244269
0.00281275
0.00318019
0.00354459
0.00390554
0.0042626
0.00461535
0.00496336
0.00530621
0.00564348
0.00597476
0.00629965
0.00661776
0.00692872
0.00723216
0.00752774
0.00781512
0.00809401
0.0083641
0.00862513
0.00887683
0.00911897
0.00935134
0.00957373
0.00978597
0.0099879
0.0101794
0.0103603
0.0105305
0.0106899
0.0108384
0.010976
0.0111026
0.0112182
0.0113227
0.0114162
0.0114985
0.0115698
0.01163
0.0116792
0.0117174
0.0117445
0.0117607
0.0117659
0.0117603
0.0117439
0.0117166
0.0116786
0.0116299
0.0115705
0.0115005
0.0114199
0.0113289
0.0112274
0.0111155
0.0109933
0.0108609
0.0107184
0.0105658
0.0104033
0.0102309
0.0100487
0.00985684
0.00965547
0.00944469
0.00922463
0.00899543
0.00875726
0.00851027
0.00825463
0.00799053
0.00771816
0.00743774
0.00714948
0.00685361
0.00655038
0.00624004
0.00592287
0.00559914
0.00526916
0.00493324
0.00459169
0.00424485
0.00389308
0.00353673
0.00317618
0.00281181
0.00244403
0.00207325
0.00169989
0.0013244
0.000947225
0.000568828
0.000189691
0.000191701
0.000574953
0.00095776
0.0013398
0.00172073
0.00210019
0.00247781
0.00285318
0.00322592
0.0035956
0.00396181
0.00432414
0.00468214
0.00503541
0.00538351
0.00572604
0.00606259
0.00639276
0.00671615
0.0070324
0.00734114
0.00764203
0.00793474
0.00821895
0.00849436
0.00876071
0.00901773
0.00926517
0.00950283
0.00973049
0.00994796
0.0101551
0.0103517
0.0105377
0.010713
0.0108773
0.0110308
0.0111732
0.0113045
0.0114247
0.0115338
0.0116316
0.0117183
0.0117937
0.0118578
0.0119108
0.0119526
0.0119831
0.0120026
0.0120109
0.0120081
0.0119942
0.0119693
0.0119334
0.0118865
0.0118287
0.01176
0.0116804
0.01159
0.0114889
0.011377
0.0112546
0.0111215
0.010978
0.010824
0.0106597
0.0104852
0.0103005
0.0101058
0.00990119
0.00968676
0.00946267
0.00922906
0.00898608
0.0087339
0.00847269
0.00820266
0.007924
0.00763692
0.00734167
0.00703847
0.00672759
0.00640931
0.00608389
0.00575166
0.00541291
0.00506798
0.00471721
0.00436096
0.00399959
0.00363349
0.00326305
0.00288869
0.00251081
0.00212986
0.00174627
0.00136051
0.000973029
0.000584315
0.000194854
0.000194582
0.000583588
0.000972133
0.00135989
0.0017465
0.00213162
0.00251486
0.00289583
0.00327414
0.00364937
0.00402112
0.00438896
0.00475248
0.00511126
0.00546488
0.00581292
0.00615499
0.00649069
0.00681963
0.00714143
0.00745574
0.00776221
0.0080605
0.00835031
0.00863132
0.00890327
0.00916588
0.00941892
0.00966215
0.00989537
0.0101184
0.010331
0.0105331
0.0107245
0.0109051
0.0110748
0.0112334
0.011381
0.0115173
0.0116425
0.0117563
0.0118589
0.01195
0.0120298
0.0120983
0.0121553
0.0122009
0.0122352
0.0122581
0.0122697
0.0122699
0.0122589
0.0122365
0.0122029
0.012158
0.0121019
0.0120346
0.0119561
0.0118664
0.0117657
0.011654
0.0115312
0.0113975
0.0112529
0.0110975
0.0109314
0.0107547
0.0105674
0.0103697
0.0101616
0.00994331
0.00971495
0.00947666
0.00922859
0.00897092
0.00870382
0.0084275
0.00814216
0.00784803
0.00754536
0.00723439
0.0069154
0.00658867
0.00625452
0.00591325
0.00556521
0.00521073
0.00485018
0.00448394
0.0041124
0.00373597
0.00335505
0.00297009
0.00258152
0.00218979
0.00179537
0.00139873
0.00100034
0.000600707
0.000200318
0.000197626
0.000592712
0.000987317
0.0013811
0.00177372
0.0021648
0.00255396
0.00294083
0.003325
0.00370607
0.00408364
0.00445728
0.00482659
0.00519115
0.00555055
0.00590438
0.00625224
0.00659373
0.00692847
0.0072561
0.00757624
0.00788855
0.0081927
0.00848838
0.00877527
0.0090531
0.00932159
0.00958051
0.00982961
0.0100687
0.0102975
0.0105159
0.0107238
0.0109209
0.0111071
0.0112824
0.0114466
0.0115996
0.0117413
0.0118716
0.0119906
0.0120981
0.0121941
0.0122786
0.0123515
0.0124129
0.0124627
0.0125009
0.0125275
0.0125426
0.0125461
0.012538
0.0125184
0.0124872
0.0124445
0.0123902
0.0123244
0.0122471
0.0121583
0.012058
0.0119464
0.0118233
0.0116889
0.0115433
0.0113864
0.0112184
0.0110394
0.0108493
0.0106484
0.0104367
0.0102144
0.00998151
0.00973828
0.00948484
0.00922136
0.00894803
0.00866506
0.00837266
0.00807107
0.00776055
0.00744137
0.0071138
0.00677816
0.00643476
0.00608394
0.00572606
0.00536148
0.0049906
0.00461381
0.00423152
0.00384416
0.00345218
0.00305602
0.00265615
0.00225305
0.00184719
0.00143906
0.00102917
0.000618005
0.000206084
0.000200844
0.000602358
0.00100337
0.00140353
0.00180247
0.00219985
0.00259527
0.00298834
0.00337869
0.00376591
0.00414959
0.00452933
0.00490471
0.00527534
0.0056408
0.00600068
0.00635461
0.00670217
0.007043
0.00737672
0.00770296
0.0080214
0.00833168
0.0086335
0.00892655
0.00921054
0.0094852
0.00975027
0.0100055
0.0102507
0.0104857
0.0107102
0.0109241
0.0111272
0.0113194
0.0115006
0.0116705
0.0118292
0.0119766
0.0121125
0.0122368
0.0123496
0.0124507
0.0125401
0.0126178
0.0126838
0.012738
0.0127804
0.0128109
0.0128297
0.0128366
0.0128318
0.012815
0.0127865
0.012746
0.0126937
0.0126295
0.0125535
0.0124656
0.0123658
0.0122543
0.012131
0.0119959
0.0118492
0.0116908
0.0115208
0.0113393
0.0111463
0.0109421
0.0107266
0.0104999
0.0102623
0.0100139
0.00975481
0.00948522
0.00920532
0.00891534
0.0086155
0.00830605
0.00798726
0.00765941
0.00732279
0.00697774
0.0066246
0.00626372
0.00589547
0.00552025
0.00513847
0.00475055
0.00435693
0.00395807
0.00355443
0.00314648
0.00273471
0.00231963
0.00190172
0.00148151
0.0010595
0.000636208
0.000212152
0.000204249
0.000612563
0.00102035
0.00142724
0.00183289
0.0022369
0.00263892
0.00303855
0.00343541
0.00382909
0.00421921
0.00460535
0.00498712
0.00536411
0.00573593
0.00610217
0.00646244
0.00681636
0.00716355
0.00750365
0.00783628
0.00816112
0.00847782
0.00878606
0.00908554
0.00937598
0.00965708
0.00992861
0.0101903
0.0104419
0.0106833
0.0109142
0.0111344
0.0113438
0.0115423
0.0117296
0.0119057
0.0120704
0.0122236
0.0123653
0.0124953
0.0126136
0.0127201
0.0128147
0.0128975
0.0129682
0.013027
0.0130738
0.0131086
0.0131312
0.0131418
0.0131403
0.0131266
0.0131008
0.0130628
0.0130125
0.01295
0.0128753
0.0127884
0.0126892
0.0125778
0.0124543
0.0123185
0.0121706
0.0120105
0.0118385
0.0116544
0.0114584
0.0112507
0.0110312
0.0108001
0.0105575
0.0103036
0.0100385
0.0097625
0.0094757
0.00917835
0.00887068
0.00855296
0.00822547
0.0078885
0.00754237
0.00718743
0.00682404
0.00645257
0.00607342
0.00568701
0.00529378
0.00489416
0.00448864
0.00407769
0.00366179
0.00324146
0.0028172
0.00238953
0.00195898
0.00152607
0.00109134
0.000655317
0.000218522
0.000207855
0.000623369
0.00103833
0.00145235
0.00186508
0.00227612
0.00268511
0.00309165
0.00349537
0.00389587
0.00429276
0.00468564
0.00507412
0.00545779
0.00583628
0.00620918
0.00657611
0.00693668
0.00729053
0.00763729
0.0079766
0.00830813
0.00863153
0.00894648
0.00925268
0.00954984
0.00983768
0.0101159
0.0103843
0.0106427
0.0108907
0.0111283
0.0113552
0.0115711
0.0117761
0.0119699
0.0121523
0.0123233
0.0124827
0.0126304
0.0127664
0.0128904
0.0130026
0.0131027
0.0131907
0.0132665
0.0133301
0.0133815
0.0134206
0.0134474
0.0134618
0.0134638
0.0134533
0.0134304
0.0133949
0.0133468
0.0132861
0.0132129
0.0131269
0.0130283
0.0129171
0.0127932
0.0126567
0.0125076
0.0123458
0.0121716
0.0119848
0.0117857
0.0115742
0.0113505
0.0111147
0.0108669
0.0106073
0.010336
0.0100532
0.00975914
0.00945406
0.00913818
0.00881178
0.00847515
0.00812862
0.00777251
0.0074072
0.00703305
0.00665047
0.00625989
0.00586175
0.0054565
0.00504463
0.00462663
0.004203
0.00377426
0.00334095
0.00290359
0.00246274
0.00201894
0.00157274
0.00112469
0.00067533
0.000225193
0.000211677
0.000634824
0.00105738
0.00147896
0.00189918
0.00231766
0.00273402
0.00314787
0.00355883
0.00396652
0.00437055
0.00477052
0.00516605
0.00555675
0.00594224
0.00632212
0.00669602
0.00706356
0.00742438
0.0077781
0.00812439
0.00846289
0.00879328
0.00911524
0.00942845
0.00973262
0.0100275
0.0103127
0.0105881
0.0108535
0.0111085
0.011353
0.0115867
0.0118096
0.0120213
0.0122218
0.0124109
0.0125884
0.0127543
0.0129083
0.0130504
0.0131805
0.0132985
0.0134043
0.0134978
0.0135789
0.0136476
0.0137038
0.0137474
0.0137784
0.0137968
0.0138024
0.0137953
0.0137754
0.0137425
0.0136967
0.0136379
0.0135661
0.0134812
0.0133832
0.0132721
0.0131479
0.0130106
0.0128602
0.0126967
0.0125201
0.0123306
0.0121281
0.0119128
0.0116847
0.0114439
0.0111906
0.010925
0.0106471
0.0103573
0.0100556
0.00974245
0.00941796
0.00908248
0.00873629
0.00837974
0.00801319
0.00763701
0.00725161
0.00685741
0.00645486
0.00604444
0.00562663
0.00520193
0.00477087
0.00433399
0.00389182
0.00344493
0.00299389
0.00253926
0.00208161
0.00162152
0.00115954
0.000696243
0.000232164
0.000215732
0.000646978
0.0010776
0.00150719
0.00193535
0.00236171
0.00278587