/*--------------------------------*- C++ -*----------------------------------*\
| =========                 |                                                 |
| \\      /  F ield         | OpenFOAM: The Open Source CFD Toolbox           |
|  \\    /   O peration     | Version:  v2106                                 |
|   \\  /    A nd           | Website:  www.openfoam.com                      |
|    \\/     M anipulation  |                                                 |
\*---------------------------------------------------------------------------*/
FoamFile
{
    version     2.0;
    format      ascii;
    arch        "LSB;label=32;scalar=64";
    class       volScalarField;
    location    "0";
    object      Tlift0;
}
// * * * * * * * * * * * * * * * * * * * * * * * * * * * * * * * * * * * * * //

dimensions      [0 0 0 1 0 0 0];

internalField   nonuniform List<scalar> 
22000
(
0.992755
0.978267
0.963783
0.949307
0.934844
0.920398
0.905974
0.891578
0.877216
0.862895
0.848623
0.834405
0.82025
0.806165
0.792157
0.778233
0.764401
0.750668
0.737039
0.723523
0.710124
0.696849
0.683703
0.67069
0.657816
0.645084
0.632499
0.620062
0.607777
0.595646
0.583672
0.571854
0.560195
0.548695
0.537353
0.526171
0.515146
0.504278
0.493567
0.483009
0.472604
0.462349
0.452242
0.442279
0.432459
0.422778
0.413233
0.40382
0.394536
0.385378
0.376341
0.367421
0.358615
0.349918
0.341327
0.332838
0.324445
0.316146
0.307935
0.299809
0.291763
0.283794
0.275897
0.268068
0.260304
0.252599
0.244951
0.237354
0.229806
0.222303
0.214841
0.207416
0.200025
0.192664
0.18533
0.17802
0.170731
0.163459
0.156202
0.148957
0.14172
0.134491
0.127265
0.120042
0.112818
0.105592
0.0983621
0.0911269
0.083885
0.0766352
0.0693768
0.0621092
0.0548321
0.0475454
0.0402495
0.0329449
0.0256326
0.0183139
0.0109904
0.0036638
0.992754
0.978263
0.963777
0.949299
0.934833
0.920382
0.905954
0.891553
0.877186
0.862859
0.848581
0.834357
0.820195
0.806104
0.792089
0.778159
0.764321
0.750582
0.736948
0.723426
0.710022
0.696742
0.683591
0.670575
0.657697
0.644962
0.632373
0.619934
0.607647
0.595514
0.583538
0.57172
0.56006
0.54856
0.537219
0.526036
0.515013
0.504146
0.493436
0.48288
0.472477
0.462224
0.452119
0.442159
0.432342
0.422664
0.413122
0.403712
0.394432
0.385276
0.376243
0.367327
0.358524
0.349831
0.341244
0.332758
0.324369
0.316074
0.307867
0.299744
0.291703
0.283737
0.275844
0.268019
0.260257
0.252556
0.244911
0.237318
0.229773
0.222273
0.214814
0.207392
0.200004
0.192646
0.185315
0.178008
0.170721
0.163452
0.156197
0.148954
0.14172
0.134492
0.127268
0.120046
0.112824
0.105599
0.0983705
0.0911362
0.0838949
0.0766457
0.0693875
0.0621199
0.0548424
0.0475552
0.0402584
0.0329527
0.0256391
0.0183187
0.0109934
0.00366482
0.992752
0.978256
0.963764
0.94928
0.934807
0.92035
0.905913
0.891503
0.877127
0.86279
0.848501
0.834267
0.820095
0.805992
0.791967
0.778026
0.764178
0.750429
0.736785
0.723254
0.709841
0.696553
0.683395
0.670372
0.657488
0.644747
0.632154
0.619711
0.607421
0.595286
0.583308
0.571488
0.559828
0.548328
0.536987
0.525806
0.514784
0.50392
0.493213
0.482661
0.472261
0.462013
0.451912
0.441958
0.432146
0.422473
0.412937
0.403534
0.394259
0.385111
0.376084
0.367174
0.358379
0.349693
0.341112
0.332633
0.324251
0.315963
0.307762
0.299647
0.291612
0.283653
0.275766
0.267948
0.260193
0.252498
0.244859
0.237272
0.229733
0.222238
0.214785
0.207368
0.199985
0.192632
0.185305
0.178002
0.17072
0.163454
0.156203
0.148963
0.141732
0.134507
0.127286
0.120066
0.112846
0.105623
0.0983952
0.0911617
0.0839209
0.0766716
0.069413
0.0621445
0.0548658
0.0475767
0.0402777
0.0329694
0.0256526
0.0183288
0.0109996
0.00366691
0.992749
0.978246
0.963747
0.949256
0.934774
0.920307
0.90586
0.891439
0.87705
0.862701
0.848399
0.834152
0.819966
0.80585
0.791811
0.777857
0.763996
0.750234
0.736578
0.723035
0.709612
0.696314
0.683146
0.670114
0.657223
0.644475
0.631876
0.619428
0.607134
0.594996
0.583016
0.571195
0.559535
0.548035
0.536696
0.525517
0.514499
0.503638
0.492935
0.482388
0.471994
0.461752
0.451658
0.441711
0.431906
0.422242
0.412714
0.403319
0.394054
0.384914
0.375896
0.366996
0.35821
0.349533
0.340962
0.332493
0.324121
0.315841
0.30765
0.299544
0.291518
0.283569
0.275691
0.26788
0.260134
0.252447
0.244816
0.237237
0.229705
0.222218
0.214771
0.207361
0.199984
0.192637
0.185316
0.178019
0.170741
0.16348
0.156233
0.148997
0.141769
0.134547
0.127328
0.120111
0.112892
0.105669
0.0984425
0.091209
0.0839676
0.0767173
0.069457
0.0621862
0.0549046
0.0476121
0.0403091
0.0329961
0.0256741
0.0183446
0.0110092
0.00367018
0.992746
0.978235
0.963729
0.949229
0.934738
0.920261
0.905802
0.891369
0.876967
0.862605
0.848289
0.834026
0.819825
0.805694
0.79164
0.777672
0.763795
0.750019
0.73635
0.722794
0.709359
0.696049
0.682871
0.66983
0.65693
0.644175
0.63157
0.619117
0.606819
0.594678
0.582696
0.570874
0.559214
0.547716
0.536379
0.525204
0.514189
0.503334
0.492636
0.482096
0.471709
0.461475
0.451389
0.441451
0.431656
0.422001
0.412484
0.403099
0.393845
0.384716
0.37571
0.366821
0.358047
0.349382
0.340822
0.332365
0.324004
0.315736
0.307556
0.299461
0.291446
0.283507
0.27564
0.26784
0.260103
0.252426
0.244804
0.237233
0.22971
0.222231
0.214792
0.207389
0.200019
0.192678
0.185363
0.178071
0.170798
0.163541
0.156298
0.149065
0.14184
0.134621
0.127403
0.120187
0.112968
0.105746
0.0985183
0.0912834
0.0840399
0.0767867
0.069523
0.062248
0.0549615
0.0476634
0.040354
0.033034
0.0257045
0.0183668
0.0110228
0.00367474
0.992743
0.978224
0.96371
0.949202
0.934701
0.920213
0.905743
0.891296
0.876881
0.862504
0.848172
0.833894
0.819677
0.80553
0.79146
0.777475
0.763583
0.749791
0.736107
0.722538
0.709089
0.695767
0.682578
0.669527
0.656618
0.643856
0.631244
0.618785
0.606483
0.59434
0.582357
0.570535
0.558876
0.54738
0.536047
0.524876
0.513867
0.503018
0.492329
0.481796
0.471419
0.461195
0.45112
0.441193
0.43141
0.421768
0.412263
0.402892
0.393651
0.384536
0.375543
0.366668
0.357908
0.349257
0.340712
0.332268
0.323921
0.315666
0.3075
0.299419
0.291416
0.28349
0.275634
0.267846
0.260121
0.252454
0.244843
0.237282
0.229768
0.222298
0.214867
0.207471
0.200108
0.192774
0.185465
0.178177
0.170909
0.163656
0.156416
0.149186
0.141963
0.134744
0.127527
0.12031
0.11309
0.105866
0.0986349
0.0913963
0.0841483
0.0768898
0.0696199
0.0623379
0.0550435
0.0477367
0.0404179
0.0330876
0.0257471
0.0183978
0.0110417
0.00368108
0.99274
0.978214
0.963693
0.949177
0.934668
0.920169
0.905688
0.89123
0.876801
0.862409
0.848063
0.833769
0.819536
0.805373
0.791286
0.777285
0.763377
0.74957
0.735872
0.722288
0.708827
0.695493
0.682293
0.669232
0.656314
0.643545
0.630927
0.618465
0.60616
0.594015
0.582032
0.570211
0.558555
0.547063
0.535735
0.524571
0.513569
0.502729
0.492049
0.481528
0.471162
0.46095
0.450889
0.440976
0.431207
0.42158
0.41209
0.402735
0.39351
0.384411
0.375435
0.366577
0.357833
0.349198
0.340669
0.332242
0.32391
0.315672
0.307521
0.299454
0.291466
0.283553
0.275711
0.267936
0.260223
0.252568
0.244967
0.237417
0.229913
0.222451
0.215028
0.20764
0.200283
0.192954
0.18565
0.178367
0.171101
0.163851
0.156612
0.149382
0.142158
0.134938
0.127719
0.120498
0.113274
0.106045
0.098808
0.0915622
0.0843061
0.0770385
0.0697585
0.0624655
0.0551591
0.0478394
0.0405067
0.0331618
0.0258058
0.0184404
0.0110675
0.00368973
0.992738
0.978208
0.963682
0.94916
0.934645
0.920139
0.905648
0.89118
0.87674
0.862337
0.847978
0.833671
0.819424
0.805246
0.791146
0.777131
0.763209
0.749389
0.735678
0.722082
0.708609
0.695265
0.682056
0.668987
0.656063
0.643289
0.630667
0.618202
0.605896
0.593751
0.58177
0.569953
0.558301
0.546814
0.535494
0.524338
0.513346
0.502516
0.491848
0.481339
0.470987
0.460789
0.450743
0.440845
0.431093
0.421482
0.412009
0.402671
0.393464
0.384383
0.375425
0.366584
0.357858
0.349241
0.34073
0.332319
0.324004
0.315782
0.307647
0.299595
0.291622
0.283723
0.275895
0.268132
0.260431
0.252787
0.245197
0.237656
0.23016
0.222706
0.21529
0.207907
0.200556
0.19323
0.185929
0.178647
0.171383
0.164132
0.156892
0.149659
0.142432
0.135207
0.127982
0.120755
0.113523
0.106285
0.0990378
0.0917809
0.0845127
0.077232
0.0699378
0.0626295
0.055307
0.0479701
0.0406193
0.0332554
0.0258796
0.0184937
0.0110997
0.00370053
0.992738
0.978206
0.963678
0.949155
0.934635
0.920125
0.905629
0.891154
0.876707
0.862295
0.847926
0.833609
0.819352
0.805164
0.791053
0.777027
0.763094
0.749264
0.735543
0.721938
0.708457
0.695106
0.68189
0.668816
0.655888
0.64311
0.630487
0.618022
0.605717
0.593575
0.581598
0.569786
0.558141
0.546662
0.53535
0.524205
0.513224
0.502407
0.491753
0.481258
0.470921
0.460739
0.45071
0.440829
0.431094
0.421502
0.412048
0.402728
0.39354
0.384478
0.375538
0.366717
0.358009
0.34941
0.340917
0.332524
0.324226
0.31602
0.307901
0.299865
0.291906
0.284021
0.276205
0.268455
0.260764
0.253131
0.24555
0.238017
0.230528
0.22308
0.215668
0.208289
0.20094
0.193616
0.186315
0.179032
0.171765
0.164511
0.157266
0.150027
0.142793
0.13556
0.128325
0.121087
0.113843
0.106592
0.0993304
0.0920581
0.0847733
0.0774748
0.0701617
0.0628336
0.0554901
0.0481313
0.0407577
0.0333701
0.0259698
0.0185587
0.011139
0.00371365
0.992739
0.97821
0.963684
0.949162
0.934644
0.920133
0.905635
0.891158
0.876707
0.862291
0.847917
0.833594
0.819331
0.805136
0.791018
0.776985
0.763046
0.749209
0.735482
0.721871
0.708386
0.69503
0.681812
0.668736
0.655807
0.64303
0.630408
0.617946
0.605645
0.593508
0.581537
0.569733
0.558097
0.546629
0.535329
0.524196
0.513229
0.502427
0.491788
0.481309
0.470989
0.460825
0.450814
0.440952
0.431236
0.421663
0.412229
0.402929
0.39376
0.384718
0.375798
0.366996
0.358307
0.349728
0.341252
0.332877
0.324597
0.316407
0.308304
0.300282
0.292337
0.284465
0.276661
0.268921
0.261241
0.253616
0.246042
0.238515
0.231031
0.223586
0.216177
0.208799
0.201449
0.194124
0.186819
0.179532
0.172259
0.164998
0.157744
0.150496
0.14325
0.136004
0.128755
0.121502
0.114241
0.106972
0.0996914
0.0923986
0.0850922
0.0777709
0.0704339
0.0630808
0.0557112
0.0483254
0.0409238
0.0335074
0.0260775
0.0186361
0.0111857
0.00372926
0.992743
0.97822
0.963702
0.949185
0.934672
0.920165
0.905671
0.891196
0.876746
0.862331
0.847957
0.833633
0.819368
0.805171
0.791051
0.777016
0.763075
0.749236
0.735507
0.721896
0.708409
0.695054
0.681837
0.668763
0.655837
0.643064
0.630447
0.617991
0.605698
0.593569
0.581608
0.569815
0.558191
0.546736
0.53545
0.524331
0.51338
0.502595
0.491973
0.481513
0.471212
0.461067
0.451076
0.441234
0.431539
0.421987
0.412573
0.403294
0.394146
0.385124
0.376224
0.367442
0.358773
0.350212
0.341755
0.333397
0.325133
0.31696
0.308871
0.300863
0.292931
0.285071
0.277277
0.269547
0.261874
0.254255
0.246687
0.239164
0.231682
0.224239
0.216829
0.209449
0.202095
0.194764
0.187453
0.180157
0.172875
0.165601
0.158335
0.151072
0.14381
0.136547
0.129279
0.122005
0.114723
0.10743
0.100125
0.0928068
0.0854733
0.0781238
0.0707574
0.0633738
0.0559727
0.0485543
0.0411193
0.0336687
0.0262038
0.0187268
0.0112403
0.0037475
0.992749
0.978238
0.963731
0.949226
0.934723
0.920226
0.90574
0.891272
0.876829
0.86242
0.848051
0.833731
0.819471
0.805277
0.79116
0.777128
0.76319
0.749355
0.735629
0.722022
0.70854
0.69519
0.681978
0.66891
0.655991
0.643226
0.630619
0.618173
0.60589
0.593774
0.581826
0.570047
0.558437
0.546998
0.535729
0.524628
0.513696
0.502929
0.492327
0.481887
0.471607
0.461483
0.451513
0.441693
0.43202
0.422489
0.413097
0.40384
0.394713
0.385712
0.376833
0.368071
0.359421
0.350879
0.34244
0.334099
0.325851
0.317693
0.309618
0.301623
0.293702
0.285852
0.278067
0.270344
0.262677
0.255063
0.247497
0.239975
0.232493
0.225047
0.217633
0.210247
0.202886
0.195546
0.188224
0.180916
0.173619
0.16633
0.159045
0.151763
0.14448
0.137194
0.129902
0.122603
0.115293
0.107972
0.100637
0.0932865
0.0859202
0.0785366
0.0711351
0.0637151
0.0562767
0.04882
0.0413458
0.0338552
0.0263497
0.0188315
0.0113033
0.00376852
0.992758
0.978264
0.963774
0.949286
0.934798
0.920316
0.905845
0.89139
0.87696
0.862562
0.848204
0.833895
0.819644
0.80546
0.791352
0.777329
0.7634
0.749573
0.735857
0.722259
0.708786
0.695446
0.682245
0.669188
0.656281
0.643529
0.630935
0.618503
0.606235
0.594135
0.582203
0.570442
0.55885
0.54743
0.53618
0.5251
0.514189
0.503444
0.492864
0.482446
0.472188
0.462088
0.45214
0.442343
0.432693
0.423185
0.413816
0.404581
0.395476
0.386496
0.377638
0.368896
0.360265
0.351742
0.34332
0.334995
0.326763
0.318618
0.310557
0.302573
0.294662
0.28682
0.279042
0.271324
0.26366
0.256048
0.248481
0.240957
0.233472
0.22602
0.218598
0.211203
0.203831
0.196478
0.18914
0.181815
0.174499
0.167188
0.159881
0.152574
0.145265
0.137951
0.130629
0.123298
0.115955
0.108599
0.101228
0.0938407
0.0864356
0.0790119
0.0715691
0.0641068
0.0566249
0.0491239
0.0416045
0.034068
0.0265159
0.0189506
0.0113749
0.00379243
0.992769
0.978299
0.963832
0.949365
0.934899
0.920438
0.905987
0.891552
0.877141
0.862761
0.84842
0.834128
0.819894
0.805725
0.791633
0.777625
0.76371
0.749898
0.736197
0.722614
0.709156
0.695832
0.682646
0.669606
0.656716
0.643981
0.631404
0.618991
0.606743
0.594662
0.582751
0.57101
0.559441
0.548043
0.536816
0.525759
0.514871
0.50415
0.493594
0.483201
0.472968
0.462892
0.452969
0.443196
0.43357
0.424086
0.41474
0.405528
0.396445
0.387487
0.37865
0.369928
0.361317
0.352811
0.344406
0.336097
0.327879
0.319747
0.311697
0.303722
0.29582
0.287984
0.28021
0.272495
0.264832
0.257218
0.249649
0.24212
0.234626
0.227165
0.219732
0.212324
0.204935
0.197564
0.190207
0.18286
0.175519
0.168183
0.160848
0.153511
0.14617
0.138821
0.131464
0.124095
0.116714
0.109317
0.101903
0.0944722
0.0870219
0.0795519
0.0720615
0.0645505
0.057019
0.0494674
0.0418966
0.0343079
0.0267032
0.0190847
0.0114555
0.00381932
0.992784
0.978343
0.963904
0.949466
0.935028
0.920594
0.90617
0.891761
0.877375
0.863019
0.848703
0.834434
0.820222
0.806076
0.792005
0.778019
0.764126
0.750335
0.736654
0.723092
0.709656
0.696352
0.683188
0.670169
0.657301
0.644589
0.632035
0.619645
0.60742
0.595364
0.583477
0.571762
0.560218
0.548845
0.537644
0.526613
0.515752
0.505057
0.494528
0.484162
0.473955
0.463905
0.454008
0.444261
0.43466
0.425201
0.415879
0.406691
0.397631
0.388695
0.379879
0.371176
0.362584
0.354095
0.345707
0.337412
0.329207
0.321087
0.313046
0.305079
0.297183
0.289351
0.28158
0.273864
0.266199
0.258581
0.251005
0.243467
0.235963
0.228489
0.22104
0.213613
0.206205
0.198812
0.191429
0.184055
0.176685
0.169318
0.161949
0.154576
0.147197
0.139809
0.13241
0.124997
0.11757
0.110126
0.102664
0.0951829
0.0876812
0.0801583
0.0726138
0.0650477
0.05746
0.0498514
0.0422229
0.0345758
0.026912
0.0192342
0.0115453
0.00384927
0.992801
0.978396
0.963992
0.949589
0.935185
0.920785
0.906394
0.892017
0.877663
0.863339
0.849053
0.834814
0.820632
0.806515
0.792472
0.778514
0.764649
0.750886
0.737232
0.723697
0.710288
0.697012
0.683875
0.670884
0.658043
0.645358
0.632833
0.620471
0.608274
0.596246
0.584388
0.572702
0.561187
0.549843
0.538671
0.52767
0.516838
0.506172
0.495672
0.485334
0.475156
0.465134
0.455266
0.445546
0.435971
0.426538
0.417241
0.408076
0.39904
0.390126
0.38133
0.372648
0.364073
0.355602
0.347228
0.338947
0.330754
0.322643
0.31461
0.30665
0.298757
0.290927
0.283155
0.275436
0.267767
0.260141
0.252555
0.245005
0.237486
0.229994
0.222526
0.215077
0.207644
0.200223
0.192811
0.185404
0.178
0.170595
0.163187
0.155772
0.148349
0.140915
0.133468
0.126006
0.118527
0.11103
0.103513
0.0959746
0.0884147
0.0808324
0.0732273
0.0655994
0.057949
0.0502769
0.042584
0.034872
0.0271429
0.0193994
0.0116445
0.00388235
0.992822
0.978458
0.964096
0.949734
0.935371
0.921011
0.90666
0.892323
0.878007
0.863721
0.849473
0.835271
0.821125
0.807044
0.793037
0.779114
0.765283
0.751554
0.737935
0.724433
0.711058
0.697815
0.684711
0.671753
0.658945
0.646293
0.633801
0.621472
0.609308
0.597313
0.585488
0.573835
0.562352
0.551042
0.539903
0.528934
0.518134
0.5075
0.497032
0.486725
0.476577
0.466585
0.456746
0.447054
0.437508
0.428101
0.41883
0.40969
0.400676
0.391785
0.38301
0.374346
0.365789
0.357334
0.348974
0.340706
0.332523
0.324421
0.316394
0.308437
0.300546
0.292715
0.28494
0.277216
0.269538
0.261902
0.254302
0.246736
0.239198
0.231685
0.224193
0.216717
0.209254
0.201801
0.194354
0.18691
0.179465
0.172018
0.164564
0.157102
0.149629
0.142143
0.134642
0.127124
0.119586
0.112029
0.10445
0.0968484
0.0892236
0.0815751
0.0739027
0.0662063
0.0584866
0.0507443
0.0429806
0.0351972
0.0273962
0.0195805
0.0117533
0.00391861
0.992846
0.97853
0.964216
0.949902
0.935586
0.921274
0.906969
0.892678
0.878408
0.864167
0.849963
0.835805
0.821703
0.807664
0.7937
0.779818
0.766029
0.752341
0.738762
0.725301
0.711965
0.698762
0.685698
0.672778
0.660009
0.647396
0.634942
0.62265
0.610525
0.598568
0.58678
0.575163
0.563718
0.552444
0.541341
0.530408
0.519643
0.509044
0.498609
0.488336
0.478221
0.468261
0.458452
0.448791
0.439273
0.429893
0.420649
0.411534
0.402544
0.393675
0.38492
0.376276
0.367736
0.359296
0.350949
0.342692
0.334518
0.326422
0.318399
0.310445
0.302553
0.294719
0.286938
0.279205
0.271516
0.263865
0.256249
0.248663
0.241102
0.233563
0.226042
0.218535
0.211038
0.203547
0.19606
0.188573
0.181083
0.173587
0.166082
0.158567
0.151038
0.143493
0.135931
0.12835
0.120748
0.113124
0.105476
0.0978049
0.0901086
0.0823872
0.0746406
0.0668691
0.0590732
0.051254
0.0434128
0.0355514
0.0276721
0.0197777
0.0118716
0.00395807
0.992873
0.978612
0.964353
0.950092
0.935831
0.921572
0.907321
0.893083
0.878865
0.864676
0.850524
0.836417
0.822365
0.808377
0.794462
0.780629
0.766888
0.753247
0.739716
0.726301
0.713012
0.699854
0.686835
0.673961
0.661236
0.648667
0.636256
0.624008
0.611926
0.600011
0.588265
0.576689
0.565285
0.554051
0.542988
0.532093
0.521366
0.510805
0.500407
0.490169
0.480089
0.470162
0.460386
0.450756
0.441268
0.431917
0.4227
0.41361
0.404645
0.395797
0.387063
0.378437
0.369914
0.361488
0.353154
0.344906
0.336739
0.328649
0.320628
0.312673
0.304779
0.296939
0.289149
0.281405
0.273701
0.266033
0.258396
0.250786
0.243198
0.235629
0.228075
0.220532
0.212995
0.205462
0.19793
0.190394
0.182853
0.175303
0.167741
0.160166
0.152575
0.144966
0.137337
0.129686
0.122013
0.114315
0.106593
0.0988445
0.0910698
0.0832687
0.0754412
0.0675878
0.0597091
0.0518063
0.043881
0.0359349
0.0279706
0.019991
0.0119997
0.00400076
0.992904
0.978704
0.964505
0.950306
0.936105
0.921907
0.907715
0.893537
0.879379
0.865249
0.851156
0.837107
0.823112
0.809181
0.795322
0.781545
0.767859
0.754273
0.740795
0.727434
0.714197
0.701092
0.688124
0.6753
0.662626
0.650106
0.637745
0.625545
0.61351
0.601642
0.589942
0.578412
0.567053
0.555863
0.544842
0.53399
0.523304
0.512783
0.502424
0.492225
0.482181
0.47229
0.462548
0.452951
0.443493
0.434172
0.424983
0.415919
0.406978
0.398153
0.389439
0.380831
0.372323
0.363911
0.355588
0.347349
0.339188
0.3311
0.323081
0.315123
0.307223
0.299375
0.291574
0.283815
0.276093
0.268404
0.260742
0.253105
0.245486
0.237883
0.230291
0.222707
0.215126
0.207546
0.199963
0.192374
0.184775
0.177165
0.169541
0.1619
0.154241
0.146561
0.138858
0.131132
0.123381
0.115603
0.107799
0.099967
0.0921073
0.0842197
0.0763046
0.0683624
0.0603942
0.0524012
0.044385
0.0363477
0.0282919
0.0202206
0.0121374
0.00404667
0.992938
0.978805
0.964674
0.950542
0.936409
0.922277
0.908153
0.894041
0.87995
0.865886
0.851857
0.837873
0.823943
0.810075
0.79628
0.782565
0.768941
0.755416
0.741999
0.728698
0.71552
0.702473
0.689563
0.676796
0.664177
0.651713
0.639405
0.627259
0.615276
0.60346
0.591811
0.580331
0.56902
0.557878
0.546904
0.536097
0.525456
0.514978
0.504661
0.494501
0.484497
0.474643
0.464937
0.455373
0.445948
0.436658
0.427497
0.41846
0.409543
0.40074
0.392046
0.383455
0.374963
0.366563
0.35825
0.350018
0.341862
0.333776
0.325755
0.317793
0.309885
0.302026
0.29421
0.286434
0.278691
0.270977
0.263288
0.255619
0.247965
0.240324
0.23269
0.22506
0.21743
0.209798
0.202159
0.19451
0.186849
0.179174
0.171481
0.163769
0.156035
0.148277
0.140495
0.132687
0.124851
0.116987
0.109094
0.101172
0.0932206
0.0852398
0.0772303
0.0691928
0.0611284
0.0530384
0.0449247
0.0367896
0.0286357
0.0204662
0.0122848
0.00409579
0.992975
0.978916
0.964859
0.950801
0.936741
0.922683
0.908632
0.894594
0.880576
0.866584
0.852628
0.838716
0.824857
0.81106
0.797334
0.783689
0.770134
0.756677
0.743326
0.730091
0.716979
0.703996
0.691149
0.678445
0.665888
0.653484
0.641236
0.629148
0.617223
0.605463
0.59387
0.582444
0.571185
0.560095
0.549171
0.538413
0.527819
0.517386
0.507113
0.496997
0.487033
0.477218
0.467549
0.458021
0.44863
0.439371
0.430239
0.421229
0.412336
0.403556
0.394882
0.386309
0.377831
0.369443
0.361139
0.352913
0.34476
0.336673
0.328649
0.32068
0.312762
0.304889
0.297057
0.289259
0.281492
0.273751
0.26603
0.258326
0.250633
0.242949
0.235269
0.227589
0.219905
0.212215
0.204515
0.196802
0.189074
0.181327
0.17356
0.16577
0.157955
0.150115
0.142246
0.13435
0.126423
0.118466
0.110478
0.102459
0.094409
0.0863285
0.078218
0.0700784
0.0619111
0.0537176
0.0454999
0.0372605
0.029002
0.0207279
0.0124418
0.00414811
0.993015
0.979037
0.96506
0.951081
0.937102
0.923124
0.909153
0.895195
0.881256
0.867344
0.853467
0.839633
0.825852
0.812132
0.798483
0.784914
0.771434
0.758051
0.744774
0.731612
0.718571
0.705658
0.692881
0.680245
0.667756
0.655418
0.643235
0.63121
0.619347
0.607648
0.596114
0.584746
0.573544
0.562509
0.551639
0.540933
0.530389
0.520005
0.509779
0.499707
0.489786
0.480013
0.470383
0.460892
0.451535
0.442308
0.433206
0.424224
0.415356
0.406598
0.397943
0.389387
0.380923
0.372546
0.36425
0.356029
0.347877
0.339789
0.331759
0.323781
0.315851
0.307962
0.30011
0.292289
0.284495
0.276722
0.268966
0.261223
0.253488
0.245756
0.238025
0.230291
0.222549
0.214796
0.20703
0.199248
0.191446
0.183622
0.175775
0.167902
0.160001
0.152071
0.14411
0.136119
0.128095
0.120038
0.111949
0.103827
0.0956717
0.0874848
0.0792667
0.0710186
0.0627419
0.0544384
0.0461102
0.0377599
0.0293905
0.0210053
0.0126082
0.00420359
0.993058
0.979166
0.965276
0.951384
0.937491
0.923599
0.909715
0.895843
0.88199
0.868163
0.854372
0.840623
0.826926
0.81329
0.799725
0.786238
0.772839
0.759537
0.74634
0.733256
0.720293
0.707457
0.694755
0.682193
0.669776
0.65751
0.645396
0.633441
0.621645
0.610011
0.598541
0.587235
0.576094
0.565117
0.554304
0.543653
0.533163
0.52283
0.512653
0.502629
0.492753
0.483022
0.473433
0.46398
0.454659
0.445465
0.436394
0.427439
0.418597
0.409861
0.401226
0.392686
0.384236
0.375869
0.367579
0.359362
0.35121
0.343118
0.335081
0.327093
0.319148
0.311241
0.303366
0.295519
0.287694
0.279887
0.272092
0.264306
0.256524
0.248742
0.240956
0.233163
0.225358
0.217538
0.209701
0.201844
0.193963
0.186057
0.178124
0.170162
0.162169
0.154144
0.146085
0.137992
0.129865
0.121703
0.113506
0.105274
0.0970075
0.0887078
0.0803757
0.0720125
0.06362
0.0552
0.046755
0.0382876
0.0298009
0.0212984
0.012784
0.00426218
0.993104
0.979305
0.965507
0.951707
0.937906
0.924108
0.910316
0.896536
0.882775
0.869041
0.855341
0.841684
0.828078
0.814532
0.801056
0.787658
0.774347
0.761132
0.748021
0.735022
0.722142
0.709388
0.696768
0.684285
0.671946
0.659756
0.647718
0.635835
0.624111
0.612547
0.601145
0.589905
0.578829
0.567914
0.557161
0.546569
0.536135
0.525856
0.515731
0.505756
0.495927
0.486241
0.476694
0.46728
0.457996
0.448837
0.439797
0.430871
0.422054
0.41334
0.404725
0.396201
0.387763
0.379406
0.371122
0.362907
0.354754
0.346657
0.338611
0.33061
0.322648
0.31472
0.30682
0.298944
0.291086
0.283241
0.275405
0.267572
0.25974
0.251903
0.244058
0.236201
0.228328
0.220437
0.212524
0.204587
0.196623
0.18863
0.180605
0.172549
0.164457
0.156331
0.148168
0.139969
0.131732
0.123458
0.115147
0.106799
0.0984149
0.0899962
0.0815437
0.0730593
0.0645446
0.0560019
0.0474338
0.038843
0.0302329
0.0216069
0.012969
0.00432384
0.993153
0.979452
0.965752
0.952051
0.938348
0.924648
0.910955
0.897274
0.883611
0.869975
0.856373
0.842813
0.829304
0.815855
0.802475
0.789172
0.775955
0.762833
0.749813
0.736905
0.724114
0.711448
0.698914
0.686516
0.674261
0.662152
0.650194
0.638389
0.626741
0.615251
0.603921
0.592752
0.581743
0.570895
0.560205
0.549674
0.539299
0.529077
0.519006
0.509083
0.499303
0.489664
0.48016
0.470788
0.461542
0.452417
0.443409
0.434512
0.425721
0.41703
0.408433
0.399926
0.3915
0.383151
0.374873
0.366659
0.358503
0.3504
0.342343
0.334327
0.326346
0.318395
0.310468
0.302559
0.294665
0.286779
0.278898
0.271016
0.26313
0.255234
0.247326
0.239401
0.231457
0.223489
0.215496
0.207474
0.199421
0.191336
0.183215
0.175058
0.166863
0.15863
0.150358
0.142045
0.133693
0.125301
0.11687
0.1084
0.0998925
0.0913485
0.0827696
0.0741576
0.0655147
0.0568432
0.0481458
0.0394256
0.0306859
0.0219303
0.0131631
0.00438849
0.993205
0.979608
0.966012
0.952414
0.938816
0.92522
0.91163
0.898054
0.884496
0.870964
0.857465
0.844009
0.830603
0.817256
0.803977
0.790775
0.777658
0.764635
0.751713
0.7389
0.726205
0.713632
0.701189
0.688882
0.676715
0.664692
0.652819
0.641097
0.629529
0.618118
0.606864
0.595768
0.584831
0.574052
0.56343
0.552963
0.54265
0.532487
0.522473
0.512603
0.502875
0.493283
0.483825
0.474495
0.465288
0.456199
0.447224
0.438357
0.429592
0.420923
0.412346
0.403853
0.39544
0.387099
0.378824
0.37061
0.36245
0.354339
0.34627
0.338237
0.330236
0.322259
0.314302
0.306359
0.298426
0.290497
0.282567
0.274632
0.266688
0.25873
0.250755
0.242759
0.234739
0.226691
0.218612
0.210501
0.202355
0.194171
0.185949
0.177687
0.169384
0.161038
0.15265
0.14422
0.135746
0.127231
0.118673
0.110076
0.101438
0.0927632
0.0840519
0.0753064
0.0665292
0.0577229
0.0488903
0.0400347
0.0311595
0.0222685
0.0133659
0.00445609
0.993259
0.979772
0.966285
0.952796
0.939308
0.925821
0.912342
0.898875
0.885427
0.872004
0.858615
0.845268
0.831971
0.818732
0.805561
0.792465
0.779453
0.766534
0.753715
0.741004
0.728409
0.715935
0.703589
0.691377
0.679303
0.667371
0.655587
0.643952
0.632469
0.62114
0.609966
0.598949
0.588087
0.57738
0.566828
0.556428
0.546179
0.536079
0.526123
0.51631
0.506634
0.497093
0.487681
0.478394
0.469228
0.460176
0.451235
0.442397
0.433658
0.425013
0.416454
0.407977
0.399575
0.391241
0.38297
0.374755
0.36659
0.358469
0.350386
0.342335
0.334311
0.326307
0.318318
0.310338
0.302363
0.294387
0.286406
0.278416
0.27041
0.262387
0.254341
0.24627
0.238169
0.230036
0.221869
0.213664
0.205419
0.197133
0.188805
0.180432
0.172015
0.163552
0.155043
0.146489
0.137889
0.129244
0.120555
0.111824
0.103051
0.0942386
0.085389
0.0765043
0.067587
0.05864
0.0496664
0.0406696
0.0316531
0.022621
0.0135773
0.00452654
0.993316
0.979943
0.96657
0.953197
0.939822
0.926451
0.913087
0.899735
0.886402
0.873095
0.859821
0.846588
0.833405
0.82028
0.807221
0.794237
0.781336
0.768526
0.755816
0.743212
0.730722
0.718352
0.706108
0.693995
0.682019
0.670184
0.658492
0.646949
0.635555
0.624312
0.613222
0.602286
0.591502
0.580872
0.570392
0.560063
0.549881
0.539845
0.52995
0.520195
0.510574
0.501084
0.491721
0.482479
0.473354
0.46434
0.455433
0.446626
0.437914
0.429291
0.420751
0.412289
0.403897
0.39557
0.387302
0.379085
0.370914
0.362782
0.354684
0.346613
0.338564
0.330531
0.322507
0.314488
0.306469
0.298445
0.29041
0.28236
0.27429
0.266198
0.258078
0.249927
0.241743
0.233521
0.22526
0.216957
0.20861
0.200217
0.191778
0.18329
0.174754
0.166168
0.157533
0.14885
0.140118
0.131338
0.122512
0.113642
0.104728
0.095773
0.0867795
0.0777498
0.0686868
0.0595935
0.0504733
0.0413296
0.0321663
0.0229874
0.0137971
0.00459977
0.993376
0.980122
0.966868
0.953614
0.94036
0.927108
0.913864
0.900632
0.887419
0.874232
0.861079
0.847966
0.834902
0.821895
0.808954
0.796087
0.783302
0.770608
0.758011
0.745519
0.733139
0.720877
0.708739
0.696731
0.684857
0.673122
0.661529
0.65008
0.638779
0.627627
0.616624
0.605772
0.595071
0.584519
0.574115
0.563859
0.553747
0.543777
0.533946
0.52425
0.514686
0.50525
0.495936
0.48674
0.477657
0.468682
0.45981
0.451034
0.442349
0.433749
0.425229
0.416781
0.4084
0.400079
0.391813
0.383593
0.375415
0.367271
0.359156
0.351064
0.342988
0.334924
0.326864
0.318804
0.310738
0.302662
0.29457
0.286458
0.278322
0.270157
0.261959
0.253726
0.245454
0.23714
0.228781
0.220376
0.211922
0.203419
0.194863
0.186256
0.177596
0.168883
0.160117
0.151299
0.14243
0.133511
0.124542
0.115527
0.106467
0.0973643
0.0882215
0.0790415
0.0698273
0.0605823
0.0513099
0.042014
0.0326984
0.0233673
0.0140249
0.0046757
0.993437
0.980308
0.967178
0.954048
0.940917
0.92779
0.914671
0.901564
0.888477
0.875415
0.862386
0.849398
0.836458
0.823575
0.810757
0.798012
0.785348
0.772773
0.760294
0.747919
0.735653
0.723505
0.711478
0.699579
0.687812
0.676181
0.664689
0.65334
0.642135
0.631076
0.620165
0.609401
0.598784
0.588314
0.57799
0.567808
0.557769
0.547868
0.538102
0.528468
0.518962
0.509581
0.500318
0.491169
0.48213
0.473195
0.464358
0.455614
0.446956
0.43838
0.429878
0.421445
0.413074
0.404759
0.396494
0.388271
0.380084
0.371928
0.363795
0.35568
0.347576
0.339478
0.33138
0.323277
0.315162
0.307032
0.298881
0.290704
0.282498
0.274258
0.26598
0.257661
0.249298
0.240888
0.232428
0.223917
0.215352
0.206733
0.198057
0.189326
0.180538
0.171693
0.162791
0.153834
0.144823
0.135759
0.126643
0.117478
0.108267
0.0990107
0.0897133
0.0803777
0.0710071
0.061605
0.0521754
0.0427219
0.0332488
0.0237603
0.0142606
0.00475424
0.993501
0.9805
0.967498
0.954497
0.941495
0.928497
0.915507
0.90253
0.889572
0.87664
0.86374
0.850881
0.83807
0.825316
0.812625
0.800007
0.787468
0.775017
0.762661
0.750406
0.73826
0.726229
0.714318
0.702532
0.690875
0.679352
0.667966
0.65672
0.645615
0.634654
0.623836
0.613164
0.602635
0.592249
0.582006
0.571903
0.561938
0.552108
0.542409
0.532839
0.523394
0.514068
0.504858
0.495758
0.486763
0.477869
0.469068
0.460356
0.451726
0.443173
0.43469
0.426272
0.417911
0.409602
0.401336
0.393109
0.384914
0.376743
0.368591
0.360452
0.352319
0.344186
0.336049
0.3279
0.319735
0.311548
0.303336
0.295092
0.286813
0.278495
0.270133
0.261725
0.253268
0.244758
0.236194
0.227573
0.218894
0.210155
0.201356
0.192496
0.183575
0.174593
0.165552
0.156451
0.147293
0.138079
0.128812
0.119492
0.110124
0.10071
0.0912531
0.0817568
0.0722247
0.0626606
0.0530686
0.0434526
0.0338169
0.0241659
0.0145038
0.0048353
0.993567
0.980698
0.967829
0.95496
0.942091
0.929226
0.916369
0.903526
0.890702
0.877904
0.865138
0.852413
0.839735
0.827113
0.814554
0.802066
0.789657
0.777335
0.765106
0.752977
0.740954
0.729044