/*--------------------------------*- C++ -*----------------------------------*\
| =========                 |                                                 |
| \\      /  F ield         | OpenFOAM: The Open Source CFD Toolbox           |
|  \\    /   O peration     | Version:  v2106                                 |
|   \\  /    A nd           | Website:  www.openfoam.com                      |
|    \\/     M anipulation  |                                                 |
\*---------------------------------------------------------------------------*/
FoamFile
{
    version     2.0;
    format      ascii;
    arch        "LSB;label=32;scalar=64";
    class       volScalarField;
    location    "0";
    object      Tlift1;
}
// * * * * * * * * * * * * * * * * * * * * * * * * * * * * * * * * * * * * * //

dimensions      [0 0 0 1 0 0 0];

internalField   nonuniform List<scalar> 
22000
(
0.00708198
0.0212447
0.0354036
0.0495556
0.0636967
0.0778227
0.0919285
0.106009
0.120058
0.134068
0.148035
0.16195
0.175807
0.189599
0.203319
0.21696
0.230514
0.243977
0.25734
0.270599
0.283746
0.296778
0.309688
0.322472
0.335126
0.347646
0.360028
0.37227
0.384369
0.396323
0.40813
0.41979
0.4313
0.442661
0.453872
0.464934
0.475848
0.486615
0.497235
0.507711
0.518044
0.528236
0.538291
0.54821
0.557997
0.567653
0.577184
0.586591
0.595878
0.60505
0.614109
0.623059
0.631905
0.64065
0.649298
0.657854
0.66632
0.674702
0.683003
0.691228
0.69938
0.707463
0.715482
0.72344
0.731341
0.73919
0.74699
0.754744
0.762457
0.770131
0.777771
0.785381
0.792962
0.80052
0.808056
0.815574
0.823078
0.830569
0.838051
0.845526
0.852997
0.860466
0.867936
0.875408
0.882885
0.890368
0.897859
0.905358
0.912868
0.920389
0.927922
0.935466
0.943023
0.950591
0.95817
0.96576
0.973359
0.980965
0.988576
0.996192
0.00708318
0.0212485
0.0354103
0.0495655
0.0637104
0.0778407
0.0919512
0.106037
0.120091
0.134107
0.14808
0.162001
0.175864
0.189662
0.203388
0.217034
0.230595
0.244062
0.257431
0.270695
0.283847
0.296883
0.309797
0.322585
0.335242
0.347765
0.36015
0.372394
0.384495
0.39645
0.408258
0.419918
0.431428
0.442789
0.454
0.465062
0.475975
0.48674
0.497358
0.507832
0.518163
0.528353
0.538405
0.548322
0.558105
0.567759
0.577286
0.58669
0.595974
0.605142
0.614197
0.623144
0.631986
0.640728
0.649372
0.657923
0.666386
0.674764
0.683061
0.691282
0.69943
0.70751
0.715525
0.723479
0.731377
0.739222
0.747018
0.754769
0.762478
0.77015
0.777787
0.785393
0.792972
0.800526
0.80806
0.815575
0.823076
0.830565
0.838045
0.845518
0.852987
0.860454
0.867922
0.875393
0.882869
0.890351
0.897841
0.90534
0.912849
0.92037
0.927903
0.935448
0.943006
0.950576
0.958157
0.965748
0.97335
0.980958
0.988573
0.99619
0.00708529
0.021255
0.0354216
0.0495824
0.0637336
0.0778708
0.091989
0.106083
0.120146
0.134172
0.148153
0.162085
0.175958
0.189766
0.203502
0.217158
0.230728
0.244205
0.257583
0.270855
0.284015
0.297059
0.30998
0.322774
0.335437
0.347965
0.360354
0.372602
0.384705
0.396663
0.408472
0.420133
0.431644
0.443004
0.454214
0.465274
0.476185
0.486947
0.497563
0.508033
0.51836
0.528546
0.538594
0.548505
0.558283
0.567931
0.577452
0.58685
0.596128
0.605289
0.614338
0.623279
0.632114
0.640848
0.649486
0.658031
0.666486
0.674858
0.683148
0.691362
0.699504
0.707577
0.715585
0.723534
0.731425
0.739264
0.747055
0.7548
0.762503
0.77017
0.777801
0.785403
0.792977
0.800527
0.808056
0.815567
0.823064
0.83055
0.838026
0.845496
0.852962
0.860427
0.867893
0.875362
0.882837
0.890317
0.897807
0.905306
0.912815
0.920337
0.927871
0.935417
0.942977
0.950549
0.958133
0.965728
0.973333
0.980947
0.988566
0.996188
0.00708794
0.0212631
0.0354358
0.0496034
0.0637623
0.077908
0.0920357
0.10614
0.120213
0.134251
0.148245
0.162188
0.176074
0.189895
0.203643
0.217312
0.230894
0.244383
0.257772
0.271055
0.284225
0.297278
0.310208
0.32301
0.33568
0.348214
0.360608
0.37286
0.384967
0.396927
0.408739
0.4204
0.43191
0.44327
0.454478
0.465536
0.476443
0.487202
0.497813
0.508278
0.518599
0.528779
0.53882
0.548724
0.558494
0.568135
0.577648
0.587037
0.596306
0.605459
0.614499
0.62343
0.632256
0.640981
0.649609
0.658144
0.666591
0.674953
0.683235
0.69144
0.699572
0.707637
0.715637
0.723577
0.73146
0.739292
0.747074
0.754812
0.762509
0.770168
0.777794
0.785389
0.792957
0.800501
0.808026
0.815532
0.823025
0.830506
0.837979
0.845446
0.85291
0.860372
0.867837
0.875304
0.882778
0.890258
0.897748
0.905247
0.912758
0.920282
0.927818
0.935368
0.942931
0.950508
0.958097
0.965697
0.973309
0.980929
0.988555
0.996184
0.00709073
0.0212716
0.0354508
0.0496256
0.0637926
0.0779474
0.0920851
0.1062
0.120286
0.134335
0.148342
0.162299
0.176199
0.190033
0.203796
0.217478
0.231074
0.244576
0.257977
0.271272
0.284453
0.297516
0.310456
0.323266
0.335944
0.348484
0.360884
0.37314
0.385251
0.397213
0.409026
0.420687
0.432197
0.443555
0.45476
0.465814
0.476717
0.48747
0.498075
0.508534
0.518848
0.529019
0.539051
0.548946
0.558708
0.568338
0.577841
0.587219
0.596478
0.605619
0.614648
0.623568
0.632382
0.641096
0.649713
0.658237
0.666672
0.675023
0.683294
0.691488
0.69961
0.707664
0.715654
0.723584
0.731459
0.739281
0.747055
0.754784
0.762473
0.770125
0.777744
0.785332
0.792894
0.800433
0.807952
0.815454
0.822943
0.83042
0.83789
0.845354
0.852816
0.860277
0.867741
0.875208
0.882682
0.890164
0.897655
0.905157
0.912672
0.920199
0.92774
0.935295
0.942864
0.950448
0.958044
0.965654
0.973274
0.980903
0.988539
0.996178
0.00709342
0.0212799
0.0354653
0.0496472
0.0638224
0.0779865
0.0921345
0.106261
0.120359
0.134421
0.148442
0.162413
0.176327
0.190176
0.203953
0.217651
0.231261
0.244776
0.258191
0.271498
0.284692
0.297766
0.310715
0.323534
0.336219
0.348766
0.361171
0.373432
0.385545
0.397509
0.409322
0.420983
0.432491
0.443845
0.455047
0.466096
0.476993
0.487739
0.498336
0.508785
0.51909
0.529251
0.539272
0.549156
0.558905
0.568522
0.578012
0.587378
0.596623
0.605751
0.614765
0.623671
0.632472
0.641172
0.649775
0.658285
0.666707
0.675045
0.683302
0.691484
0.699593
0.707635
0.715614
0.723533
0.731396
0.739208
0.746973
0.754693
0.762373
0.770017
0.777628
0.78521
0.792766
0.800299
0.807813
0.815311
0.822796
0.830271
0.837739
0.845202
0.852663
0.860125
0.867589
0.875059
0.882535
0.89002
0.897516
0.905023
0.912543
0.920077
0.927626
0.93519
0.942769
0.950363
0.957971
0.965592
0.973225
0.980868
0.988518
0.996171
0.00709547
0.0212863
0.0354767
0.0496646
0.0638468
0.078019
0.0921763
0.106313
0.120422
0.134497
0.148531
0.162516
0.176444
0.190307
0.204098
0.21781
0.231434
0.244963
0.258391
0.27171
0.284915
0.297999
0.310957
0.323785
0.336477
0.349029
0.361439
0.373702
0.385817
0.397782
0.409594
0.421252
0.432756
0.444106
0.455301
0.466343
0.477231
0.487968
0.498554
0.508993
0.519285
0.529433
0.539441
0.54931
0.559044
0.568647
0.578121
0.587471
0.5967
0.605811
0.61481
0.623699
0.632483
0.641167
0.649754
0.658248
0.666655
0.674977
0.683219
0.691386
0.699482
0.707511
0.715477
0.723383
0.731235
0.739036
0.74679
0.754501
0.762173
0.769809
0.777413
0.784988
0.792539
0.800068
0.807578
0.815074
0.822557
0.830031
0.837499
0.844963
0.852426
0.859891
0.86736
0.874834
0.882316
0.889809
0.897312
0.904829
0.912359
0.919905
0.927466
0.935043
0.942636
0.950245
0.957869
0.965507
0.973158
0.98082
0.988489
0.996161
0.00709629
0.021289
0.0354818
0.0496731
0.0638597
0.0780375
0.0922014
0.106346
0.120464
0.134548
0.148592
0.162588
0.176528
0.190403
0.204206
0.217929
0.231565
0.245105
0.258543
0.271873
0.285087
0.298179
0.311144
0.323978
0.336675
0.349231
0.361643
0.373907
0.386022
0.397984
0.409793
0.421447
0.432946
0.444288
0.455476
0.466508
0.477386
0.488111
0.498685
0.50911
0.519388
0.529522
0.539514
0.549367
0.559084
0.56867
0.578127
0.587459
0.59667
0.605764
0.614744
0.623616
0.632382
0.641048
0.649618
0.658095
0.666485
0.674791
0.683018
0.691171
0.699252
0.707267
0.71522
0.723115
0.730956
0.738746
0.746491
0.754193
0.761857
0.769487
0.777085
0.784656
0.792203
0.79973
0.807239
0.814734
0.822219
0.829695
0.837166
0.844634
0.852103
0.859574
0.867051
0.874534
0.882026
0.88953
0.897046
0.904576
0.912121
0.919682
0.92726
0.934855
0.942467
0.950095
0.95774
0.965401
0.973074
0.98076
0.988453
0.996149
0.00709546
0.0212867
0.0354787
0.0496699
0.0638575
0.0780373
0.0922043
0.106353
0.120476
0.134567
0.148618
0.162621
0.176568
0.190452
0.204263
0.217995
0.231639
0.245187
0.258633
0.271969
0.285189
0.298286
0.311256
0.324092
0.336791
0.349348
0.36176
0.374023
0.386134
0.398092
0.409895
0.421543
0.433033
0.444366
0.455543
0.466563
0.477429
0.48814
0.4987
0.509109
0.519371
0.529488
0.539462
0.549297
0.558997
0.568564
0.578002
0.587314
0.596506
0.605581
0.614542
0.623395
0.632143
0.64079
0.649342
0.657802
0.666175
0.674465
0.682676
0.690813
0.698881
0.706883
0.714824
0.722707
0.730538
0.738319
0.746056
0.753751
0.761409
0.769034
0.776629
0.784198
0.791744
0.799271
0.806782
0.81428
0.821769
0.82925
0.836728
0.844205
0.851683
0.859165
0.866653
0.87415
0.881657
0.889177
0.89671
0.904258
0.911823
0.919404
0.927004
0.934622
0.942258
0.949912
0.957584
0.965271
0.972973
0.980687
0.988409
0.996134
0.00709263
0.0212784
0.0354655
0.0496525
0.0638368
0.0780143
0.0921801
0.106328
0.120452
0.134545
0.148598
0.162604
0.176555
0.190443
0.204258
0.217994
0.231642
0.245194
0.258643
0.271982
0.285204
0.298303
0.311273
0.32411
0.336807
0.349361
0.361769
0.374027
0.386132
0.398083
0.409878
0.421515
0.432994
0.444316
0.455479
0.466486
0.477336
0.488031
0.498574
0.508966
0.51921
0.529307
0.539263
0.549078
0.558757
0.568304
0.577722
0.587014
0.596185
0.60524
0.614181
0.623014
0.631742
0.640371
0.648904
0.657347
0.665702
0.673976
0.682172
0.690295
0.69835
0.706339
0.714269
0.722142
0.729964
0.737738
0.745468
0.753159
0.760813
0.768436
0.77603
0.7836
0.791148
0.798679
0.806195
0.813699
0.821196
0.828687
0.836176
0.843665
0.851158
0.858655
0.86616
0.873676
0.881202
0.888743
0.896298
0.90387
0.91146
0.919068
0.926696
0.934342
0.942008
0.949693
0.957396
0.965116
0.972851
0.9806
0.988357
0.996116
0.00708751
0.0212632
0.0354406
0.0496187
0.0637949
0.0779653
0.0921249
0.106268
0.120388
0.134476
0.148527
0.162531
0.176481
0.190367
0.204182
0.217917
0.231564
0.245115
0.258563
0.2719
0.28512
0.298216
0.311182
0.324014
0.336706
0.349254
0.361654
0.373903
0.385999
0.397939
0.409721
0.421346
0.432811
0.444118
0.455265
0.466254
0.477087
0.487764
0.498288
0.50866
0.518883
0.52896
0.538894
0.548688
0.558346
0.567871
0.577267
0.586538
0.595688
0.604721
0.613641
0.622454
0.631162
0.639772
0.648287
0.656711
0.66505
0.673309
0.68149
0.689599
0.697641
0.70562
0.713539
0.721405
0.729219
0.736988
0.744714
0.752402
0.760056
0.767679
0.775276
0.78285
0.790404
0.797941
0.805467
0.812982
0.820491
0.827996
0.835501
0.843008
0.850519
0.858037
0.865565
0.873104
0.880656
0.888223
0.895807
0.903409
0.911029
0.91867
0.92633
0.934012
0.941714
0.949435
0.957176
0.964935
0.97271
0.980498
0.988295
0.996096
0.00707981
0.0212403
0.0354029
0.0495668
0.0637295
0.0778873
0.0920353
0.106167
0.120277
0.134357
0.148399
0.162396
0.176338
0.190218
0.204026
0.217755
0.231395
0.24494
0.258381
0.271712
0.284924
0.298012
0.31097
0.323793
0.336474
0.349011
0.3614
0.373636
0.385718
0.397644
0.409411
0.421019
0.432467
0.443755
0.454883
0.465853
0.476665
0.487321
0.497823
0.508173
0.518374
0.528428
0.53834
0.548111
0.557745
0.567247
0.57662
0.585868
0.594996
0.604007
0.612906
0.621698
0.630386
0.638977
0.647473
0.655881
0.664204
0.672447
0.680614
0.688711
0.696742
0.704711
0.712623
0.720481
0.728291
0.736056
0.743781
0.75147
0.759126
0.766753
0.774356
0.781937
0.789501
0.79705
0.804589
0.812119
0.819646
0.82717
0.834696
0.842225
0.849761
0.857305
0.864861
0.872429
0.880013
0.887613
0.895231
0.902869
0.910527
0.918206
0.925906
0.933628
0.941372
0.949137
0.956922
0.964726
0.972546
0.980381
0.988225
0.996072
0.00706934
0.021209
0.0353511
0.0494952
0.0636387
0.077778
0.0919083
0.106024
0.120117
0.134182
0.14821
0.162192
0.176121
0.189988
0.203784
0.2175
0.231129
0.244662
0.25809
0.271408
0.284608
0.297683
0.310627
0.323435
0.336102
0.348623
0.360995
0.373214
0.385278
0.397185
0.408933
0.420521
0.431948
0.443214
0.454321
0.465268
0.476056
0.486689
0.497166
0.507492
0.517668
0.527698
0.537584
0.54733
0.55694
0.566418
0.575767
0.584991
0.594096
0.603084
0.611962
0.620732
0.629401
0.637972
0.646451
0.654841
0.663149
0.671378
0.679533
0.687619
0.69564
0.703601
0.711507
0.719361
0.727169
0.734934
0.74266
0.750352
0.758014
0.765649
0.773261
0.780854
0.788431
0.795997
0.803553
0.811104
0.818653
0.826201
0.833753
0.841311
0.848877
0.856454
0.864043
0.871648
0.879269
0.886908
0.894567
0.902247
0.909949
0.917673
0.92542
0.93319
0.940983
0.948797
0.956633
0.964488
0.972361
0.980248
0.988145
0.996046
0.00705592
0.0211688
0.0352845
0.0494026
0.0635208
0.0776354
0.0917418
0.105834
0.119905
0.133948
0.147955
0.161917
0.175826
0.189674
0.203451
0.217148
0.230759
0.244273
0.257683
0.270982
0.284163
0.297219
0.310144
0.322932
0.335579
0.348079
0.36043
0.372628
0.384669
0.396553
0.408277
0.419841
0.431243
0.442485
0.453565
0.464486
0.475249
0.485855
0.496306
0.506604
0.516754
0.526757
0.536616
0.546336
0.55592
0.565372
0.574696
0.583896
0.592976
0.601942
0.610797
0.619547
0.628195
0.636748
0.645209
0.653583
0.661876
0.670092
0.678236
0.686312
0.694326
0.702281
0.710183
0.718036
0.725843
0.733611
0.741342
0.749041
0.756711
0.764358
0.771984
0.779593
0.787189
0.794775
0.802355
0.809931
0.817507
0.825086
0.83267
0.840262
0.847864
0.855479
0.863109
0.870755
0.878421
0.886106
0.893812
0.901541
0.909294
0.91707
0.92487
0.932695
0.940543
0.948414
0.956307
0.964221
0.972152
0.980099
0.988055
0.996016
0.00703939
0.0211193
0.0352024
0.0492881
0.0633745
0.077458
0.0915338
0.105596
0.119638
0.133653
0.147632
0.161567
0.17545
0.189271
0.203022
0.216695
0.23028
0.243769
0.257154
0.270429
0.283585
0.296616
0.309515
0.322278
0.334899
0.347374
0.359698
0.371869
0.383883
0.395739
0.407436
0.418971
0.430345
0.441557
0.452609
0.463501
0.474234
0.48481
0.495232
0.505501
0.515621
0.525595
0.535426
0.545118
0.554674
0.564099
0.573397
0.582572
0.591628
0.60057
0.609403
0.618131
0.62676
0.635294
0.643738
0.652097
0.660377
0.668581
0.676715
0.684784
0.692792
0.700743
0.708644
0.716497
0.724308
0.732081
0.73982
0.74753
0.755213
0.762875
0.770519
0.778149
0.785768
0.79338
0.800988
0.808595
0.816204
0.823818
0.83144
0.839072
0.846717
0.854377
0.862054
0.869749
0.877465
0.885203
0.892964
0.900749
0.908559
0.916394
0.924255
0.932141
0.940052
0.947987
0.955944
0.963923
0.97192
0.979933
0.987956
0.995982
0.00701966
0.0210602
0.0351041
0.049151
0.063199
0.0772447
0.0912832
0.105309
0.119315
0.133294
0.147239
0.161139
0.174988
0.188777
0.202495
0.216135
0.229688
0.243146
0.2565
0.269743
0.282868
0.295868
0.308736
0.321468
0.334057
0.3465
0.358793
0.370931
0.382914
0.394738
0.406402
0.417905
0.429246
0.440426
0.451445
0.462304
0.473004
0.483548
0.493937
0.504175
0.514264
0.524207
0.534007
0.543669
0.553197
0.562594
0.571864
0.581012
0.590044
0.598962
0.607772
0.616479
0.625089
0.633605
0.642033
0.650378
0.658645
0.666839
0.674965
0.683027
0.691031
0.698982
0.706884
0.714741
0.722558
0.73034
0.738091
0.745814
0.753515
0.761197
0.768863
0.776518
0.784165
0.791808
0.799449
0.807092
0.81474
0.822396
0.830062
0.837741
0.845434
0.853145
0.860876
0.868627
0.876401
0.884198
0.892021
0.899869
0.907744
0.915645
0.923573
0.931528
0.939509
0.947514
0.955543
0.963593
0.971663
0.979749
0.987846
0.995946
0.00699665
0.0209913
0.0349893
0.0489908
0.0629936
0.0769945
0.0909889
0.104971
0.118934
0.132871
0.146773
0.160633
0.174441
0.188189
0.201868
0.215469
0.228983
0.242402
0.255718
0.268923
0.28201
0.294972
0.307803
0.320497
0.33305
0.345455
0.357711
0.369812
0.381758
0.393545
0.405171
0.416637
0.427942
0.439085
0.450067
0.46089
0.471555
0.482063
0.492418
0.502621
0.512676
0.522586
0.532354
0.541985
0.551482
0.560849
0.570091
0.579213
0.588218
0.597113
0.6059
0.614587
0.623176
0.631675
0.640088
0.64842
0.656676
0.664861
0.67298
0.681039
0.689041
0.696993
0.704899
0.712762
0.720589
0.728383
0.736149
0.743891
0.751612
0.759318
0.767012
0.774697
0.782377
0.790055
0.797735
0.80542
0.813113
0.820816
0.828532
0.836264
0.844013
0.851782
0.859573
0.867387
0.875225
0.883089
0.890981
0.898899
0.906846
0.914821
0.922824
0.930854
0.938912
0.946995
0.955103
0.963233
0.971382
0.979548
0.987725
0.995905
0.00697029
0.0209122
0.0348578
0.0488069
0.0627578
0.0767071
0.0906503
0.104582
0.118495
0.132382
0.146235
0.160046
0.173806
0.187507
0.201139
0.214693
0.228162
0.241535
0.254806
0.267967
0.281009
0.293927
0.306715
0.319365
0.331874
0.344237
0.356449
0.368509
0.380412
0.392157
0.403742
0.415166
0.42643
0.437532
0.448475
0.459258
0.469883
0.480353
0.49067
0.500836
0.510855
0.520729
0.530464
0.540061
0.549526
0.558863
0.568076
0.57717
0.586149
0.595019
0.603784
0.612449
0.62102
0.629502
0.6379
0.64622
0.654466
0.662644
0.670759
0.678815
0.686819
0.694774
0.702686
0.710559
0.718399
0.726208
0.733993
0.741757
0.749504
0.757238
0.764963
0.772683
0.780401
0.788121
0.795846
0.803578
0.811322
0.819078
0.826851
0.834642
0.842453
0.850287
0.858145
0.866028
0.873938
0.881876
0.889843
0.897839
0.905865
0.913921
0.922006
0.93012
0.938262
0.946431
0.954624
0.96284
0.971077
0.97933
0.987594
0.995862
0.00694057
0.0208231
0.0347094
0.0485994
0.0624913
0.076382
0.090267
0.104141
0.117996
0.131826
0.145623
0.159379
0.173084
0.18673
0.200308
0.213809
0.227224
0.240545
0.253764
0.266873
0.279865
0.292732
0.305469
0.31807
0.33053
0.342844
0.355008
0.367019
0.378875
0.390573
0.402111
0.41349
0.424708
0.435766
0.446664
0.457404
0.467987
0.478416
0.488692
0.498818
0.508798
0.518636
0.528334
0.537896
0.547328
0.556633
0.565816
0.574881
0.583834
0.592679
0.601421
0.610066
0.618618
0.627084
0.635469
0.643777
0.652015
0.660187
0.668299
0.676356
0.684362
0.692324
0.700245
0.708131
0.715986
0.723815
0.731622
0.739412
0.747188
0.754955
0.762717
0.770477
0.778238
0.786004
0.793779
0.801565
0.809365
0.817181
0.825017
0.832873
0.840753
0.848658
0.85659
0.86455
0.872539
0.880558
0.888608
0.896689
0.904802
0.912946
0.92112
0.929325
0.937558
0.945819
0.954106
0.962416
0.970746
0.979094
0.987452
0.995814
0.00690747
0.0207239
0.034544
0.048368
0.0621942
0.0760194
0.0898391
0.103648
0.117439
0.131205
0.144939
0.158631
0.172274
0.185858
0.199374
0.212814
0.22617
0.239431
0.252591
0.265642
0.278576
0.291386
0.304067
0.316612
0.329016
0.341276
0.353386
0.365344
0.377147
0.388793
0.40028
0.411608
0.422777
0.433786
0.444637
0.45533
0.465867
0.476251
0.486483
0.496567
0.506506
0.516304
0.525964
0.53549
0.544887
0.554159
0.563311
0.572347
0.581272
0.590092
0.598812
0.607436
0.615971
0.624421
0.632793
0.641091
0.649322
0.65749
0.665601
0.67366
0.681672
0.689642
0.697575
0.705477
0.713351
0.721203
0.729036
0.736856
0.744666
0.75247
0.760273
0.768077
0.775887
0.783705
0.791536
0.79938
0.807243
0.815125
0.823029
0.830958
0.838913
0.846897
0.854909
0.862953
0.871028
0.879135
0.887275
0.895449
0.903655
0.911894
0.920166
0.928468
0.936801
0.945162
0.953549
0.961959
0.970391
0.97884
0.9873
0.995764
0.00687101
0.0206145
0.0343618
0.048113
0.0618665
0.0756192
0.0893667
0.103103
0.116823
0.130518
0.144181
0.157803
0.171376
0.184891
0.198339
0.211711
0.224999
0.238195
0.251289
0.264275
0.277144
0.289891
0.302509
0.314992
0.327335
0.339534
0.351585
0.363484
0.375229
0.386818
0.398249
0.409523
0.420637
0.431594
0.442392
0.453035
0.463523
0.473859
0.484045
0.494084
0.50398
0.513736
0.523356
0.532844
0.542205
0.551442
0.560562
0.569568
0.578466
0.587261
0.595957
0.604561
0.613078
0.621514
0.629874
0.638164
0.646389
0.654554
0.662666
0.670729
0.678749
0.68673
0.694678
0.702599
0.710495
0.718373
0.726237
0.73409
0.741938
0.749784
0.757633
0.765486
0.77335
0.781225
0.789116
0.797026
0.804956
0.812911
0.82089
0.828898
0.836935
0.845003
0.853103
0.861237
0.869405
0.877607
0.885845
0.894118
0.902426
0.910768
0.919143
0.927551
0.93599
0.944458
0.952952
0.961471
0.970011
0.978568
0.987137
0.995709
0.00683121
0.0204951
0.0341628
0.0478345
0.0615086
0.0751819
0.0888503
0.102508
0.116149
0.129766
0.143351
0.156896
0.170392
0.183831
0.197203
0.210501
0.223715
0.236837
0.249859
0.262772
0.275571
0.288248
0.300797
0.313211
0.325487
0.33762
0.349606
0.361441
0.373123
0.38465
0.396021
0.407235
0.418291
0.429191
0.439934
0.450523
0.460958
0.471243
0.48138
0.491371
0.501222
0.510934
0.520512
0.52996
0.539283
0.548485
0.557571
0.566547
0.575417
0.584186
0.59286
0.601444
0.609944
0.618365
0.626714
0.634996
0.643217
0.651381
0.659496
0.667565
0.675595
0.68359
0.691556
0.699498
0.70742
0.715328
0.723225
0.731117
0.739007
0.746899
0.754797
0.762706
0.770627
0.778565
0.786523
0.794503
0.802507
0.810539
0.818601
0.826693
0.834818
0.842978
0.851173
0.859404
0.867671
0.875976
0.884319
0.892698
0.901114
0.909566
0.918053
0.926574
0.935126
0.943708
0.952317
0.960951
0.969606
0.978279
0.986963
0.995652
0.00678812
0.0203658
0.0339473
0.0475328
0.0611207
0.074708
0.0882904
0.101863
0.115418
0.12895
0.14245
0.155911
0.169323
0.182679
0.195969
0.209185
0.222318
0.235359
0.248302
0.261137
0.273859
0.286459
0.298933
0.311273
0.323476
0.335537
0.347452
0.359218
0.370832
0.382292
0.393597
0.404747
0.415741
0.42658
0.437264
0.447795
0.458175
0.468406
0.47849
0.488432
0.498234
0.5079
0.517434
0.526841
0.536125
0.54529
0.554343
0.563287
0.572128
0.580871
0.589522
0.598086
0.60657
0.614978
0.623317
0.631592
0.63981
0.647975
0.656094
0.664172
0.672214
0.680225
0.688212
0.696178
0.704129
0.71207
0.720005
0.727938
0.735874
0.743816
0.75177
0.759737
0.767722
0.775728
0.783757
0.791813
0.799898
0.808014
0.816162
0.824346
0.832566
0.840824
0.849119
0.857454
0.865829
0.874243
0.882697
0.89119
0.899722
0.908291
0.916896
0.925536
0.934209
0.942912
0.951644
0.9604
0.969177
0.977973
0.98678
0.99559
0.00674178
0.0202268
0.0337156
0.0472084
0.0607035
0.0741981
0.0876879
0.101168
0.114631
0.128071
0.141479
0.154849
0.168171
0.181437
0.194637
0.207765
0.22081
0.233765
0.246622
0.259372
0.27201
0.284528
0.29692
0.30918
0.321304
0.333288
0.345126
0.356818
0.368358
0.379747
0.390983
0.402064
0.412992
0.423766
0.434387
0.444857
0.455178
0.465351
0.475381
0.48527
0.495022
0.504639
0.514128
0.523492
0.532735
0.541863
0.55088
0.559792
0.568604
0.577321
0.585949
0.594494
0.602961
0.611356
0.619686
0.627956
0.636172
0.644339
0.652464
0.660552
0.668609
0.676639
0.684649
0.692643
0.700626
0.708603
0.716579
0.724557
0.732543
0.740541
0.748553
0.756584
0.764638
0.772716
0.780823
0.78896
0.79713
0.805336
0.813578
0.821859
0.83018
0.838542
0.846945
0.855391
0.863879
0.872409
0.880981
0.889595
0.898249
0.906942
0.915673
0.92444
0.93324
0.942072
0.950932
0.959817
0.968724
0.977649
0.986585
0.995526
0.00669228
0.0200783
0.033468
0.0468616
0.0602576
0.073653
0.0870437
0.100424
0.113789
0.12713
0.14044
0.153712
0.166937
0.180106
0.193211
0.206243
0.219194
0.232056
0.24482
0.25748
0.270028
0.282457
0.294762
0.306936
0.318976
0.330876
0.342634
0.354245
0.365708
0.37702
0.388181
0.39919
0.410047
0.420752
0.431307
0.441712
0.451971
0.462085
0.472057
0.48189
0.491589
0.501157
0.510598
0.519917
0.529118
0.538207
0.547188
0.556067
0.564849
0.57354
0.582145
0.590671
0.599122
0.607505
0.615827
0.624092
0.632308
0.640479
0.648612
0.656712
0.664785
0.672837
0.680872
0.688896
0.696914
0.704931
0.712951
0.720979
0.729019
0.737076
0.745152
0.753251
0.761377
0.769534
0.777722
0.785946
0.794207
0.802508
0.81085
0.819234
0.827662
0.836135
0.844652
0.853215
0.861823
0.870476
0.879174
0.887915
0.896698
0.905522
0.914386
0.923286
0.932221
0.941188
0.950183
0.959205
0.968248
0.977309
0.986381
0.995458
0.00663967
0.0199205
0.0332049
0.0464931
0.0597837
0.0730736
0.0863587
0.099634
0.112893
0.126129
0.139335
0.152503
0.165624
0.17869
0.191692
0.204623
0.217473
0.230236
0.242901
0.255464
0.267916
0.28025
0.292462
0.304545
0.316495
0.328307
0.339977
0.351504
0.362884
0.374116
0.385198
0.39613
0.406912
0.417545
0.428029
0.438367
0.44856
0.458611
0.468523
0.478298
0.487942
0.497458
0.506849
0.516122
0.52528
0.534329
0.543273
0.552118
0.560871
0.569535
0.578117
0.586623
0.595059
0.60343
0.611744
0.620007
0.628223
0.636399
0.644542
0.652656
0.660748
0.668823
0.676887
0.684944
0.693
0.70106
0.709128
0.717208
0.725306
0.733425
0.741569
0.749741
0.757945
0.766184
0.77446
0.782776
0.791133
0.799535
0.807982
0.816475
0.825016
0.833605
0.842243
0.850929
0.859664
0.868446
0.877276
0.886151
0.89507
0.904032
0.913034
0.922075
0.931151
0.94026
0.949398
0.958562
0.967748
0.976952
0.986167
0.995386
0.00658406
0.0197536
0.0329267
0.0461035
0.0592825
0.0724608
0.0856343
0.0987979
0.111946
0.125071
0.138165
0.151222
0.164233
0.17719
0.190084
0.202907
0.215651
0.228307
0.240868
0.253328
0.265678
0.277912
0.290025
0.302011
0.313865
0.325584
0.337163
0.3486
0.359893
0.371039
0.382038
0.392889
0.403593
0.414149
0.42456
0.434827
0.444951
0.454936
0.464785
0.474501
0.484087
0.493548
0.502889
0.512114
0.521227
0.530234
0.539141
0.547952
0.556674
0.565311
0.57387
0.582357
0.590778
0.599138
0.607446
0.615705
0.623924
0.632107
0.640261
0.648391
0.656504
0.664604
0.672699
0.680791
0.688888
0.696994
0.705113
0.71325
0.721409
0.729595
0.737811
0.74606
0.754346
0.762672
0.77104
0.779452
0.787911
0.796419
0.804977
0.813585
0.822245
0.830957
0.839721
0.848536
0.857404
0.866322
0.875289
0.884305
0.893367
0.902473
0.911621
0.920809
0.930033
0.93929
0.948577
0.95789
0.967226
0.976579
0.985943
0.995312
0.00652553
0.019578
0.0326339
0.0456934
0.0587549
0.0718156
0.0848716
0.0979176
0.110948
0.123955
0.136933
0.149874
0.162769
0.17561
0.188389
0.201098
0.213729
0.226274
0.238725
0.251075
0.263318
0.275446
0.287455
0.299339
0.311093
0.322713
0.334195
0.345538
0.356739
0.367795
0.378707
0.389473
0.400095
0.410572
0.420905
0.431098
0.441151
0.451067
0.46085
0.470504
0.480031
0.489436
0.498724
0.507899
0.516966
0.525931
0.534799
0.543575
0.552265
0.560876
0.569412
0.577879
0.586285
0.594636
0.602937
0.611195
0.619417
0.627608
0.635774
0.643923
0.652058
0.660187
0.668314
0.676445
0.684585
0.692739
0.700913
0.709109
0.717334
0.72559
0.733881
0.742212
0.750584
0.759001
0.767466
0.77598
0.784546
0.793165
0.801838
0.810567
0.819351
0.828192
0.837088
0.846039
0.855045
0.864105
0.873217
0.882379
0.89159
0.900847
0.910147
0.919488
0.928866
0.938278
0.947721
0.95719
0.966681
0.97619
0.98571
0.995234
0.00646419
0.0193939
0.032327
0.0452635
0.0582019
0.0711394
0.0840719
0.0969946
0.109901
0.122786
0.135641
0.148459
0.161232
0.173952
0.186611
0.1992
0.211713
0.22414
0.236476
0.248711
0.260841
0.272858
0.284757
0.296533
0.308182
0.319699
0.33108
0.342324
0.353428
0.364391
0.375212
0.385889
0.396425
0.406818
0.417072
0.427187
0.437165
0.447011
0.456726
0.466314
0.47578
0.485127
0.49436
0.503484
0.512505
0.521426
0.530254
0.538995
0.547653
0.556236
0.564749
0.573198
0.58159
0.58993
0.598226
0.606484
0.61471
0.62291
0.631091
0.639258
0.647418
0.655576
0.663739
0.67191
0.680097
0.688303
0.696533
0.704793
0.713086
0.721416
0.729787
0.738202
0.746665
0.755178
0.763744
0.772365
0.781042
0.789777
0.798571
0.807425
0.81634
0.825314
0.834348
0.843441
0.852592
0.861799
0.871061
0.880377
0.889742
0.899156
0.908614
0.918115
0.927653
0.937227
0.946831
0.956462
0.966115
0.975785
0.985467
0.995153
0.00640013
0.0192017
0.0320066
0.0448146
0.0576244
0.0704331
0.0832368
0.0960305
0.108808
0.121564
0.134291
0.146981
0.159626
0.172219
0.184752
0.197217
0.209605
0.22191
0.234124
0.24624
0.258251
0.270152
0.281937
0.293601
0.305139
0.316548
0.327824
0.338964
0.349968
0.360833
0.371558
0.382143
0.392589
0.402896
0.413066
0.423101
0.433003
0.442774
0.452419
0.46194
0.471342
0.48063
0.489807
0.498879
0.50785
0.516727
0.525515
0.534219
0.542846
0.551401
0.55989
0.568321
0.576698
0.585029
0.59332
0.601578
0.609809
0.61802
0.626216
0.634405
0.642591
0.650781
0.658981
0.667195
0.67543
0.683691
0.691981
0.700307
0.708671
0.717078
0.725532
0.734036
0.742594
0.751207
0.759878
0.76861
0.777403
0.786259
0.79518
0.804164
0.813214
0.822327
0.831504
0.840744
0.850045
0.859406
0.868825
0.878299
0.887825
0.897401
0.907024
0.91669
0.926395
0.936136
0.945908
0.955706
0.965527
0.975366
0.985216
0.995069
0.00633348
0.0190017
0.0316731
0.0443474
0.0570234
0.069698
0.0823675
0.095027
0.107671
0.120293
0.132885
0.145442
0.157954
0.170415
0.182817
0.195151
0.20741
0.219587
0.231674
0.243665
0.255553
0.267333
0.278999
0.290545
0.301969
0.313265
0.324431
0.335465
0.346364
0.357127
0.367753
0.378242
0.388595
0.398813
0.408896
0.418848
0.42867
0.438365
0.447937
0.457389
0.466726
0.475952
0.485071
0.494089
0.503011
0.511843
0.520589
0.529256
0.53785
0.546377
0.554844
0.563255
0.571619
0.579941
0.588228
0.596487
0.604724
0.612946
0.62116
0.62937
0.637585
0.645808
0.654047
0.662307
0.670593
0.67891
0.687263
0.695657
0.704096
0.712584
0.721125
0.729721
0.738377
0.747094
0.755875
0.764721
0.773635
0.782617
0.791668
0.800788
0.809977
0.819235
0.82856
0.837953
0.847409
0.856929
0.86651
0.876148
0.885841
0.895586
0.905379
0.915216
0.925094
0.935007
0.944953
0.954925
0.96492
0.974932
0.984955
0.994983
0.00626434
0.0187943
0.0313271
0.0438629
0.0563999
0.0689355
0.0814658
0.093986
0.10649
0.118973
0.131427
0.143845
0.156219
0.168543
0.180808
0.193006
0.205131
0.217175
0.229131
0.240992
0.252753
0.264407
0.275948
0.287373
0.298678
0.309857
0.320909
0.331832
0.342622
0.35328
0.363803
0.374194
0.384451
0.394575
0.40457
0.414435
0.424175
0.433792
0.443289
0.45267
0.461939
0.471102
0.480162
0.489125
0.497996
0.506781
0.515485
0.524115
0.532676
0.541175
0.549617
0.55801
0.56636
0.574673
0.582957
0.591218
0.599462
0.607697
0.615928
0.624163
0.632407
0.640666
0.648946
0.657252
0.665591
0.673968
0.682386
0.690852
0.699368
0.707939
0.71657
0.725262
0.734019
0.742844
0.751738
0.760704
0.769742
0.778854
0.78804
0.7973
0.806634
0.816041
0.82552
0.83507
0.844688
0.854372
0.864119
0.873927
0.883792
0.893711
0.90368
0.913694
0.92375
0.933842
0.943966
0.954118
0.964292
0.974484
0.984687
0.994893
0.00619283
0.0185797
0.0309694
0.0433617
0.0557551
0.0681468
0.0805331
0.0929092
0.10527
0.117608
0.129918
0.142193
0.154424
0.166606
0.178729
0.190788
0.202774
0.21468
0.2265
0.238227
0.249854
0.261378
0.272791
0.28409
0.295271
0.30633
0.317265
0.328072
0.33875
0.349299
0.359717
0.370004
0.380162
0.390191
0.400094
0.409871
0.419526
0.429062
0.438482
0.44779
0.456991
0.466088