/*--------------------------------*- C++ -*----------------------------------*\
  =========                 |
  \\      /  F ield         | OpenFOAM: The Open Source CFD Toolbox
   \\    /   O peration     | Website:  https://openfoam.org
    \\  /    A nd           | Version:  6
     \\/     M anipulation  |
\*---------------------------------------------------------------------------*/
FoamFile
{
    version     2.0;
    format      ascii;
    class       volScalarField;
    location    "0";
    object      Tlift1;
}
// * * * * * * * * * * * * * * * * * * * * * * * * * * * * * * * * * * * * * //

dimensions      [0 0 0 1 0 0 0];

internalField   nonuniform List<scalar> 
22000
(
0.00442481
0.0132748
0.0221262
0.0309796
0.0398361
0.0486964
0.0575616
0.0664325
0.0753102
0.0841955
0.0930895
0.101993
0.110908
0.119834
0.128774
0.137727
0.146695
0.155679
0.16468
0.173699
0.182738
0.191796
0.200875
0.209977
0.219102
0.22825
0.237424
0.246623
0.255849
0.265102
0.274384
0.283694
0.293035
0.302406
0.311809
0.321244
0.330711
0.340212
0.349747
0.359316
0.368921
0.37856
0.388236
0.397948
0.407697
0.417483
0.427307
0.437168
0.447067
0.457004
0.466979
0.476993
0.487045
0.497135
0.507264
0.517431
0.527636
0.537878
0.548159
0.558477
0.568833
0.579225
0.589654
0.60012
0.610621
0.621157
0.631728
0.642334
0.652972
0.663644
0.674347
0.685082
0.695847
0.706643
0.717467
0.728319
0.739199
0.750105
0.761035
0.77199
0.782968
0.793968
0.804989
0.816029
0.827088
0.838165
0.849258
0.860365
0.871487
0.882622
0.893768
0.904924
0.916089
0.927262
0.938442
0.949627
0.960817
0.97201
0.983205
0.994402
0.00442439
0.0132736
0.0221241
0.0309767
0.0398323
0.0486917
0.057556
0.066426
0.0753027
0.0841871
0.0930801
0.101983
0.110897
0.119822
0.12876
0.137712
0.146679
0.155663
0.164663
0.173681
0.182718
0.191776
0.200854
0.209955
0.219079
0.228226
0.237399
0.246597
0.255823
0.265075
0.274356
0.283666
0.293006
0.302376
0.311778
0.321212
0.330679
0.34018
0.349714
0.359283
0.368887
0.378526
0.388201
0.397913
0.407662
0.417448
0.427271
0.437132
0.447031
0.456968
0.466943
0.476956
0.487008
0.497098
0.507227
0.517394
0.527599
0.537842
0.548123
0.558441
0.568797
0.57919
0.58962
0.600085
0.610587
0.621124
0.631696
0.642301
0.652941
0.663613
0.674317
0.685052
0.695819
0.706615
0.71744
0.728293
0.739174
0.75008
0.761012
0.771967
0.782946
0.793947
0.804969
0.816011
0.827071
0.838149
0.849242
0.860351
0.871474
0.88261
0.893757
0.904914
0.916081
0.927255
0.938436
0.949622
0.960813
0.972007
0.983203
0.994401
0.00442355
0.0132711
0.0221198
0.0309707
0.0398246
0.0486823
0.0575447
0.0664129
0.0752877
0.0841702
0.0930614
0.101962
0.110874
0.119797
0.128734
0.137684
0.146649
0.15563
0.164629
0.173645
0.18268
0.191736
0.200813
0.209912
0.219034
0.22818
0.237351
0.246547
0.255771
0.265022
0.274301
0.28361
0.292948
0.302318
0.311718
0.321151
0.330617
0.340116
0.349649
0.359217
0.36882
0.378459
0.388133
0.397845
0.407592
0.417378
0.4272
0.437061
0.446959
0.456896
0.466871
0.476885
0.486936
0.497027
0.507155
0.517322
0.527528
0.537771
0.548053
0.558372
0.568728
0.579122
0.589552
0.600019
0.610521
0.621059
0.631632
0.642239
0.652879
0.663552
0.674258
0.684995
0.695763
0.706561
0.717387
0.728242
0.739124
0.750033
0.760966
0.771924
0.782905
0.793908
0.804932
0.815976
0.827038
0.838117
0.849213
0.860325
0.87145
0.882587
0.893737
0.904896
0.916065
0.927241
0.938424
0.949613
0.960806
0.972002
0.9832
0.9944
0.00442229
0.0132673
0.0221135
0.0309618
0.0398131
0.0486681
0.0575279
0.0663934
0.0752655
0.0841452
0.0930336
0.101932
0.110841
0.119761
0.128695
0.137642
0.146604
0.155583
0.164578
0.173592
0.182625
0.191678
0.200752
0.209848
0.218968
0.228111
0.23728
0.246474
0.255695
0.264944
0.274221
0.283528
0.292864
0.302232
0.311631
0.321062
0.330526
0.340023
0.349555
0.359121
0.368723
0.378361
0.388034
0.397744
0.407491
0.417276
0.427098
0.436958
0.446856
0.456792
0.466767
0.47678
0.486832
0.496922
0.507051
0.517218
0.527424
0.537668
0.54795
0.55827
0.568627
0.579022
0.589453
0.599921
0.610425
0.620964
0.631538
0.642147
0.652789
0.663464
0.674172
0.684911
0.695681
0.706481
0.71731
0.728167
0.739052
0.749963
0.760899
0.77186
0.782844
0.79385
0.804876
0.815923
0.826988
0.838071
0.84917
0.860285
0.871413
0.882554
0.893706
0.904869
0.916041
0.92722
0.938407
0.949598
0.960794
0.971994
0.983195
0.994398
0.00442063
0.0132623
0.0221051
0.03095
0.0397979
0.0486494
0.0575057
0.0663676
0.0752361
0.0841123
0.092997
0.101892
0.110797
0.119714
0.128644
0.137587
0.146546
0.155521
0.164513
0.173523
0.182552
0.191602
0.200673
0.209766
0.218882
0.228022
0.237187
0.246379
0.255597
0.264843
0.274117
0.283421
0.292755
0.30212
0.311516
0.320945
0.330407
0.339903
0.349433
0.358997
0.368597
0.378233
0.387905
0.397614
0.40736
0.417143
0.426964
0.436823
0.446721
0.456657
0.466631
0.476644
0.486696
0.496786
0.506915
0.517083
0.527289
0.537534
0.547817
0.558138
0.568496
0.578892
0.589325
0.599794
0.6103
0.620841
0.631417
0.642028
0.652672
0.66335
0.67406
0.684802
0.695575
0.706378
0.71721
0.72807
0.738958
0.749873
0.760812
0.771776
0.782764
0.793774
0.804804
0.815855
0.826924
0.838011
0.849114
0.860233
0.871365
0.88251
0.893667
0.904834
0.91601
0.927193
0.938384
0.94958
0.96078
0.971983
0.983189
0.994396
0.00441843
0.0132557
0.0220941
0.0309346
0.0397779
0.0486249
0.0574766
0.0663339
0.0751978
0.0840693
0.0929493
0.101839
0.11074
0.119652
0.128577
0.137516
0.14647
0.15544
0.164428
0.173433
0.182458
0.191503
0.20057
0.209658
0.21877
0.227907
0.237068
0.246255
0.25547
0.264712
0.273983
0.283283
0.292614
0.301976
0.311369
0.320795
0.330254
0.339747
0.349275
0.358837
0.368435
0.378069
0.387739
0.397446
0.40719
0.416972
0.426792
0.436651
0.446547
0.456482
0.466456
0.476469
0.486521
0.496611
0.506741
0.516909
0.527116
0.537362
0.547646
0.557968
0.568328
0.578725
0.58916
0.599632
0.610139
0.620683
0.631262
0.641875
0.652523
0.663203
0.673917
0.684662
0.695439
0.706245
0.717081
0.727946
0.738838
0.749756
0.760701
0.771669
0.782661
0.793676
0.804712
0.815767
0.826842
0.837934
0.849042
0.860166
0.871303
0.882454
0.893616
0.904788
0.91597
0.927159
0.938354
0.949556
0.960761
0.97197
0.983181
0.994394
0.00441563
0.0132473
0.0220801
0.0309148
0.0397524
0.0485937
0.0574396
0.066291
0.075149
0.0840146
0.0928887
0.101773
0.110667
0.119573
0.128493
0.137426
0.146374
0.155339
0.16432
0.17332
0.182339
0.191379
0.20044
0.209523
0.21863
0.227761
0.236918
0.2461
0.25531
0.264548
0.273814
0.28311
0.292437
0.301794
0.311184
0.320607
0.330062
0.339552
0.349076
0.358636
0.368231
0.377862
0.38753
0.397235
0.406978
0.416758
0.426577
0.436434
0.446329
0.456264
0.466237
0.47625
0.486301
0.496392
0.506522
0.516691
0.526899
0.537146
0.547431
0.557755
0.568117
0.578516
0.588953
0.599428
0.609938
0.620485
0.631067
0.641684
0.652335
0.66302
0.673737
0.684487
0.695268
0.706079
0.71692
0.72779
0.738687
0.749611
0.760561
0.771535
0.782533
0.793554
0.804595
0.815657
0.826738
0.837837
0.848952
0.860082
0.871226
0.882383
0.893552
0.904731
0.915919
0.927115
0.938318
0.949526
0.960738
0.971954
0.983172
0.994391
0.00441235
0.0132374
0.0220636
0.0308917
0.0397226
0.0485572
0.0573964
0.066241
0.0750922
0.083951
0.0928183
0.101695
0.110583
0.119483
0.128395
0.137321
0.146263
0.155221
0.164196
0.173189
0.182202
0.191235
0.20029
0.209368
0.218468
0.227594
0.236744
0.245921
0.255126
0.264358
0.273619
0.282911
0.292233
0.301586
0.310971
0.320389
0.329841
0.339327
0.348848
0.358404
0.367996
0.377625
0.38729
0.396993
0.406733
0.416512
0.426329
0.436184
0.446079
0.456012
0.465985
0.475997
0.486049
0.49614
0.50627
0.51644
0.526649
0.536897
0.547184
0.55751
0.567874
0.578276
0.588716
0.599193
0.609707
0.620257
0.630842
0.641463
0.652119
0.662808
0.67353
0.684285
0.695071
0.705888
0.716734
0.72761
0.738513
0.749443
0.760399
0.77138
0.782385
0.793412
0.804461
0.81553
0.826618
0.837724
0.848847
0.859984
0.871136
0.882301
0.893478
0.904665
0.915861
0.927064
0.938275
0.94949
0.960711
0.971934
0.98316
0.994387
0.0044086
0.0132262
0.0220448
0.0308654
0.0396887
0.0485157
0.0573472
0.0661842
0.0750277
0.0838787
0.0927383
0.101608
0.110488
0.11938
0.128284
0.137203
0.146137
0.155088
0.164055
0.173041
0.182047
0.191073
0.200121
0.209192
0.218286
0.227405
0.236549
0.24572
0.254918
0.264144
0.2734
0.282686
0.292002
0.301351
0.310731
0.320145
0.329592
0.339074
0.348591
0.358143
0.367732
0.377357
0.38702
0.39672
0.406458
0.416235
0.42605
0.435904
0.445797
0.45573
0.465702
0.475714
0.485765
0.495856
0.505987
0.516158
0.526368
0.536618
0.546907
0.557234
0.567601
0.578006
0.588449
0.598929
0.609446
0.62
0.63059
0.641215
0.651876
0.66257
0.673298
0.684058
0.69485
0.705672
0.716525
0.727407
0.738317
0.749254
0.760218
0.771206
0.782218
0.793253
0.80431
0.815387
0.826483
0.837597
0.848728
0.859875
0.871035
0.882209
0.893394
0.90459
0.915794
0.927007
0.938226
0.949451
0.96068
0.971912
0.983147
0.994382
0.0044044
0.0132136
0.0220238
0.030836
0.0396508
0.0484692
0.0572922
0.0661206
0.0749556
0.083798
0.0926491
0.10151
0.110381
0.119265
0.128161
0.137072
0.145997
0.154939
0.163899
0.172877
0.181875
0.190893
0.199933
0.208996
0.218083
0.227195
0.236332
0.245496
0.254687
0.263907
0.273157
0.282437
0.291747
0.30109
0.310465
0.319874
0.329316
0.338794
0.348306
0.357855
0.36744
0.377062
0.386721
0.396418
0.406154
0.415928
0.425741
0.435593
0.445485
0.455417
0.465388
0.4754
0.485451
0.495543
0.505674
0.515846
0.526058
0.536309
0.5466
0.55693
0.567299
0.577707
0.588153
0.598637
0.609158
0.619716
0.630311
0.640941
0.651606
0.662306
0.67304
0.683806
0.694604
0.705434
0.716293
0.727183
0.7381
0.749045
0.760016
0.771013
0.782033
0.793077
0.804142
0.815228
0.826333
0.837457
0.848597
0.859753
0.870923
0.882106
0.893301
0.904506
0.915721
0.926943
0.938172
0.949407
0.960645
0.971888
0.983132
0.994378
0.00439976
0.0131996
0.0220006
0.0308034
0.0396089
0.0484179
0.0572315
0.0660505
0.0748761
0.0837091
0.0925508
0.101402
0.110264
0.119138
0.128026
0.136927
0.145844
0.154777
0.163727
0.172697
0.181686
0.190696
0.199727
0.208782
0.217861
0.226964
0.236094
0.245251
0.254435
0.263648
0.272891
0.282164
0.291468
0.300805
0.310174
0.319577
0.329015
0.338487
0.347995
0.357539
0.36712
0.376738
0.386394
0.396088
0.40582
0.415592
0.425403
0.435254
0.445144
0.455075
0.465046
0.475057
0.485108
0.4952
0.505332
0.515505
0.525718
0.535971
0.546264
0.556597
0.566969
0.57738
0.587829
0.598317
0.608843
0.619406
0.630005
0.640641
0.651312
0.662018
0.672758
0.683531
0.694336
0.705173
0.71604
0.726937
0.737863
0.748816
0.759796
0.770801
0.781831
0.792884
0.803958
0.815054
0.826169
0.837302
0.848453
0.859619
0.870799
0.881993
0.893198
0.904414
0.91564
0.926873
0.938112
0.949358
0.960608
0.971861
0.983116
0.994372
0.00439468
0.0131844
0.0219752
0.0307678
0.039563
0.0483619
0.0571652
0.065974
0.0747893
0.0836121
0.0924436
0.101285
0.110137
0.119001
0.127878
0.136769
0.145676
0.154599
0.16354
0.1725
0.18148
0.190481
0.199503
0.208549
0.217619
0.226714
0.235836
0.244984
0.254161
0.263366
0.272601
0.281868
0.291165
0.300495
0.309858
0.319255
0.328687
0.338154
0.347657
0.357196
0.366773
0.376387
0.386039
0.39573
0.405459
0.415228
0.425037
0.434886
0.444775
0.454704
0.464674
0.474685
0.484736
0.494828
0.504961
0.515135
0.52535
0.535605
0.5459
0.556236
0.566611
0.577025
0.587479
0.597971
0.608501
0.619069
0.629674
0.640316
0.650993
0.661705
0.672452
0.683232
0.694045
0.70489
0.715765
0.726671
0.737605
0.748567
0.759557
0.770571
0.781611
0.792674
0.803759
0.814865
0.825991
0.837135
0.848296
0.859473
0.870665
0.88187
0.893087
0.904314
0.915551
0.926796
0.938048
0.949305
0.960566
0.971831
0.983098
0.994366
0.00438917
0.0131679
0.0219476
0.0307292
0.0395134
0.0483011
0.0570934
0.0658911
0.0746953
0.0835071
0.0923275
0.101158
0.109999
0.118852
0.127718
0.136599
0.145495
0.154408
0.163339
0.172288
0.181258
0.190249
0.199262
0.208298
0.217359
0.226445
0.235557
0.244697
0.253865
0.263063
0.27229
0.281549
0.290839
0.300162
0.309518
0.318909
0.328335
0.337796
0.347293
0.356828
0.366399
0.376009
0.385657
0.395344
0.405071
0.414837
0.424643
0.43449
0.444377
0.454305
0.464274
0.474285
0.484336
0.494429
0.504563
0.514738
0.524954
0.535211
0.545509
0.555847
0.566226
0.576644
0.587102
0.597598
0.608134
0.618707
0.629318
0.639966
0.650649
0.661369
0.672123
0.682911
0.693732
0.704585
0.715469
0.726384
0.737328
0.7483
0.759299
0.770324
0.781374
0.792448
0.803544
0.814661
0.825798
0.836954
0.848127
0.859316
0.87052
0.881737
0.892967
0.904207
0.915456
0.926713
0.937978
0.949247
0.960522
0.9718
0.983079
0.99436
0.00438324
0.0131501
0.0219179
0.0306876
0.0394599
0.0482358
0.0570161
0.0658019
0.0745943
0.0833942
0.0922028
0.101021
0.109851
0.118692
0.127547
0.136416
0.145301
0.154203
0.163122
0.172061
0.18102
0.19
0.199003
0.208029
0.21708
0.226156
0.235259
0.24439
0.253549
0.262737
0.271956
0.281207
0.290489
0.299805
0.309154
0.318538
0.327957
0.337412
0.346904
0.356433
0.366
0.375605
0.385249
0.394932
0.404655
0.414418
0.424222
0.434066
0.443952
0.453879
0.463847
0.473857
0.483908
0.494001
0.504136
0.514312
0.52453
0.53479
0.54509
0.555431
0.565813
0.576236
0.586698
0.5972
0.60774
0.618319
0.628937
0.639591
0.650282
0.661009
0.67177
0.682567
0.693396
0.704258
0.715152
0.726076
0.73703
0.748013
0.759023
0.770059
0.78112
0.792205
0.803313
0.814443
0.825592
0.83676
0.847946
0.859148
0.870364
0.881595
0.892837
0.904091
0.915353
0.926624
0.937902
0.949186
0.960474
0.971765
0.983058
0.994353
0.00437688
0.013131
0.0218861
0.0306431
0.0394027
0.0481658
0.0569334
0.0657065
0.0744862
0.0832734
0.0920694
0.100875
0.109692
0.118521
0.127364
0.136221
0.145094
0.153983
0.162891
0.171818
0.180766
0.189735
0.198726
0.207742
0.216782
0.225848
0.234941
0.244062
0.253211
0.262391
0.271601
0.280843
0.290117
0.299425
0.308766
0.318143
0.327555
0.337004
0.34649
0.356013
0.365574
0.375174
0.384814
0.394493
0.404212
0.413972
0.423773
0.433615
0.443499
0.453425
0.463392
0.473401
0.483452
0.493546
0.503682
0.513859
0.524079
0.534341
0.544644
0.554989
0.565375
0.575801
0.586268
0.596775
0.607321
0.617907
0.62853
0.639192
0.64989
0.660625
0.671395
0.6822
0.693039
0.70391
0.714814
0.725749
0.736713
0.747707
0.758728
0.769776
0.780849
0.791947
0.803067
0.814209
0.825371
0.836553
0.847752
0.858968
0.870198
0.881443
0.892699
0.903967
0.915244
0.926529
0.937822
0.94912
0.960422
0.971729
0.983036
0.994346
0.00437011
0.0131107
0.0218522
0.0305956
0.0393417
0.0480912
0.0568453
0.0656049
0.074371
0.0831448
0.0919275
0.10072
0.109524
0.11834
0.127169
0.136013
0.144873
0.15375
0.162646
0.17156
0.180496
0.189453
0.198433
0.207437
0.216466
0.225521
0.234603
0.243713
0.252853
0.262023
0.271223
0.280456
0.289722
0.299021
0.308355
0.317724
0.327129
0.33657
0.34605
0.355567
0.365123
0.374718
0.384352
0.394027
0.403743
0.413499
0.423297
0.433137
0.443019
0.452943
0.462909
0.472918
0.482969
0.493063
0.5032
0.513379
0.523601
0.533865
0.544171
0.554519
0.564909
0.57534
0.585812
0.596324
0.606877
0.617468
0.628099
0.638768
0.649474
0.660217
0.670996
0.68181
0.692659
0.703541
0.714455
0.7254
0.736376
0.747381
0.758415
0.769475
0.780561
0.791672
0.802805
0.813961
0.825137
0.836333
0.847546
0.858776
0.870022
0.881281
0.892552
0.903835
0.915127
0.926428
0.937736
0.94905
0.960368
0.971689
0.983013
0.994338
0.00436291
0.0130891
0.0218163
0.0305453
0.0392769
0.0480121
0.0567518
0.0654971
0.0742489
0.0830084
0.0917769
0.100555
0.109345
0.118147
0.126963
0.135793
0.144639
0.153503
0.162385
0.171287
0.18021
0.189154
0.198122
0.207114
0.216131
0.225174
0.234245
0.243345
0.252474
0.261633
0.270824
0.280047
0.289303
0.298594
0.307919
0.31728
0.326677
0.336112
0.345584
0.355095
0.364645
0.374235
0.383864
0.393535
0.403246
0.412999
0.422794
0.432631
0.442511
0.452433
0.462398
0.472406
0.482458
0.492552
0.50269
0.512871
0.523095
0.533361
0.543671
0.554023
0.564417
0.574852
0.585329
0.595848
0.606406
0.617005
0.627643
0.638319
0.649034
0.659786
0.670574
0.681398
0.692257
0.703149
0.714075
0.725032
0.73602
0.747037
0.758083
0.769156
0.780256
0.79138
0.802528
0.813698
0.824889
0.836099
0.847328
0.858573
0.869834
0.881109
0.892397
0.903695
0.915004
0.926321
0.937645
0.948975
0.96031
0.971648
0.982988
0.99433
0.0043553
0.0130663
0.0217782
0.030492
0.0392084
0.0479284
0.0566529
0.065383
0.0741198
0.0828643
0.0916177
0.100381
0.109156
0.117943
0.126744
0.13556
0.144393
0.153242
0.16211
0.170998
0.179907
0.188839
0.197793
0.206772
0.215777
0.224809
0.233868
0.242956
0.252074
0.261222
0.270402
0.279616
0.288862
0.298143
0.30746
0.316812
0.326202
0.335628
0.345094
0.354598
0.364142
0.373725
0.38335
0.393015
0.402723
0.412472
0.422264
0.432098
0.441975
0.451896
0.46186
0.471868
0.481919
0.492014
0.502153
0.512335
0.522561
0.53283
0.543143
0.553499
0.563897
0.574338
0.58482
0.595345
0.60591
0.616516
0.627161
0.637846
0.648569
0.659331
0.670129
0.680963
0.691832
0.702736
0.713673
0.724642
0.735643
0.746673
0.757733
0.76882
0.779933
0.791072
0.802235
0.81342
0.824626
0.835852
0.847097
0.858359
0.869636
0.880928
0.892232
0.903547
0.914873
0.926207
0.937549
0.948896
0.960248
0.971604
0.982962
0.994321
0.00434728
0.0130422
0.0217381
0.0304358
0.0391362
0.0478402
0.0565487
0.0652628
0.0739836
0.0827123
0.0914499
0.100198
0.108957
0.117729
0.126514
0.135315
0.144132
0.152967
0.161821
0.170694
0.179589
0.188507
0.197448
0.206413
0.215405
0.224424
0.23347
0.242546
0.251652
0.26079
0.269959
0.279161
0.288398
0.297669
0.306976
0.31632
0.325701
0.33512
0.344578
0.354075
0.363612
0.37319
0.382809
0.392469
0.402172
0.411917
0.421705
0.431537
0.441412
0.451331
0.461294
0.471301
0.481352
0.491447
0.501587
0.511771
0.521999
0.532272
0.542588
0.552947
0.56335
0.573796
0.584285
0.594815
0.605387
0.616001
0.626654
0.637348
0.64808
0.658851
0.66966
0.680505
0.691385
0.702301
0.71325
0.724232
0.735246
0.74629
0.757363
0.768465
0.779593
0.790747
0.801926
0.813127
0.824349
0.835592
0.846854
0.858132
0.869427
0.880736
0.892058
0.903392
0.914735
0.926087
0.937447
0.948813
0.960183
0.971558
0.982934
0.994312
0.00433884
0.0130169
0.0216959
0.0303767
0.0390603
0.0477474
0.0564391
0.0651364
0.0738405
0.0825525
0.0912735
0.100005
0.108748
0.117503
0.126273
0.135058
0.143859
0.152678
0.161517
0.170375
0.179255
0.188158
0.197085
0.206036
0.215014
0.224019
0.233053
0.242116
0.25121
0.260336
0.269493
0.278685
0.287911
0.297172
0.306469
0.315803
0.325175
0.334586
0.344036
0.353526
0.363056
0.372627
0.38224
0.391896
0.401594
0.411335
0.42112
0.430948
0.440821
0.450738
0.460699
0.470706
0.480757
0.490853
0.500994
0.511179
0.52141
0.531685
0.542005
0.552369
0.562776
0.573228
0.583722
0.594259
0.604839
0.61546
0.626122
0.636824
0.647566
0.658347
0.669166
0.680023
0.690915
0.701843
0.712805
0.723801
0.734828
0.745887
0.756975
0.768092
0.779236
0.790406
0.8016
0.812818
0.824058
0.835318
0.846598
0.857894
0.869207
0.880535
0.891875
0.903227
0.91459
0.925961
0.93734
0.948725
0.960115
0.971509
0.982905
0.994302
0.00432998
0.0129903
0.0216516
0.0303148
0.0389806
0.04765
0.0563241
0.0650038
0.0736903
0.0823848
0.0910885
0.0998025
0.108528
0.117267
0.126019
0.134788
0.143573
0.152375
0.161198
0.17004
0.178905
0.187792
0.196704
0.205641
0.214605
0.223596
0.232616
0.241666
0.250747
0.25986
0.269006
0.278185
0.2874
0.29665
0.305937
0.315262
0.324625
0.334027
0.343468
0.35295
0.362473
0.372038
0.381645
0.391295
0.400988
0.410725
0.420506
0.430331
0.440201
0.450116
0.460077
0.470082
0.480133
0.49023
0.500372
0.510559
0.520792
0.53107
0.541394
0.551762
0.562175
0.572631
0.583132
0.593676
0.604263
0.614892
0.625563
0.636275
0.647027
0.657819
0.668649
0.679517
0.690422
0.701363
0.712339
0.723348
0.73439
0.745463
0.756567
0.7677
0.77886
0.790047
0.801259
0.812495
0.823752
0.835031
0.846329
0.857644
0.868976
0.880323
0.891683
0.903055
0.914437
0.925829
0.937228
0.948633
0.960043
0.971458
0.982874
0.994292
0.00432071
0.0129625
0.0216053
0.0302499
0.0388972
0.0475481
0.0562037
0.064865
0.0735332
0.0822094
0.0908948
0.0995908
0.108298
0.117019
0.125754
0.134505
0.143273
0.152059
0.160864
0.16969
0.178538
0.18741
0.196306
0.205227
0.214176
0.223153
0.232159
0.241195
0.250262
0.259362
0.268495
0.277663
0.286866
0.296105
0.305382
0.314696
0.324049
0.333442
0.342875
0.352349
0.361865
0.371423
0.381023
0.390667
0.400355
0.410088
0.419864
0.429686
0.439554
0.449467
0.459425
0.46943
0.479481
0.489578
0.499721
0.509911
0.520146
0.530427
0.540755
0.551127
0.561545
0.572008
0.582515
0.593066
0.603661
0.614298
0.624978
0.6357
0.646463
0.657265
0.668107
0.678988
0.689906
0.70086
0.71185
0.722874
0.733931
0.74502
0.75614
0.767289
0.778467
0.789671
0.800901
0.812155
0.823432
0.834729
0.846047
0.857382
0.868734
0.880101
0.891482
0.902874
0.914278
0.92569
0.93711
0.948537
0.959968
0.971404
0.982841
0.994281
0.00431102
0.0129334
0.0215568
0.0301821
0.03881
0.0474417
0.056078
0.06472
0.073369
0.0820261
0.0906925
0.0993696
0.108059
0.116761
0.125477
0.13421
0.142959
0.151728
0.160515
0.169324
0.178155
0.18701
0.19589
0.204796
0.213729
0.22269
0.231681
0.240703
0.249756
0.258843
0.267963
0.277118
0.286309
0.295536
0.304801
0.314105
0.323448
0.332831
0.342255
0.351721
0.361229
0.37078
0.380374
0.390012
0.399694
0.409422
0.419195
0.429013
0.438877
0.448788
0.458745
0.468749
0.4788
0.488898
0.499042
0.509233
0.519471
0.529756
0.540087
0.550464
0.560887
0.571356
0.58187
0.592429
0.603031
0.613678
0.624367
0.635099
0.645872
0.656687
0.667541
0.678434
0.689365
0.700334
0.711338
0.722377
0.73345
0.744556
0.755693
0.76686
0.778055
0.789278
0.800527
0.8118
0.823096
0.834414
0.845751
0.857107
0.86848
0.879869
0.891271
0.902685
0.91411
0.925544
0.936987
0.948435
0.959889
0.971347
0.982807
0.99427
0.00430092
0.0129031
0.0215063
0.0301114
0.0387192
0.0473306
0.0559468
0.0645688
0.0731978
0.0818349
0.0904816
0.0991389
0.107808
0.116491
0.125189
0.133902
0.142633
0.151382
0.160152
0.168943
0.177756
0.186594
0.195457
0.204346
0.213262
0.222208
0.231183
0.24019
0.249229
0.258301
0.267408
0.27655
0.285728
0.294943
0.304197
0.31349
0.322822
0.332195
0.34161
0.351067
0.360567
0.37011
0.379697
0.389329
0.399006
0.408728
0.418496
0.428311
0.438173
0.448081
0.458037
0.46804
0.47809
0.488188
0.498334
0.508527
0.518767
0.529055
0.539391
0.549773
0.560201
0.570676
0.581197
0.591763
0.602375
0.61303
0.62373
0.634472
0.645256
0.656083
0.666949
0.677856
0.688801
0.699784
0.710804
0.721859
0.732948
0.744071
0.755226
0.766411
0.777625
0.788867
0.800135
0.811428
0.822745
0.834084
0.845443
0.85682
0.868215
0.879626
0.89105
0.902487
0.913935
0.925393
0.936858
0.94833
0.959807
0.971289
0.982772
0.994258
0.0042904
0.0128716
0.0214537
0.0300378
0.0386245
0.047215
0.0558102
0.0644113
0.0730195
0.0816359
0.0902619
0.0988988
0.107548
0.11621
0.124888
0.133582
0.142293
0.151023
0.159774
0.168546
0.177341
0.18616
0.195005
0.203877
0.212777
0.221706
0.230665
0.239656
0.24868
0.257738
0.26683
0.275958
0.285123
0.294326
0.303568
0.312849
0.32217
0.331533
0.340938
0.350386
0.359877
0.369413
0.378993
0.388618
0.398289
0.408006
0.41777
0.427581
0.437439
0.447345
0.457299
0.467301
0.477351
0.48745
0.497596
0.507791
0.518035
0.528326
0.538665
0.549052
0.559487
0.569968
0.580496
0.59107
0.60169
0.612355
0.623065
0.633818
0.644614
0.655453
0.666333
0.677253
0.688213
0.699211
0.710246
0.721318
0.732425
0.743565
0.754738
0.765942
0.777176
0.788438
0.799727
0.811041
0.822379
0.833739
0.84512
0.856521
0.867938
0.879372
0.89082
0.902281
0.913752
0.925234
0.936723
0.94822
0.959722
0.971228
0.982735
0.994246
0.00427947
0.0128387
0.0213991
0.0299612
0.0385262
0.0470948
0.0556683
0.0642477
0.0728342
0.0814291
0.0900336
0.0986492
0.107277
0.115919
0.124575
0.133249
0.14194
0.15065
0.159381
0.168133
0.176909
0.18571
0.194537
0.20339
0.212273
0.221184
0.230127
0.239102
0.24811
0.257152
0.26623
0.275344
0.284495
0.293685
0.302914
0.312183
0.321493
0.330846
0.34024
0.349679
0.359161
0.368688
0.378261
0.387879
0.397544
0.407256
0.417015
0.426822
0.436677
0.44658
0.456532
0.466533
0.476583
0.486682
0.49683
0.507027
0.517273
0.527568
0.537911
0.548303
0.558743
0.569231
0.579767
0.590349
0.600978
0.611653
0.622373
0.633138
0.643946
0.654797
0.665691
0.676625
0.6876
0.698614
0.709666
0.720755
0.731879
0.743038
0.75423
0.765454
0.776708
0.78799
0.799301
0.810637
0.821997
0.83338
0.844784
0.856208
0.86765
0.879107
0.89058
0.902065
0.913562
0.925068
0.936583
0.948105
0.959632
0.971164
0.982697
0.994233
0.00426812
0.0128047
0.0213423
0.0298818
0.038424
0.0469701
0.0555209
0.0640777
0.0726418
0.0812143
0.0897966
0.0983901
0.106996
0.115616
0.124251
0.132903
0.141573
0.150262
0.158972
0.167705
0.176461
0.185242
0.19405
0.202885
0.211749
0.220643
0.229568
0.238526
0.247518
0.256544
0.265607
0.274706
0.283843
0.293019
0.302235
0.311492
0.320791
0.330132
0.339516
0.348945
0.358418
0.367936
0.377501
0.387112
0.396771
0.406477
0.416231
0.426034
0.435886
0.445786
0.455736
0.465736
0.475785
0.485884
0.496034
0.506233
0.516481
0.52678
0.537128
0.547525
0.557971
0.568466
0.579009
0.5896
0.600238
0.610923
0.621654
0.63243
0.643251
0.654115
0.665023
0.675972
0.686963
0.697993
0.709062
0.720169
0.731312
0.74249
0.753701
0.764945
0.77622
0.787525
0.798857
0.810216
0.821599
0.833006
0.844434
0.855882
0.867349
0.878832
0.89033
0.901841
0.913363
0.924896
0.936437
0.947985
0.959539
0.971097
0.982657
0.99422
0.00425635
0.0127694
0.0212835
0.0297994
0.0383182
0.0468407
0.0553681
0.0639016
0.0724423
0.0809917
0.0895509
0.0981214
0.106705
0.115302
0.123915
0.132544
0.141192
0.14986
0.158549
0.167261
0.175997
0.184758
0.193546
0.202361
0.211206
0.220082
0.228989
0.23793
0.246904
0.255914
0.264961
0.274045
0.283167
0.29233
0.301532
0.310776
0.320062
0.329392
0.338765
0.348184
0.357647
0.367157
0.376714
0.386318
0.395969
0.40567
0.415419
0.425217
0.435065
0.444963
0.454911
0.464909
0.474958
0.485058
0.495208
0.505409
0.51566
0.525962
0.536315
0.546717
0.557169
0.567671
0.578222
0.588822
0.59947
0.610165
0.620907
0.631695
0.642529
0.653407
0.664329
0.675294
0.6863
0.697348
0.708434
0.719559
0.730721
0.741919
0.753151
0.764417
0.775713
0.78704
0.798395
0.809778
0.821185
0.832617
0.84407
0.855544
0.867036
0.878545
0.890069
0.901607
0.913157
0.924717
0.936285
0.947861
0.959442
0.971028
0.982616
0.994206
0.00424417
0.0127328
0.0212226
0.0297142
0.0382086
0.0467068
0.0552099
0.0637192
0.0722358
0.0807611
0.0892965
0.0978433
0.106403
0.114977
0.123566
0.132173
0.140799
0.149444
0.158111
0.166801
0.175516
0.184256
0.193023
0.201819
0.210644
0.219501
0.22839
0.237312
0.246269
0.255262
0.264292
0.273361
0.282468
0.291615
0.300804
0.310035
0.319309
0.328626
0.337988
0.347396
0.35685
0.36635
0.375899
0.385495
0.39514
0.404834
0.414578
0.424371
0.434215
0.44411
0.454056
0.464053
0.474101
0.484201
0.494352
0.504555
0.51481
0.525115
0.535472
0.54588
0.556339
0.566848
0.577407
0.588015
0.598673
0.609379
0.620132
0.630933
0.64178
0.652672
0.663609
0.67459
0.685613
0.696678
0.707783
0.718927
0.730108
0.741327
0.75258
0.763867
0.775187
0.786537
0.797916
0.809323
0.820755
0.832212
0.843691
0.855192
0.866711
0.878247
0.889799
0.901364
0.912942
0.92453
0.936127
0.947732
0.959342
0.970956
0.982572
0.994191
0.00423157
0.012695
0.0211596
0.029626
0.0380952
0.0465683
0.0550463
0.0635306
0.0720223
0.0805227
0.0890333
0.0975555
0.106091
0.11464
0.123206
0.131789
0.140391
0.149014
0.157658
0.166326
0.175018
0.183737
0.192483
0.201258
0.210063
0.2189
0.22777
0.236674
0.245613
0.254588
0.263601
0.272653
0.281745
0.290877
0.300051
0.309268
0.318529
0.327834
0.337185
0.346581
0.356025
0.365516
0.375056
0.384644
0.394282
0.403969
0.413707
0.423496
0.433336
0.443228
0.453171
0.463167
0.473215
0.483315
0.493467
0.503672
0.513929
0.524238
0.5346
0.545013
0.555478
0.565995
0.576562
0.58718
0.597847
0.608564
0.61933
0.630143
0.641003
0.65191
0.662863
0.67386
0.6849
0.695983
0.707106
0.71827
0.729472
0.740712
0.751987
0.763297
0.77464
0.786014
0.797418
0.80885
0.820309
0.831792
0.843298
0.854826
0.866373
0.877937
0.889518
0.901112
0.912719
0.924337
0.935963
0.947597
0.959237
0.970881
0.982528
0.994176
0.00421855
0.012656
0.0210945
0.0295349
0.0379781
0.0464252
0.0548773
0.0633357
0.0718016
0.0802764
0.0887615
0.0972583
0.105768
0.114293
0.122834
0.131393
0.139971
0.148569
0.15719
0.165835
0.174505
0.183201
0.191925
0.200679
0.209463
0.21828
0.22713
0.236014
0.244934
0.253892
0.262887
0.271922
0.280998
0.290115
0.299274
0.308477
0.317724
0.327016
0.336355
0.34574
0.355173
0.364654
0.374185
0.383765
0.393395
0.403076
0.412808
0.422592
0.432428
0.442316
0.452257
0.462251
0.472298
0.482398
0.492552
0.502758
0.513018
0.523332
0.533698
0.544117
0.554588
0.565112
0.575688
0.586315
0.596993
0.607721
0.618498
0.629325
0.640199
0.651121
0.66209
0.673103
0.684161
0.695262
0.706405
0.717589
0.728813
0.740074
0.751372
0.762706
0.774073
0.785472
0.796901
0.80836
0.819845
0.831356
0.84289
0.854446
0.866022
0.877616
0.889226
0.900851
0.912488
0.924136
0.935793
0.947458
0.959129
0.970804
0.982481
0.994161
0.00420511
0.0126157
0.0210273
0.0294408
0.0378572
0.0462775
0.0547029
0.0631345
0.0715739
0.0800222
0.0884809
0.0969516
0.105436
0.113935
0.12245
0.130984
0.139537
0.148111
0.156707
0.165328
0.173974
0.182648
0.191349
0.200081
0.208844
0.217639
0.226469
0.235333
0.244235
0.253173
0.262151
0.271168
0.280227
0.289328
0.298472
0.30766
0.316893
0.326172
0.335498
0.344872
0.354294
0.363765
0.373286
0.382858
0.39248
0.402154
0.41188
0.421659
0.431491
0.441375
0.451314
0.461306
0.471352
0.481452
0.491606
0.501815
0.512078
0.522395
0.532766
0.54319
0.553669
0.5642
0.574784
0.585421
0.596109
0.606849
0.617639
0.628479
0.639368
0.650305
0.661289
0.67232
0.683396
0.694517
0.70568
0.716884
0.72813
0.739414
0.750735
0.762093
0.773485
0.78491
0.796366
0.807852
0.819365
0.830904
0.842467
0.854053
0.865658
0.877283
0.888924
0.900579
0.912248
0.923927
0.935616
0.947313
0.959016
0.970723
0.982433
0.994145
0.00419126
0.0125741
0.020958
0.0293439
0.0377326
0.0461252
0.054523
0.0629272
0.071339
0.07976
0.0881916
0.0966353
0.105093
0.113565
0.122054
0.130562
0.139089
0.147638
0.156209
0.164806
0.173428
0.182077
0.190756
0.199465
0.208206
0.216979
0.225788
0.234632
0.243513
0.252433
0.261391
0.270391
0.279433
0.288517
0.297645
0.306818
0.316037
0.325302
0.334615
0.343977
0.353388
0.362848
0.37236
0.381922
0.391537
0.401204
0.410923
0.420697
0.430524
0.440405
0.45034
0.46033
0.470376
0.480476
0.490631