/*--------------------------------*- C++ -*----------------------------------*\
  =========                 |
  \\      /  F ield         | OpenFOAM: The Open Source CFD Toolbox
   \\    /   O peration     | Website:  https://openfoam.org
    \\  /    A nd           | Version:  6
     \\/     M anipulation  |
\*---------------------------------------------------------------------------*/
FoamFile
{
    version     2.0;
    format      ascii;
    class       volVectorField;
    location    "0";
    object      Ulift0;
}
// * * * * * * * * * * * * * * * * * * * * * * * * * * * * * * * * * * * * * //

dimensions      [0 1 -1 0 0 0 0];

internalField   nonuniform List<vector> 
22000
(
(0.000406221 -0.000406221 0)
(0.00121825 -0.000405809 0)
(0.00202905 -0.000404986 0)
(0.00283778 -0.000403751 0)
(0.00364364 -0.000402108 0)
(0.00444581 -0.000400058 0)
(0.00524347 -0.000397603 0)
(0.00603581 -0.000394746 0)
(0.00682205 -0.000391492 0)
(0.00760139 -0.000387843 0)
(0.00837303 -0.000383805 0)
(0.00913622 -0.000379381 0)
(0.00989018 -0.000374579 0)
(0.0106342 -0.000369402 0)
(0.0113674 -0.000363857 0)
(0.0120892 -0.000357952 0)
(0.0127989 -0.000351691 0)
(0.0134956 -0.000345084 0)
(0.0141789 -0.000338137 0)
(0.0148479 -0.000330858 0)
(0.015502 -0.000323256 0)
(0.0161406 -0.000315339 0)
(0.016763 -0.000307115 0)
(0.0173687 -0.000298594 0)
(0.0179571 -0.000289786 0)
(0.0185276 -0.000280699 0)
(0.0190796 -0.000271343 0)
(0.0196127 -0.000261728 0)
(0.0201263 -0.000251865 0)
(0.0206199 -0.000241763 0)
(0.0210931 -0.000231433 0)
(0.0215454 -0.000220886 0)
(0.0219765 -0.000210131 0)
(0.0223858 -0.00019918 0)
(0.022773 -0.000188043 0)
(0.0231378 -0.000176732 0)
(0.0234798 -0.000165258 0)
(0.0237986 -0.000153631 0)
(0.0240941 -0.000141862 0)
(0.024366 -0.000129963 0)
(0.0246139 -0.000117946 0)
(0.0248376 -0.00010582 0)
(0.0250371 -9.35982e-05 0)
(0.0252119 -8.1291e-05 0)
(0.0253621 -6.89099e-05 0)
(0.0254875 -5.64663e-05 0)
(0.025588 -4.39715e-05 0)
(0.0256634 -3.14368e-05 0)
(0.0257137 -1.88737e-05 0)
(0.0257388 -6.29356e-06 0)
(0.0257388 6.2923e-06 0)
(0.0257137 1.88725e-05 0)
(0.0256634 3.14356e-05 0)
(0.025588 4.39702e-05 0)
(0.0254875 5.64651e-05 0)
(0.0253622 6.89087e-05 0)
(0.025212 8.12898e-05 0)
(0.0250371 9.35971e-05 0)
(0.0248377 0.000105819 0)
(0.0246139 0.000117945 0)
(0.024366 0.000129962 0)
(0.0240942 0.000141861 0)
(0.0237987 0.00015363 0)
(0.0234798 0.000165257 0)
(0.0231378 0.000176731 0)
(0.022773 0.000188043 0)
(0.0223858 0.000199179 0)
(0.0219765 0.00021013 0)
(0.0215455 0.000220885 0)
(0.0210932 0.000231433 0)
(0.02062 0.000241763 0)
(0.0201263 0.000251865 0)
(0.0196127 0.000261728 0)
(0.0190797 0.000271343 0)
(0.0185276 0.000280699 0)
(0.0179571 0.000289786 0)
(0.0173688 0.000298594 0)
(0.0167631 0.000307115 0)
(0.0161406 0.000315339 0)
(0.015502 0.000323256 0)
(0.0148479 0.000330858 0)
(0.0141789 0.000338137 0)
(0.0134957 0.000345084 0)
(0.0127989 0.000351692 0)
(0.0120893 0.000357952 0)
(0.0113674 0.000363858 0)
(0.0106342 0.000369403 0)
(0.0098902 0.000374579 0)
(0.00913624 0.000379382 0)
(0.00837305 0.000383806 0)
(0.00760141 0.000387844 0)
(0.00682207 0.000391493 0)
(0.00603583 0.000394747 0)
(0.00524348 0.000397604 0)
(0.00444582 0.000400059 0)
(0.00364365 0.000402109 0)
(0.00283779 0.000403752 0)
(0.00202905 0.000404987 0)
(0.00121825 0.00040581 0)
(0.000406222 0.000406222 0)
(0.000406633 -0.00121908 0)
(0.00121949 -0.00121784 0)
(0.0020311 -0.00121537 0)
(0.00284066 -0.00121166 0)
(0.00364733 -0.00120673 0)
(0.00445031 -0.00120058 0)
(0.00524878 -0.00119321 0)
(0.00604192 -0.00118464 0)
(0.00682895 -0.00117487 0)
(0.00760907 -0.00116392 0)
(0.00838149 -0.0011518 0)
(0.00914544 -0.00113852 0)
(0.00990016 -0.00112411 0)
(0.0106449 -0.00110857 0)
(0.0113789 -0.00109193 0)
(0.0121014 -0.00107421 0)
(0.0128117 -0.00105542 0)
(0.0135092 -0.00103559 0)
(0.0141931 -0.00101474 0)
(0.0148627 -0.000992898 0)
(0.0155175 -0.000970083 0)
(0.0161567 -0.000946322 0)
(0.0167798 -0.000921643 0)
(0.0173861 -0.000896071 0)
(0.017975 -0.000869636 0)
(0.018546 -0.000842365 0)
(0.0190986 -0.000814288 0)
(0.0196322 -0.000785434 0)
(0.0201463 -0.000755834 0)
(0.0206404 -0.000725518 0)
(0.021114 -0.000694517 0)
(0.0215667 -0.000662864 0)
(0.0219982 -0.000630589 0)
(0.0224079 -0.000597725 0)
(0.0227954 -0.000564305 0)
(0.0231605 -0.00053036 0)
(0.0235029 -0.000495926 0)
(0.023822 -0.000461033 0)
(0.0241178 -0.000425717 0)
(0.0243899 -0.000390009 0)
(0.024638 -0.000353945 0)
(0.024862 -0.000317557 0)
(0.0250616 -0.00028088 0)
(0.0252366 -0.000243947 0)
(0.025387 -0.000206792 0)
(0.0255125 -0.00016945 0)
(0.025613 -0.000131954 0)
(0.0256885 -9.4339e-05 0)
(0.0257388 -5.66383e-05 0)
(0.025764 -1.88864e-05 0)
(0.025764 1.88825e-05 0)
(0.0257388 5.66345e-05 0)
(0.0256885 9.43351e-05 0)
(0.025613 0.00013195 0)
(0.0255125 0.000169446 0)
(0.025387 0.000206789 0)
(0.0252366 0.000243943 0)
(0.0250616 0.000280876 0)
(0.024862 0.000317554 0)
(0.024638 0.000353942 0)
(0.0243899 0.000390006 0)
(0.0241178 0.000425714 0)
(0.0238221 0.00046103 0)
(0.0235029 0.000495923 0)
(0.0231606 0.000530358 0)
(0.0227955 0.000564302 0)
(0.0224079 0.000597723 0)
(0.0219982 0.000630587 0)
(0.0215668 0.000662862 0)
(0.021114 0.000694516 0)
(0.0206404 0.000725517 0)
(0.0201463 0.000755833 0)
(0.0196322 0.000785433 0)
(0.0190986 0.000814287 0)
(0.0185461 0.000842365 0)
(0.017975 0.000869636 0)
(0.0173861 0.000896071 0)
(0.0167798 0.000921643 0)
(0.0161567 0.000946322 0)
(0.0155175 0.000970083 0)
(0.0148628 0.000992899 0)
(0.0141931 0.00101474 0)
(0.0135092 0.00103559 0)
(0.0128118 0.00105542 0)
(0.0121014 0.00107421 0)
(0.0113789 0.00109194 0)
(0.0106449 0.00110858 0)
(0.00990018 0.00112411 0)
(0.00914547 0.00113853 0)
(0.00838152 0.0011518 0)
(0.00760909 0.00116392 0)
(0.00682897 0.00117487 0)
(0.00604194 0.00118464 0)
(0.00524879 0.00119321 0)
(0.00445032 0.00120058 0)
(0.00364734 0.00120673 0)
(0.00284067 0.00121167 0)
(0.00203111 0.00121537 0)
(0.00121949 0.00121784 0)
(0.000406634 0.00121908 0)
(0.000407458 -0.00203317 0)
(0.00122196 -0.00203111 0)
(0.00203522 -0.00202698 0)
(0.00284642 -0.0020208 0)
(0.00365473 -0.00201258 0)
(0.00445933 -0.00200231 0)
(0.00525941 -0.00199002 0)
(0.00605415 -0.00197572 0)
(0.00684277 -0.00195943 0)
(0.00762446 -0.00194117 0)
(0.00839843 -0.00192095 0)
(0.00916391 -0.00189881 0)
(0.00992013 -0.00187476 0)
(0.0106663 -0.00184885 0)
(0.0114018 -0.00182109 0)
(0.0121257 -0.00179153 0)
(0.0128375 -0.00176019 0)
(0.0135363 -0.00172712 0)
(0.0142216 -0.00169234 0)
(0.0148925 -0.00165591 0)
(0.0155485 -0.00161785 0)
(0.016189 -0.00157822 0)
(0.0168133 -0.00153706 0)
(0.0174207 -0.00149441 0)
(0.0180108 -0.00145032 0)
(0.0185829 -0.00140484 0)
(0.0191366 -0.00135801 0)
(0.0196712 -0.00130989 0)
(0.0201862 -0.00126052 0)
(0.0206812 -0.00120996 0)
(0.0211558 -0.00115825 0)
(0.0216094 -0.00110546 0)
(0.0220416 -0.00105164 0)
(0.022452 -0.000996827 0)
(0.0228404 -0.00094109 0)
(0.0232061 -0.000884479 0)
(0.0235491 -0.000827051 0)
(0.0238689 -0.00076886 0)
(0.0241652 -0.000709962 0)
(0.0244377 -0.000650412 0)
(0.0246863 -0.000590268 0)
(0.0249107 -0.000529584 0)
(0.0251107 -0.000468417 0)
(0.025286 -0.000406825 0)
(0.0254366 -0.000344862 0)
(0.0255624 -0.000282588 0)
(0.0256631 -0.000220057 0)
(0.0257387 -0.000157327 0)
(0.0257891 -9.44542e-05 0)
(0.0258144 -3.14964e-05 0)
(0.0258144 3.14898e-05 0)
(0.0257891 9.44476e-05 0)
(0.0257387 0.00015732 0)
(0.0256631 0.00022005 0)
(0.0255624 0.000282581 0)
(0.0254367 0.000344856 0)
(0.025286 0.000406818 0)
(0.0251107 0.000468411 0)
(0.0249107 0.000529578 0)
(0.0246863 0.000590262 0)
(0.0244378 0.000650407 0)
(0.0241652 0.000709957 0)
(0.0238689 0.000768855 0)
(0.0235491 0.000827047 0)
(0.0232062 0.000884475 0)
(0.0228404 0.000941086 0)
(0.0224521 0.000996823 0)
(0.0220416 0.00105163 0)
(0.0216094 0.00110546 0)
(0.0211558 0.00115825 0)
(0.0206813 0.00120996 0)
(0.0201862 0.00126052 0)
(0.0196712 0.00130988 0)
(0.0191366 0.00135801 0)
(0.018583 0.00140484 0)
(0.0180108 0.00145032 0)
(0.0174208 0.00149441 0)
(0.0168133 0.00153706 0)
(0.016189 0.00157823 0)
(0.0155486 0.00161786 0)
(0.0148926 0.00165591 0)
(0.0142216 0.00169235 0)
(0.0135364 0.00172712 0)
(0.0128375 0.0017602 0)
(0.0121258 0.00179153 0)
(0.0114018 0.0018211 0)
(0.0106664 0.00184885 0)
(0.00992015 0.00187477 0)
(0.00916393 0.00189881 0)
(0.00839845 0.00192095 0)
(0.00762448 0.00194117 0)
(0.00684279 0.00195943 0)
(0.00605417 0.00197573 0)
(0.00525942 0.00199003 0)
(0.00445934 0.00200232 0)
(0.00365474 0.00201258 0)
(0.00284643 0.00202081 0)
(0.00203523 0.00202699 0)
(0.00122196 0.00203111 0)
(0.000407459 0.00203317 0)
(0.000408696 -0.00284932 0)
(0.00122567 -0.00284643 0)
(0.00204141 -0.00284065 0)
(0.00285506 -0.00283199 0)
(0.00366583 -0.00282046 0)
(0.00447286 -0.00280607 0)
(0.00527537 -0.00278884 0)
(0.00607252 -0.0027688 0)
(0.00686351 -0.00274596 0)
(0.00764755 -0.00272036 0)
(0.00842385 -0.00269203 0)
(0.00919163 -0.00266099 0)
(0.00995011 -0.00262729 0)
(0.0106985 -0.00259097 0)
(0.0114362 -0.00255206 0)
(0.0121623 -0.00251063 0)
(0.0128761 -0.0024667 0)
(0.013577 -0.00242034 0)
(0.0142643 -0.0023716 0)
(0.0149372 -0.00232054 0)
(0.0155952 -0.0022672 0)
(0.0162375 -0.00221166 0)
(0.0168636 -0.00215397 0)
(0.0174728 -0.00209419 0)
(0.0180646 -0.0020324 0)
(0.0186383 -0.00196866 0)
(0.0191936 -0.00190303 0)
(0.0197297 -0.00183558 0)
(0.0202462 -0.0017664 0)
(0.0207426 -0.00169554 0)
(0.0212185 -0.00162308 0)
(0.0216734 -0.0015491 0)
(0.0221068 -0.00147366 0)
(0.0225184 -0.00139686 0)
(0.0229078 -0.00131875 0)
(0.0232746 -0.00123942 0)
(0.0236185 -0.00115894 0)
(0.0239391 -0.00107739 0)
(0.0242362 -0.000994859 0)
(0.0245096 -0.000911411 0)
(0.0247588 -0.000827129 0)
(0.0249838 -0.000742093 0)
(0.0251843 -0.000656381 0)
(0.0253602 -0.000570072 0)
(0.0255112 -0.000483245 0)
(0.0256373 -0.000395981 0)
(0.0257382 -0.000308358 0)
(0.0258141 -0.000220456 0)
(0.0258646 -0.000132355 0)
(0.02589 -4.41349e-05 0)
(0.02589 4.41256e-05 0)
(0.0258647 0.000132346 0)
(0.0258141 0.000220447 0)
(0.0257383 0.000308349 0)
(0.0256373 0.000395972 0)
(0.0255112 0.000483237 0)
(0.0253602 0.000570063 0)
(0.0251844 0.000656372 0)
(0.0249839 0.000742085 0)
(0.0247589 0.000827121 0)
(0.0245096 0.000911403 0)
(0.0242363 0.000994851 0)
(0.0239392 0.00107739 0)
(0.0236185 0.00115893 0)
(0.0232746 0.00123941 0)
(0.0229078 0.00131874 0)
(0.0225184 0.00139685 0)
(0.0221068 0.00147366 0)
(0.0216734 0.00154909 0)
(0.0212185 0.00162308 0)
(0.0207427 0.00169553 0)
(0.0202462 0.00176639 0)
(0.0197297 0.00183558 0)
(0.0191936 0.00190302 0)
(0.0186384 0.00196865 0)
(0.0180646 0.0020324 0)
(0.0174728 0.00209419 0)
(0.0168636 0.00215397 0)
(0.0162375 0.00221166 0)
(0.0155952 0.0022672 0)
(0.0149373 0.00232054 0)
(0.0142643 0.00237161 0)
(0.0135771 0.00242035 0)
(0.0128762 0.00246671 0)
(0.0121623 0.00251063 0)
(0.0114362 0.00255207 0)
(0.0106986 0.00259097 0)
(0.00995014 0.00262729 0)
(0.00919165 0.00266099 0)
(0.00842388 0.00269203 0)
(0.00764757 0.00272037 0)
(0.00686353 0.00274597 0)
(0.00607253 0.00276881 0)
(0.00527538 0.00278885 0)
(0.00447288 0.00280608 0)
(0.00366584 0.00282047 0)
(0.00285507 0.002832 0)
(0.00204141 0.00284066 0)
(0.00122568 0.00284644 0)
(0.000408697 0.00284933 0)
(0.00041035 -0.00366837 0)
(0.00123063 -0.00366465 0)
(0.00204966 -0.0036572 0)
(0.00286661 -0.00364605 0)
(0.00368065 -0.0036312 0)
(0.00449094 -0.00361267 0)
(0.00529668 -0.00359048 0)
(0.00609703 -0.00356467 0)
(0.00689121 -0.00353526 0)
(0.00767839 -0.00350229 0)
(0.0084578 -0.0034658 0)
(0.00922864 -0.00342583 0)
(0.00999015 -0.00338244 0)
(0.0107416 -0.00333566 0)
(0.0114821 -0.00328557 0)
(0.0122111 -0.00323221 0)
(0.0129278 -0.00317565 0)
(0.0136314 -0.00311595 0)
(0.0143214 -0.00305319 0)
(0.0149969 -0.00298744 0)
(0.0156574 -0.00291876 0)
(0.0163022 -0.00284724 0)
(0.0169307 -0.00277296 0)
(0.0175423 -0.00269599 0)
(0.0181364 -0.00261643 0)
(0.0187123 -0.00253436 0)
(0.0192696 -0.00244986 0)
(0.0198078 -0.00236302 0)
(0.0203263 -0.00227395 0)
(0.0208246 -0.00218272 0)
(0.0213022 -0.00208943 0)
(0.0217588 -0.00199418 0)
(0.0221938 -0.00189707 0)
(0.022607 -0.00179818 0)
(0.0229978 -0.00169763 0)
(0.023366 -0.0015955 0)
(0.0237111 -0.0014919 0)
(0.0240329 -0.00138692 0)
(0.0243311 -0.00128067 0)
(0.0246055 -0.00117324 0)
(0.0248556 -0.00106475 0)
(0.0250814 -0.000955278 0)
(0.0252827 -0.000844941 0)
(0.0254592 -0.000733836 0)
(0.0256107 -0.000622066 0)
(0.0257372 -0.000509733 0)
(0.0258386 -0.000396939 0)
(0.0259147 -0.000283785 0)
(0.0259654 -0.000170376 0)
(0.0259908 -5.68132e-05 0)
(0.0259908 5.68012e-05 0)
(0.0259655 0.000170364 0)
(0.0259147 0.000283774 0)
(0.0258386 0.000396927 0)
(0.0257373 0.000509721 0)
(0.0256107 0.000622055 0)
(0.0254592 0.000733825 0)
(0.0252827 0.00084493 0)
(0.0250815 0.000955267 0)
(0.0248557 0.00106474 0)
(0.0246055 0.00117323 0)
(0.0243312 0.00128066 0)
(0.024033 0.00138691 0)
(0.0237111 0.00149189 0)
(0.023366 0.00159549 0)
(0.0229978 0.00169762 0)
(0.022607 0.00179818 0)
(0.0221939 0.00189706 0)
(0.0217588 0.00199418 0)
(0.0213023 0.00208943 0)
(0.0208246 0.00218271 0)
(0.0203263 0.00227394 0)
(0.0198078 0.00236302 0)
(0.0192697 0.00244986 0)
(0.0187124 0.00253436 0)
(0.0181364 0.00261643 0)
(0.0175423 0.00269599 0)
(0.0169308 0.00277296 0)
(0.0163023 0.00284724 0)
(0.0156575 0.00291876 0)
(0.014997 0.00298744 0)
(0.0143214 0.00305319 0)
(0.0136315 0.00311596 0)
(0.0129278 0.00317565 0)
(0.0122111 0.00323221 0)
(0.0114822 0.00328557 0)
(0.0107416 0.00333567 0)
(0.00999018 0.00338244 0)
(0.00922867 0.00342584 0)
(0.00845782 0.00346581 0)
(0.00767842 0.0035023 0)
(0.00689123 0.00353527 0)
(0.00609705 0.00356468 0)
(0.00529669 0.00359049 0)
(0.00449095 0.00361268 0)
(0.00368066 0.00363121 0)
(0.00286662 0.00364606 0)
(0.00204967 0.00365721 0)
(0.00123064 0.00366466 0)
(0.000410351 0.00366838 0)
(0.000412542 -0.0045398 0)
(0.00123721 -0.00453519 0)
(0.00206061 -0.00452597 0)
(0.00288192 -0.00451216 0)
(0.0037003 -0.00449378 0)
(0.00451491 -0.00447084 0)
(0.00532493 -0.00444337 0)
(0.00612954 -0.00441142 0)
(0.00692793 -0.00437501 0)
(0.00771929 -0.00433419 0)
(0.00850281 -0.00428902 0)
(0.00927772 -0.00423954 0)
(0.0100432 -0.00418582 0)
(0.0107986 -0.00412791 0)
(0.011543 -0.0040659 0)
(0.0122758 -0.00399984 0)
(0.0129962 -0.00392983 0)
(0.0137035 -0.00385594 0)
(0.014397 -0.00377825 0)
(0.0150761 -0.00369686 0)
(0.01574 -0.00361185 0)
(0.0163881 -0.00352333 0)
(0.0170198 -0.00343139 0)
(0.0176344 -0.00333613 0)
(0.0182315 -0.00323765 0)
(0.0188104 -0.00313607 0)
(0.0193705 -0.00303149 0)
(0.0199113 -0.00292402 0)
(0.0204324 -0.00281378 0)
(0.0209332 -0.00270088 0)
(0.0214132 -0.00258543 0)
(0.021872 -0.00246756 0)
(0.0223092 -0.00234738 0)
(0.0227244 -0.00222501 0)
(0.0231171 -0.00210057 0)
(0.023487 -0.00197419 0)
(0.0238339 -0.00184599 0)
(0.0241573 -0.00171609 0)
(0.0244569 -0.00158461 0)
(0.0247326 -0.00145169 0)
(0.0249839 -0.00131744 0)
(0.0252108 -0.00118198 0)
(0.025413 -0.00104546 0)
(0.0255903 -0.000907985 0)
(0.0257426 -0.000769688 0)
(0.0258698 -0.000630696 0)
(0.0259716 -0.000491134 0)
(0.026048 -0.000351129 0)
(0.026099 -0.000210807 0)
(0.0261246 -7.02951e-05 0)
(0.0261246 7.02802e-05 0)
(0.026099 0.000210792 0)
(0.026048 0.000351114 0)
(0.0259716 0.000491119 0)
(0.0258698 0.000630682 0)
(0.0257426 0.000769674 0)
(0.0255904 0.000907971 0)
(0.025413 0.00104544 0)
(0.0252108 0.00118197 0)
(0.024984 0.00131742 0)
(0.0247326 0.00145167 0)
(0.0244569 0.0015846 0)
(0.0241573 0.00171608 0)
(0.0238339 0.00184598 0)
(0.0234871 0.00197418 0)
(0.0231171 0.00210056 0)
(0.0227244 0.002225 0)
(0.0223092 0.00234737 0)
(0.021872 0.00246755 0)
(0.0214132 0.00258542 0)
(0.0209332 0.00270087 0)
(0.0204324 0.00281377 0)
(0.0199114 0.00292402 0)
(0.0193705 0.00303149 0)
(0.0188104 0.00313607 0)
(0.0182315 0.00323765 0)
(0.0176345 0.00333612 0)
(0.0170198 0.00343139 0)
(0.0163881 0.00352333 0)
(0.01574 0.00361185 0)
(0.0150761 0.00369686 0)
(0.0143971 0.00377825 0)
(0.0137035 0.00385594 0)
(0.0129962 0.00392984 0)
(0.0122758 0.00399985 0)
(0.0115431 0.0040659 0)
(0.0107986 0.00412792 0)
(0.0100433 0.00418582 0)
(0.00927775 0.00423955 0)
(0.00850284 0.00428903 0)
(0.00771931 0.0043342 0)
(0.00692795 0.00437502 0)
(0.00612956 0.00441143 0)
(0.00532495 0.00444338 0)
(0.00451492 0.00447085 0)
(0.00370031 0.00449379 0)
(0.00288193 0.00451217 0)
(0.00206062 0.00452598 0)
(0.00123721 0.0045352 0)
(0.000412543 0.00453981 0)
(0.000415381 -0.00546512 0)
(0.00124572 -0.00545957 0)
(0.00207479 -0.00544847 0)
(0.00290174 -0.00543184 0)
(0.00372574 -0.00540969 0)
(0.00454594 -0.00538207 0)
(0.00536152 -0.00534899 0)
(0.00617164 -0.0053105 0)
(0.00697548 -0.00526665 0)
(0.00777223 -0.00521749 0)
(0.00856109 -0.00516309 0)
(0.00934126 -0.0051035 0)
(0.010112 -0.0050388 0)
(0.0108724 -0.00496907 0)
(0.0116219 -0.00489439 0)
(0.0123596 -0.00481484 0)
(0.0130848 -0.00473053 0)
(0.0137968 -0.00464155 0)
(0.014495 -0.004548 0)
(0.0151785 -0.00444999 0)
(0.0158468 -0.00434764 0)
(0.0164992 -0.00424104 0)
(0.017135 -0.00413034 0)
(0.0177537 -0.00401564 0)
(0.0183547 -0.00389708 0)
(0.0189373 -0.00377478 0)
(0.019501 -0.00364887 0)
(0.0200454 -0.00351949 0)
(0.0205698 -0.00338677 0)
(0.0210737 -0.00325085 0)
(0.0215568 -0.00311187 0)
(0.0220186 -0.00296997 0)
(0.0224585 -0.0028253 0)
(0.0228763 -0.002678 0)
(0.0232715 -0.00252821 0)
(0.0236438 -0.00237609 0)
(0.0239928 -0.00222177 0)
(0.0243182 -0.00206542 0)
(0.0246197 -0.00190717 0)
(0.024897 -0.00174718 0)
(0.0251499 -0.00158559 0)
(0.0253782 -0.00142256 0)
(0.0255817 -0.00125824 0)
(0.0257601 -0.00109279 0)
(0.0259133 -0.00092634 0)
(0.0260412 -0.000759057 0)
(0.0261437 -0.00059109 0)
(0.0262206 -0.00042259 0)
(0.0262719 -0.00025371 0)
(0.0262976 -8.46014e-05 0)
(0.0262976 8.45834e-05 0)
(0.0262719 0.000253692 0)
(0.0262206 0.000422572 0)
(0.0261437 0.000591072 0)
(0.0260412 0.00075904 0)
(0.0259133 0.000926323 0)
(0.0257601 0.00109277 0)
(0.0255817 0.00125823 0)
(0.0253783 0.00142255 0)
(0.02515 0.00158558 0)
(0.024897 0.00174716 0)
(0.0246197 0.00190715 0)
(0.0243182 0.0020654 0)
(0.0239928 0.00222176 0)
(0.0236438 0.00237608 0)
(0.0232715 0.0025282 0)
(0.0228763 0.00267799 0)
(0.0224585 0.00282529 0)
(0.0220186 0.00296997 0)
(0.0215569 0.00311186 0)
(0.0210738 0.00325084 0)
(0.0205698 0.00338676 0)
(0.0200454 0.00351948 0)
(0.0195011 0.00364887 0)
(0.0189373 0.00377478 0)
(0.0183547 0.00389708 0)
(0.0177537 0.00401564 0)
(0.0171351 0.00413034 0)
(0.0164992 0.00424105 0)
(0.0158468 0.00434764 0)
(0.0151785 0.00445 0)
(0.014495 0.004548 0)
(0.0137969 0.00464155 0)
(0.0130848 0.00473054 0)
(0.0123596 0.00481485 0)
(0.0116219 0.00489439 0)
(0.0108724 0.00496908 0)
(0.010112 0.00503881 0)
(0.00934129 0.00510351 0)
(0.00856111 0.0051631 0)
(0.00777225 0.00521751 0)
(0.0069755 0.00526666 0)
(0.00617165 0.00531051 0)
(0.00536153 0.005349 0)
(0.00454596 0.00538208 0)
(0.00372575 0.00540971 0)
(0.00290175 0.00543185 0)
(0.00207479 0.00544848 0)
(0.00124572 0.00545958 0)
(0.000415382 0.00546514 0)
(0.000418749 -0.00639739 0)
(0.00125582 -0.00639088 0)
(0.00209161 -0.00637788 0)
(0.00292526 -0.0063584 0)
(0.00375592 -0.00633246 0)
(0.00458276 -0.0063001 0)
(0.00540492 -0.00626136 0)
(0.00622157 -0.00621628 0)
(0.00703188 -0.00616493 0)
(0.00783503 -0.00610735 0)
(0.00863022 -0.00604363 0)
(0.00941663 -0.00597384 0)
(0.0101935 -0.00589807 0)
(0.01096 -0.00581641 0)
(0.0117154 -0.00572895 0)
(0.0124589 -0.0056358 0)
(0.0131899 -0.00553706 0)
(0.0139075 -0.00543287 0)
(0.0146111 -0.00532332 0)
(0.0153 -0.00520856 0)
(0.0159735 -0.00508871 0)
(0.0166309 -0.0049639 0)
(0.0172717 -0.00483428 0)
(0.0178951 -0.00469999 0)
(0.0185007 -0.00456118 0)
(0.0190878 -0.00441799 0)
(0.0196558 -0.00427059 0)
(0.0202043 -0.00411912 0)
(0.0207326 -0.00396375 0)
(0.0212404 -0.00380464 0)
(0.0217271 -0.00364196 0)
(0.0221923 -0.00347586 0)
(0.0226355 -0.00330652 0)
(0.0230564 -0.0031341 0)
(0.0234545 -0.00295878 0)
(0.0238295 -0.00278072 0)
(0.0241811 -0.00260011 0)
(0.0245089 -0.00241711 0)
(0.0248126 -0.0022319 0)
(0.025092 -0.00204465 0)
(0.0253467 -0.00185555 0)
(0.0255767 -0.00166475 0)
(0.0257816 -0.00147245 0)
(0.0259613 -0.00127882 0)
(0.0261156 -0.00108404 0)
(0.0262444 -0.000888274 0)
(0.0263476 -0.000691711 0)
(0.0264251 -0.000494527 0)
(0.0264768 -0.000296898 0)
(0.0265026 -9.90028e-05 0)
(0.0265027 9.89816e-05 0)
(0.0264768 0.000296877 0)
(0.0264251 0.000494506 0)
(0.0263476 0.000691691 0)
(0.0262445 0.000888253 0)
(0.0261156 0.00108402 0)
(0.0259613 0.0012788 0)
(0.0257816 0.00147244 0)
(0.0255767 0.00166474 0)
(0.0253468 0.00185553 0)
(0.025092 0.00204464 0)
(0.0248126 0.00223188 0)
(0.0245089 0.0024171 0)
(0.0241811 0.0026001 0)
(0.0238296 0.00278071 0)
(0.0234546 0.00295876 0)
(0.0230564 0.00313409 0)
(0.0226356 0.0033065 0)
(0.0221923 0.00347585 0)
(0.0217271 0.00364195 0)
(0.0212404 0.00380464 0)
(0.0207327 0.00396375 0)
(0.0202043 0.00411912 0)
(0.0196559 0.00427058 0)
(0.0190878 0.00441799 0)
(0.0185007 0.00456118 0)
(0.0178952 0.00469999 0)
(0.0172717 0.00483428 0)
(0.016631 0.0049639 0)
(0.0159735 0.00508871 0)
(0.0153 0.00520856 0)
(0.0146111 0.00532333 0)
(0.0139075 0.00543287 0)
(0.0131899 0.00553707 0)
(0.012459 0.0056358 0)
(0.0117154 0.00572896 0)
(0.01096 0.00581642 0)
(0.0101935 0.00589808 0)
(0.00941666 0.00597386 0)
(0.00863024 0.00604365 0)
(0.00783506 0.00610737 0)
(0.0070319 0.00616494 0)
(0.00622159 0.0062163 0)
(0.00540493 0.00626138 0)
(0.00458277 0.00630012 0)
(0.00375593 0.00633248 0)
(0.00292527 0.00635842 0)
(0.00209161 0.0063779 0)
(0.00125582 0.0063909 0)
(0.00041875 0.0063974 0)
(0.000422651 -0.00733777 0)
(0.00126752 -0.00733031 0)
(0.00211109 -0.00731539 0)
(0.0029525 -0.00729303 0)
(0.00379089 -0.00726326 0)
(0.00462541 -0.00722612 0)
(0.0054552 -0.00718165 0)
(0.00627942 -0.00712991 0)
(0.00709722 -0.00707097 0)
(0.00790779 -0.00700489 0)
(0.0087103 -0.00693176 0)
(0.00950395 -0.00685166 0)
(0.0102879 -0.0067647 0)
(0.0110614 -0.00667099 0)
(0.0118237 -0.00657062 0)
(0.012574 -0.00646372 0)
(0.0133116 -0.00635042 0)
(0.0140357 -0.00623086 0)
(0.0147457 -0.00610516 0)
(0.0154407 -0.00597348 0)
(0.0161202 -0.00583596 0)
(0.0167835 -0.00569277 0)
(0.01743 -0.00554406 0)
(0.0180589 -0.00538999 0)
(0.0186698 -0.00523074 0)
(0.0192621 -0.00506648 0)
(0.0198351 -0.00489738 0)
(0.0203883 -0.00472363 0)
(0.0209212 -0.00454541 0)
(0.0214334 -0.00436291 0)
(0.0219243 -0.0041763 0)
(0.0223935 -0.00398579 0)
(0.0228405 -0.00379157 0)
(0.0232649 -0.00359382 0)
(0.0236664 -0.00339275 0)
(0.0240446 -0.00318856 0)
(0.0243991 -0.00298143 0)
(0.0247297 -0.00277157 0)
(0.0250359 -0.00255918 0)
(0.0253176 -0.00234446 0)
(0.0255745 -0.00212761 0)
(0.0258064 -0.00190883 0)
(0.026013 -0.00168833 0)
(0.0261942 -0.0014663 0)
(0.0263498 -0.00124295 0)
(0.0264797 -0.00101849 0)
(0.0265837 -0.00079311 0)
(0.0266618 -0.000567019 0)
(0.026714 -0.000340419 0)
(0.02674 -0.000113515 0)
(0.02674 0.000113491 0)
(0.026714 0.000340395 0)
(0.0266618 0.000566994 0)
(0.0265837 0.000793086 0)
(0.0264797 0.00101847 0)
(0.0263498 0.00124293 0)
(0.0261942 0.00146628 0)
(0.026013 0.00168831 0)
(0.0258064 0.00190881 0)
(0.0255746 0.00212759 0)
(0.0253177 0.00234444 0)
(0.025036 0.00255916 0)
(0.0247297 0.00277155 0)
(0.0243992 0.00298141 0)
(0.0240447 0.00318854 0)
(0.0236665 0.00339274 0)
(0.023265 0.00359381 0)
(0.0228405 0.00379156 0)
(0.0223935 0.00398578 0)
(0.0219243 0.00417629 0)
(0.0214334 0.0043629 0)
(0.0209213 0.0045454 0)
(0.0203883 0.00472363 0)
(0.0198351 0.00489738 0)
(0.0192621 0.00506647 0)
(0.0186699 0.00523074 0)
(0.018059 0.00538999 0)
(0.01743 0.00554406 0)
(0.0167836 0.00569277 0)
(0.0161203 0.00583597 0)
(0.0154408 0.00597348 0)
(0.0147457 0.00610517 0)
(0.0140358 0.00623087 0)
(0.0133116 0.00635043 0)
(0.0125741 0.00646373 0)
(0.0118238 0.00657063 0)
(0.0110615 0.006671 0)
(0.0102879 0.00676472 0)
(0.00950397 0.00685168 0)
(0.00871033 0.00693177 0)
(0.00790782 0.0070049 0)
(0.00709725 0.00707098 0)
(0.00627944 0.00712993 0)
(0.00545522 0.00718167 0)
(0.00462542 0.00722613 0)
(0.00379091 0.00726328 0)
(0.00295251 0.00729305 0)
(0.0021111 0.00731541 0)
(0.00126752 0.00733033 0)
(0.000422652 0.00733779 0)
(0.000427093 -0.00828749 0)
(0.00128084 -0.00827905 0)
(0.00213327 -0.00826218 0)
(0.00298352 -0.00823691 0)
(0.00383071 -0.00820326 0)
(0.00467397 -0.00816128 0)
(0.00551244 -0.00811102 0)
(0.00634527 -0.00805254 0)
(0.00717161 -0.00798592 0)
(0.00799062 -0.00791123 0)
(0.00880147 -0.00782858 0)
(0.00960334 -0.00773806 0)
(0.0103954 -0.00763978 0)
(0.0111769 -0.00753387 0)
(0.011947 -0.00742044 0)
(0.012705 -0.00729964 0)
(0.0134501 -0.00717162 0)
(0.0141816 -0.00703651 0)
(0.0148988 -0.00689448 0)
(0.0156009 -0.00674569 0)
(0.0162872 -0.00659032 0)
(0.0169572 -0.00642853 0)
(0.0176101 -0.00626052 0)
(0.0182453 -0.00608646 0)
(0.0188623 -0.00590656 0)
(0.0194604 -0.005721 0)
(0.020039 -0.00552999 0)
(0.0205977 -0.00533373 0)
(0.0211358 -0.00513242 0)
(0.0216529 -0.00492629 0)
(0.0221486 -0.00471553 0)
(0.0226223 -0.00450037 0)
(0.0230736 -0.00428102 0)
(0.0235021 -0.0040577 0)
(0.0239075 -0.00383064 0)
(0.0242893 -0.00360005 0)
(0.0246471 -0.00336616 0)
(0.0249808 -0.00312919 0)
(0.02529 -0.00288937 0)
(0.0255743 -0.00264692 0)
(0.0258336 -0.00240208 0)
(0.0260676 -0.00215506 0)
(0.0262762 -0.0019061 0)
(0.0264591 -0.00165543 0)
(0.0266161 -0.00140327 0)
(0.0267472 -0.00114985 0)
(0.0268522 -0.000895397 0)
(0.0269311 -0.000640145 0)
(0.0269837 -0.000384322 0)
(0.02701 -0.000128155 0)
(0.02701 0.000128127 0)
(0.0269837 0.000384294 0)
(0.0269311 0.000640118 0)
(0.0268522 0.000895369 0)
(0.0267472 0.00114982 0)
(0.0266161 0.00140324 0)
(0.0264591 0.0016554 0)
(0.0262762 0.00190608 0)
(0.0260677 0.00215504 0)
(0.0258336 0.00240205 0)
(0.0255743 0.0026469 0)
(0.02529 0.00288935 0)
(0.0249808 0.00312917 0)
(0.0246472 0.00336614 0)
(0.0242893 0.00360003 0)
(0.0239075 0.00383062 0)
(0.0235022 0.00405769 0)
(0.0230737 0.004281 0)
(0.0226223 0.00450036 0)
(0.0221486 0.00471552 0)
(0.021653 0.00492628 0)
(0.0211358 0.00513241 0)
(0.0205977 0.00533372 0)
(0.020039 0.00552998 0)
(0.0194604 0.005721 0)
(0.0188623 0.00590656 0)
(0.0182454 0.00608646 0)
(0.0176101 0.00626052 0)
(0.0169572 0.00642853 0)
(0.0162873 0.00659032 0)
(0.0156009 0.0067457 0)
(0.0148988 0.00689448 0)
(0.0141817 0.00703652 0)
(0.0134502 0.00717163 0)
(0.0127051 0.00729966 0)
(0.0119471 0.00742046 0)
(0.0111769 0.00753388 0)
(0.0103954 0.0076398 0)
(0.00960337 0.00773807 0)
(0.0088015 0.0078286 0)
(0.00799065 0.00791125 0)
(0.00717163 0.00798593 0)
(0.00634529 0.00805256 0)
(0.00551246 0.00811104 0)
(0.00467398 0.0081613 0)
(0.00383072 0.00820328 0)
(0.00298353 0.00823693 0)
(0.00213328 0.0082622 0)
(0.00128084 0.00827907 0)
(0.000427094 0.00828751 0)
(0.000432082 -0.00924774 0)
(0.0012958 -0.00923832 0)
(0.00215819 -0.00921948 0)
(0.00301836 -0.00919125 0)
(0.00387542 -0.00915367 0)
(0.0047285 -0.00910678 0)
(0.00557673 -0.00905065 0)
(0.00641924 -0.00898534 0)
(0.00725516 -0.00891093 0)
(0.00808364 -0.00882753 0)
(0.00890385 -0.00873523 0)
(0.00971495 -0.00863414 0)
(0.0105161 -0.0085244 0)
(0.0113066 -0.00840613 0)
(0.0120855 -0.00827948 0)
(0.0128521 -0.0081446 0)
(0.0136057 -0.00800165 0)
(0.0143455 -0.0078508 0)
(0.0150707 -0.00769223 0)
(0.0157807 -0.00752613 0)
(0.0164747 -0.00735267 0)
(0.0171521 -0.00717207 0)
(0.0178123 -0.00698453 0)
(0.0184545 -0.00679024 0)
(0.0190783 -0.00658944 0)
(0.0196829 -0.00638234 0)
(0.0202679 -0.00616915 0)
(0.0208326 -0.00595012 0)
(0.0213766 -0.00572547 0)
(0.0218993 -0.00549544 0)
(0.0224003 -0.00526026 0)
(0.0228791 -0.00502017 0)
(0.0233352 -0.00477543 0)
(0.0237683 -0.00452626 0)
(0.0241779 -0.00427292 0)
(0.0245637 -0.00401566 0)
(0.0249254 -0.00375473 0)
(0.0252626 -0.00349037 0)
(0.0255749 -0.00322283 0)
(0.0258623 -0.00295238 0)
(0.0261243 -0.00267926 0)
(0.0263607 -0.00240372 0)
(0.0265714 -0.00212602 0)
(0.0267562 -0.00184641 0)
(0.0269149 -0.00156515 0)
(0.0270473 -0.00128249 0)
(0.0271534 -0.000998684 0)
(0.027233 -0.000713987 0)
(0.0272862 -0.000428653 0)
(0.0273128 -0.000142937 0)
(0.0273128 0.000142906 0)
(0.0272862 0.000428622 0)
(0.0272331 0.000713956 0)
(0.0271534 0.000998654 0)
(0.0270473 0.00128246 0)
(0.0269149 0.00156512 0)
(0.0267562 0.00184638 0)
(0.0265714 0.00212599 0)
(0.0263607 0.00240369 0)
(0.0261243 0.00267923 0)
(0.0258623 0.00295235 0)
(0.025575 0.00322281 0)
(0.0252626 0.00349034 0)
(0.0249254 0.00375471 0)
(0.0245638 0.00401564 0)
(0.024178 0.0042729 0)
(0.0237683 0.00452624 0)
(0.0233353 0.00477541 0)
(0.0228791 0.00502016 0)
(0.0224004 0.00526025 0)
(0.0218994 0.00549543 0)
(0.0213767 0.00572546 0)
(0.0208327 0.00595011 0)
(0.0202679 0.00616915 0)
(0.019683 0.00638233 0)
(0.0190783 0.00658944 0)
(0.0184546 0.00679024 0)
(0.0178123 0.00698453 0)
(0.0171522 0.00717208 0)
(0.0164747 0.00735268 0)
(0.0157807 0.00752613 0)
(0.0150707 0.00769224 0)
(0.0143455 0.00785081 0)
(0.0136057 0.00800166 0)
(0.0128522 0.00814461 0)
(0.0120855 0.00827949 0)
(0.0113066 0.00840615 0)
(0.0105162 0.00852442 0)
(0.00971498 0.00863416 0)
(0.00890388 0.00873525 0)
(0.00808367 0.00882755 0)
(0.00725518 0.00891096 0)
(0.00641926 0.00898536 0)
(0.00557675 0.00905067 0)
(0.00472852 0.00910681 0)
(0.00387543 0.00915369 0)
(0.00301837 0.00919128 0)
(0.0021582 0.0092195 0)
(0.00129581 0.00923834 0)
(0.000432084 0.00924777 0)
(0.000437627 -0.0102198 0)
(0.00131243 -0.0102093 0)
(0.00218588 -0.0101885 0)
(0.00305707 -0.0101573 0)
(0.00392511 -0.0101157 0)
(0.00478911 -0.0100638 0)
(0.00564817 -0.0100017 0)
(0.00650142 -0.0099295 0)
(0.00734799 -0.0098472 0)
(0.008187 -0.00975494 0)
(0.00901761 -0.00965285 0)
(0.00983897 -0.00954104 0)
(0.0106503 -0.00941967 0)
(0.0114506 -0.00928886 0)
(0.0122393 -0.00914879 0)
(0.0130156 -0.00899963 0)
(0.0137785 -0.00884155 0)
(0.0145274 -0.00867475 0)
(0.0152616 -0.00849941 0)
(0.0159804 -0.00831574 0)
(0.0166829 -0.00812396 0)
(0.0173686 -0.00792429 0)
(0.0180368 -0.00771695 0)
(0.0186869 -0.00750217 0)
(0.0193182 -0.00728019 0)
(0.0199301 -0.00705126 0)
(0.0205221 -0.00681562 0)
(0.0210935 -0.00657353 0)
(0.021644 -0.00632524 0)
(0.0221729 -0.00607102 0)
(0.0226798 -0.00581112 0)
(0.0231642 -0.0055458 0)
(0.0236256 -0.00527535 0)
(0.0240638 -0.00500003 0)
(0.0244781 -0.00472011 0)