/*--------------------------------*- C++ -*----------------------------------*\
  =========                 |
  \\      /  F ield         | OpenFOAM: The Open Source CFD Toolbox
   \\    /   O peration     | Website:  https://openfoam.org
    \\  /    A nd           | Version:  6
     \\/     M anipulation  |
\*---------------------------------------------------------------------------*/
FoamFile
{
    version     2.0;
    format      ascii;
    class       volScalarField;
    location    "800";
    object      alphat;
}
// * * * * * * * * * * * * * * * * * * * * * * * * * * * * * * * * * * * * * //

dimensions      [1 -1 -1 0 0 0 0];

internalField   nonuniform List<scalar> 
16000
(
5.997065e-06
2.4725907e-05
2.6986312e-05
3.8400263e-05
3.3037702e-05
4.2534589e-05
4.1968061e-05
4.7376855e-05
4.8930887e-05
4.9039852e-05
4.9868552e-05
4.8270763e-05
4.846265e-05
4.7190502e-05
4.7220068e-05
4.6619187e-05
4.6816071e-05
4.6849262e-05
4.7335233e-05
4.7867031e-05
4.8699774e-05
4.9679402e-05
5.0911351e-05
5.2350557e-05
5.405089e-05
5.6016737e-05
5.8291603e-05
6.0907882e-05
6.3918156e-05
6.7380156e-05
7.1368955e-05
7.5974888e-05
8.1309963e-05
8.7510789e-05
9.4745668e-05
0.00010322112
0.00011319111
0.00012496789
0.00013893556
0.00015556632
0.00017544071
0.00019927436
0.00022794641
0.00026253508
0.00030436043
0.00035503327
0.00041650763
0.00049113891
0.00058174161
0.00069164128
0.00082471366
0.00098542476
0.0011789121
0.0012241953
0.0012254709
0.0012257058
0.0012251878
0.001224245
0.0012230946
0.0012217646
0.0012201198
0.0012181962
0.001215923
0.0012132153
0.0012100117
0.0012063511
0.0012023757
0.001198464
0.0011947901
0.0011916283
0.0011885968
0.0011863544
0.0011836817
0.0011823978
0.0011796919
0.0011808219
0.001177166
0.0011845704
0.0011742238
0.001183716
4.9959271e-06
2.4463251e-05
2.4746632e-05
3.5120431e-05
3.0520783e-05
3.8364387e-05
3.8663592e-05
4.2352563e-05
4.4665261e-05
4.3717237e-05
4.4990593e-05
4.2979273e-05
4.3354408e-05
4.1937199e-05
4.2043633e-05
4.1441419e-05
4.1646363e-05
4.1656536e-05
4.2097623e-05
4.2567064e-05
4.3310778e-05
4.4183103e-05
4.5280602e-05
4.6562238e-05
4.8075378e-05
4.9824175e-05
5.1846439e-05
5.4171015e-05
5.6843755e-05
5.9915455e-05
6.3451734e-05
6.7531757e-05
7.2253604e-05
7.7736738e-05
8.4128241e-05
9.1608469e-05
0.00010039894
0.00011077165
0.00012306079
0.00013767654
0.00015512192
0.00017601624
0.00020111924
0.00023136113
0.00026787943
0.00031206205
0.00036559385
0.00043051016
0.00050925412
0.0006047336
0.00072037715
0.00086018508
0.001028814
0.0012230188
0.0012245168
0.0012248898
0.0012244189
0.0012234655
0.0012222975
0.0012209912
0.0012195138
0.0012177455
0.0012156238
0.0012130569
0.0012099747
0.0012063826
0.0012024226
0.001198456
0.0011947639
0.0011915173
0.0011885358
0.0011861372
0.0011836745
0.0011822671
0.0011797611
0.0011801462
0.0011770632
0.0011833728
0.0011742607
0.001183407
4.2694442e-06
2.4198931e-05
2.2990118e-05
3.2320647e-05
2.8519658e-05
3.4809208e-05
3.6157852e-05
3.7918263e-05
4.1013639e-05
3.8857361e-05
4.0523235e-05
3.8097458e-05
3.8623144e-05
3.7156233e-05
3.7335152e-05
3.675575e-05
3.6967068e-05
3.6973786e-05
3.7380376e-05
3.780782e-05
3.8481623e-05
3.9271498e-05
4.0261854e-05
4.1418159e-05
4.2780798e-05
4.4354977e-05
4.6173451e-05
4.8262641e-05
5.0662997e-05
5.3419963e-05
5.6591736e-05
6.0248734e-05
6.4478063e-05
6.9385808e-05
7.5102418e-05
8.1787824e-05
8.9638195e-05
9.889428e-05
0.00010985149
0.00012287186
0.0001383983
0.00015697554
0.00017927064
0.00020609897
0.00023845588
0.00027755475
0.00032486807
0.00038217526
0.00045161688
0.00053575056
0.00063761157
0.00076077267
0.00090942102
0.0010884758
0.0012235909
0.0012241163
0.0012236999
0.0012227315
0.0012215301
0.0012201989
0.001218724
0.0012170678
0.0012151313
0.0012127375
0.0012098065
0.0012063173
0.0012023916
0.0011983945
0.0011946779
0.0011913852
0.0011884197
0.0011859394
0.0011835878
0.0011821079
0.0011797869
0.0011796892
0.0011770214
0.0011823357
0.0011742451
0.0011824921
3.8018131e-06
2.3844298e-05
2.150994e-05
2.9699528e-05
2.6640368e-05
3.1559257e-05
3.3722345e-05
3.3948207e-05
3.746471e-05
3.4518998e-05
3.6323904e-05
3.3717129e-05
3.4307223e-05
3.2922391e-05
3.3118664e-05
3.2597904e-05
3.279975e-05
3.2819533e-05
3.3193315e-05
3.3591692e-05
3.420619e-05
3.4928961e-05
3.5829199e-05
3.6880576e-05
3.8116411e-05
3.9543491e-05
4.1190142e-05
4.3081019e-05
4.5252174e-05
4.7744768e-05
5.0610988e-05
5.3914255e-05
5.7732857e-05
6.2162197e-05
6.7319455e-05
7.3348306e-05
8.0424918e-05
8.8765292e-05
9.8634564e-05
0.00011035733
0.00012432967
0.00014103873
0.00016108051
0.00018518255
0.00021423187
0.00024930963
0.00029172761
0.00034307166
0.00040525271
0.0004805607
0.00057172619
0.00068198524
0.00081515378
0.00097573667
0.0011690616
0.0012233674
0.0012230157
0.0012220308
0.0012207883
0.0012194204
0.0012179183
0.0012162567
0.0012143899
0.0012122077
0.0012094658
0.0012061186
0.0012022572
0.0011982523
0.0011945198
0.0011912039
0.0011882492
0.001185724
0.0011834463
0.0011818219
0.0011797778
0.0011794189
0.0011769948
0.0011812882
0.0011742642
0.0011819429
3.4163568e-06
2.3359902e-05
2.0317843e-05
2.7269329e-05
2.4914776e-05
2.8590414e-05
3.142917e-05
3.0354291e-05
3.4054582e-05
3.0583656e-05
3.2376772e-05
2.9810735e-05
3.0383933e-05
2.9132511e-05
2.9317499e-05
2.8872922e-05
2.9059682e-05
2.9101132e-05
2.9446483e-05
2.9824581e-05
3.0389643e-05
3.1057291e-05
3.1881854e-05
3.2844969e-05
3.39736e-05
3.5276112e-05
3.6777138e-05
3.8499875e-05
4.0476803e-05
4.274557e-05
4.5353426e-05
4.8358032e-05
5.1830489e-05
5.5857432e-05
6.0545236e-05
6.6024395e-05
7.2454858e-05
8.0032629e-05
8.8998443e-05
9.964717e-05
0.00011233746
0.00012751074
0.00014570688
0.00016758454
0.00019394583
0.00022576891
0.00026424063
0.00031079678
0.00036717019
0.00043544222
0.00051810407
0.00061812334
0.000739021
0.00088496912
0.0010609305
0.0012226285
0.0012223575
0.0012213578
0.0012200691
0.0012186587
0.0012171208
0.0012154342
0.0012135656
0.0012114527
0.0012089421
0.0012057809
0.001202019
0.0011980291
0.0011942927
0.001190972
0.0011880293
0.0011854867
0.0011832598
0.0011815456
0.0011797182
0.0011791518
0.0011769778
0.001180358
0.0011742827
0.0011811697
3.0898672e-06
2.0255497e-05
1.9263429e-05
2.4973711e-05
2.3350157e-05
2.5847716e-05
2.9267462e-05
2.708588e-05
3.0796168e-05
2.7050273e-05
2.8711183e-05
2.6349499e-05
2.6854015e-05
2.5763328e-05
2.5920172e-05
2.5558102e-05
2.5727739e-05
2.5794128e-05
2.6115579e-05
2.6479183e-05
2.7003525e-05
2.7625943e-05
2.8387588e-05
2.9277065e-05
3.0316095e-05
3.151431e-05
3.2893396e-05
3.4475318e-05
3.6289696e-05
3.83713e-05
4.0763368e-05
4.3518856e-05
4.6703024e-05
5.0395395e-05
5.4693598e-05
5.9717405e-05
6.5613741e-05
7.2562532e-05
8.078475e-05
9.055172e-05
0.00010219214
0.00011611084
0.00013280312
0.00015287304
0.00017705519
0.00020624613
0.00024153383
0.00028423485
0.00033594041
0.00039856476
0.00047440552
0.00056621027
0.00067725396
0.00081143259
0.00097339484
0.0011686852
0.0012217112
0.0012207017
0.001219363
0.0012179055
0.001216327
0.0012146081
0.0012127211
0.0012106209
0.0012082188
0.0012052933
0.0012016725
0.0011977225
0.0011939963
0.0011906871
0.0011877629
0.0011852239
0.0011830365
0.0011812718
0.0011796089
0.0011788775
0.0011769667
0.0011795987
0.0011743253
0.0011806247
2.7854706e-06
1.9145449e-05
1.7999049e-05
2.2803848e-05
2.1934772e-05
2.3329084e-05
2.7204889e-05
2.4114446e-05
2.7687252e-05
2.3938395e-05
2.5383825e-05
2.3284499e-05
2.3690795e-05
2.2768406e-05
2.288937e-05
2.2607429e-05
2.2760458e-05
2.2851062e-05
2.3152782e-05
2.350522e-05
2.3995916e-05
2.4580597e-05
2.5289668e-05
2.611727e-05
2.7081066e-05
2.8191527e-05
2.9468056e-05
3.0931537e-05
3.2609263e-05
3.4533661e-05
3.6744669e-05
3.9291327e-05
4.223417e-05
4.5646873e-05
4.9619897e-05
5.4264335e-05
5.971649e-05
6.6143233e-05
7.3749473e-05
8.278775e-05
9.3562528e-05
0.00010644923
0.00012190735
0.00014049743
0.00016289997
0.00018994641
0.00022264606
0.00026222027
0.00031014729
0.0003682076
0.00043854271
0.0005237212
0.00062681557
0.00075149523
0.00090214683
0.0010840265
0.0012210626
0.0012200528
0.0012186617
0.0012171543
0.001215532
0.0012137769
0.0012118644
0.0012097574
0.0012073929
0.0012046448
0.0012012144
0.0011973316
0.0011936312
0.0011903486
0.0011874523
0.001184933
0.0011827798
0.0011809985
0.0011794567
0.0011785562
0.0011769534
0.0011789439
0.00117437
0.0011800849
2.5198217e-06
1.8611521e-05
1.6800674e-05
2.0771859e-05
2.0631271e-05
2.0991612e-05
2.5170648e-05
2.1448281e-05
2.4692026e-05
2.1175607e-05
2.2362307e-05
2.0555632e-05
2.0855334e-05
2.0097944e-05
2.018465e-05
1.9977412e-05
2.0117824e-05
2.0231383e-05
2.0518527e-05
2.086288e-05
2.1326858e-05
2.1880716e-05
2.2546694e-05
2.3323061e-05
2.422443e-05
2.5261872e-05
2.6452992e-05
2.7817718e-05
2.9381508e-05
3.1174833e-05
3.3235012e-05
3.5607785e-05
3.8349887e-05
4.1530222e-05
4.5233382e-05
4.9563435e-05
5.4648063e-05
6.0643592e-05
6.7741727e-05
7.6180218e-05
8.6243843e-05
9.8284296e-05
0.00011273216
0.00013011331
0.00015106449
0.00017636472
0.0002069603
0.00024399581
0.00028885859
0.00034322067
0.00040909659
0.00048890802
0.00058555972
0.00070253172
0.00084399263
0.0010149516
0.0012203946
0.0012194002
0.001217956
0.0012163971
0.0012147293
0.0012129359
0.0012109944
0.0012088727
0.0012065202
0.0012038443
0.0012006423
0.0011968575
0.001193199
0.0011899579
0.0011871008
0.001184615
0.0011824957
0.0011807231
0.0011792707
0.0011782435
0.0011769321
0.0011783359
0.0011744226
0.0011796272
2.2901593e-06
1.8025178e-05
1.5685963e-05
1.8840183e-05
1.9414487e-05
1.878661e-05
2.3121125e-05
1.9058131e-05
2.1839905e-05
1.870575e-05
1.9625823e-05
1.8115838e-05
1.8315871e-05
1.7711651e-05
1.7771073e-05
1.7630989e-05
1.7764169e-05
1.7898846e-05
1.8176492e-05
1.8515398e-05
1.8958798e-05
1.948792e-05
2.0119029e-05
2.0853424e-05
2.1703494e-05
2.2680592e-05
2.3801048e-05
2.5083903e-05
2.6553169e-05
2.8237726e-05
3.0172752e-05
3.2401297e-05
3.4976979e-05
3.7964841e-05
4.144474e-05
4.5514968e-05
5.0296306e-05
5.5936642e-05
6.2616589e-05
7.0562608e-05
8.004338e-05
9.1391461e-05
0.00010501407
0.00012140956
0.00014117921
0.00016505986
0.00019394733
0.00022892415
0.00027130453
0.00032267293
0.00038494072
0.00046040947
0.00055184602
0.00066257325
0.00079658119
0.00095867259
0.0011546204
0.0012187333
0.0012172369
0.0012156261
0.0012139126
0.0012120803
0.0012101085
0.0012079689
0.0012056194
0.0012029905
0.001199954
0.0011963031
0.0011927024
0.0011895172
0.0011867117
0.0011842714
0.0011821901
0.0011804461
0.00117906
0.0011779629
0.0011768997
0.0011777813
0.0011744903
0.0011791757
2.0911071e-06
1.7357467e-05
1.4645681e-05
1.6991252e-05
1.8267305e-05
1.6788311e-05
2.1036258e-05
1.6909511e-05
1.919323e-05
1.6492407e-05
1.7162298e-05
1.5932375e-05
1.6048125e-05
1.5579548e-05
1.5620728e-05
1.5539112e-05
1.5670425e-05
1.5824191e-05
1.6096809e-05
1.6432554e-05
1.6860784e-05
1.737055e-05
1.7974045e-05
1.8674608e-05
1.9483141e-05
2.0411051e-05
2.1473728e-05
2.2689449e-05
2.4081078e-05
2.5676224e-05
2.7508351e-05
2.9618273e-05
3.2057123e-05
3.4886842e-05
3.8183463e-05
4.204059e-05
4.6573552e-05
5.1923608e-05
5.8261807e-05
6.5806488e-05
7.4813159e-05
8.5598967e-05
9.8552118e-05
0.00011414974
0.00013296413
0.00015569808
0.00018320739
0.00021652427
0.00025690447
0.00030586165
0.00036522362
0.0004371943
0.00052442753
0.00063011668
0.00075810434
0.00091302165
0.0011004486
0.0012180412
0.0012164954
0.0012148338
0.0012130755
0.001211205
0.0012092034
0.0012070449
0.0012046935
0.0012020929
0.0011991465
0.0011956726
0.0011921456
0.0011890302
0.0011862888
0.001183905
0.0011818686
0.0011801675
0.0011788317
0.0011777128
0.0011768556
0.0011772921
0.0011745747
0.0011787345
1.9183453e-06
1.6579226e-05
1.3678445e-05
1.5211143e-05
1.7160199e-05
1.497752e-05
1.8906525e-05
1.497165e-05
1.6762305e-05
1.4504764e-05
1.495602e-05
1.397703e-05
1.4027944e-05
1.3675508e-05
1.3707862e-05
1.3676262e-05
1.3810585e-05
1.3981626e-05
1.4192649e-05
1.4517614e-05
1.4928063e-05
1.5417361e-05
1.5994285e-05
1.6662985e-05
1.743295e-05
1.8315273e-05
1.9324372e-05
2.0477646e-05
2.1796797e-05
2.330823e-05
2.5043854e-05
2.7042316e-05
2.9352537e-05
3.2033642e-05
3.5158252e-05
3.8815791e-05
4.3116733e-05
4.819704e-05
5.4580721e-05
6.18018e-05
7.0427011e-05
8.0761344e-05
9.317724e-05
0.00010813617
0.00012618681
0.00014800443
0.00017441375
0.00020640613
0.00024519118
0.00029222589
0.00034927102
0.00041845189
0.00050233103
0.00060399684
0.00072717176
0.00087634697
0.001056944
0.0012173135
0.0012157235
0.0012140133
0.0012122123
0.0012103058
0.0012082759
0.0012060994
0.001203745
0.0012011662
0.0011982874
0.0011949722
0.0011915336
0.0011885014
0.0011858365
0.0011835195
0.0011815367
0.0011798886
0.001178593
0.0011774891
0.0011767981
0.0011768805
0.0011746754
0.0011783416
1.7682821e-06
1.5675164e-05
1.2774095e-05
1.3488851e-05
1.6048944e-05
1.3332083e-05
1.6752292e-05
1.3216998e-05
1.4550846e-05
1.2715866e-05
1.2988537e-05
1.2225657e-05
1.2232221e-05
1.1977154e-05
1.1951859e-05
1.1941412e-05
1.2070655e-05
1.2250928e-05
1.2519027e-05
1.2852252e-05
1.326169e-05
1.3744712e-05
1.4308788e-05
1.4959195e-05
1.5704889e-05
1.6557013e-05
1.7529518e-05
1.863933e-05
1.9907419e-05
2.1359435e-05
2.3026363e-05
2.4945172e-05
2.7163315e-05
2.9737987e-05
3.2739389e-05
3.6253894e-05
4.0388395e-05
4.527617e-05
5.1076546e-05
5.7986801e-05
6.6248185e-05
7.6155365e-05
8.8751361e-05
0.00010320817
0.00012065914
0.00014175712
0.00016730388
0.0001982573
0.00023579155
0.00028131897
0.00033654724
0.00040353945
0.00048478564
0.00058329074
0.0007026817
0.00084733869
0.0010225572
0.00121654
0.0012149137
0.0012131584
0.001211318
0.0012093786
0.0012073233
0.001205131
0.0012027744
0.0012002149
0.0011973935
0.0011942096
0.0011908729
0.0011879364
0.0011853594
0.0011831186
0.0011811991
0.001179611
0.0011783509
0.0011772875
0.0011767246
0.0011765481
0.0011747891
0.0011780244
1.6386754e-06
1.464157e-05
1.1933056e-05
1.1923836e-05
1.4895452e-05
1.1831692e-05
1.4672442e-05
1.1623354e-05
1.2559499e-05
1.110444e-05
1.1241444e-05
1.0659054e-05
1.055616e-05
1.0354839e-05
1.037986e-05
1.0423274e-05
1.0575461e-05
1.0780035e-05
1.1059428e-05
1.1400266e-05
1.1810223e-05
1.2289249e-05
1.2844133e-05
1.3480919e-05
1.4208159e-05
1.5037025e-05
1.5981124e-05
1.7056966e-05
1.8284927e-05
1.969007e-05
2.130285e-05
2.3158701e-05
2.5304057e-05
2.7794668e-05
3.0698953e-05
3.4100916e-05
3.8104168e-05
4.2840145e-05
4.8463801e-05
5.5167835e-05
6.3187852e-05
7.2812154e-05
8.4395254e-05
9.8362334e-05
0.00011523493
0.00013677178
0.00016166063
0.00019182042
0.00022839952
0.0002727759
0.00032661631
0.00039193583
0.00047116851
0.00056725477
0.00068374804
0.00082494445
0.00099604496
0.0012033365
0.0012140599
0.0012122639
0.0012103885
0.0012084204
0.0012063437
0.001204139
0.0012017822
0.0011992411
0.0011964695
0.0011933939
0.0011901711
0.0011873413
0.0011848623
0.0011827068
0.0011808601
0.0011793361
0.0011781109
0.0011771047
0.0011766325
0.0011762806
0.0011749103
0.0011777596
1.527071e-06
1.3481627e-05
1.1147213e-05
1.0503757e-05
1.3660415e-05
1.0462831e-05
1.270355e-05
1.0176232e-05
1.0786197e-05
9.6554962e-06
9.6030036e-06
9.1226338e-06
9.0715243e-06
8.9611774e-06
9.0159e-06
9.102572e-06
9.2759046e-06
9.5010167e-06
9.7914136e-06
1.013974e-05
1.0551791e-05
1.1029106e-05
1.1578169e-05
1.2205615e-05
1.2919639e-05
1.3731442e-05
1.4654387e-05
1.5704641e-05
1.6902068e-05
1.827125e-05
1.9765855e-05
2.1558678e-05
2.3631149e-05
2.6037592e-05
2.8844792e-05
3.2134654e-05
3.6214441e-05
4.0835201e-05
4.6325312e-05
5.287425e-05
6.0713412e-05
7.0124975e-05
8.1459674e-05
9.5133385e-05
0.00011165882
0.00013166221
0.00015589643
0.00018688045
0.00022275987
0.00026629305
0.0003191163
0.00038320925
0.00046096454
0.0005552749
0.0006696397
0.00080829514
0.00097637517
0.0011800949
0.0012131575
0.0012113263
0.0012094211
0.0012074292
0.0012053359
0.0012031232
0.0012007695
0.0011982476
0.0011955209
0.0011925353
0.0011894366
0.0011867227
0.0011843503
0.0011822883
0.0011805231
0.0011790657
0.0011778779
0.0011769398
0.0011765189
0.0011760066
0.0011750329
0.0011775443
1.4321545e-06
1.2210028e-05
1.0407168e-05
9.213022e-06
1.2306031e-05
9.2099917e-06
1.0873938e-05
8.8596783e-06
9.2213361e-06
8.2105835e-06
8.1390858e-06
7.8162284e-06
7.7925801e-06
7.7533887e-06
7.8363231e-06
7.9582496e-06
8.151242e-06
8.3942677e-06
8.6955944e-06
9.0516666e-06
9.4673917e-06
9.9452381e-06
1.0491569e-05
1.108661e-05
1.178526e-05
1.2578296e-05
1.3478598e-05
1.4501775e-05
1.566696e-05
1.6997821e-05
1.8523209e-05
2.0278552e-05
2.2307413e-05
2.4663441e-05
2.741271e-05
3.0636648e-05
3.4435535e-05
3.8932875e-05
4.428061e-05
5.066539e-05
5.8315143e-05
6.8018542e-05
7.9180297e-05
9.26504e-05
0.00010893355
0.00012865093
0.00015254478
0.00018152334
0.00021865284
0.00026160939
0.00031373665
0.00037698985
0.00045373326
0.00054682697
0.00065973362
0.0007966504
0.00096266858
0.0011639595
0.0012122038
0.0012103433
0.0012084141
0.0012064043
0.0012043
0.0012020845
0.0011997383
0.001197238
0.0011945537
0.0011916452
0.0011886783
0.0011860875
0.0011838282
0.0011818668
0.0011801905
0.0011788017
0.0011776562
0.0011767882
0.0011763901
0.001175778
0.001175143
0.0011773499
1.3536925e-06
1.0840715e-05
9.7046934e-06
8.0407429e-06
1.0874578e-05
8.0612724e-06
9.2185274e-06
7.6019994e-06
7.6443236e-06
6.9594207e-06
6.8908338e-06
6.6883836e-06
6.694341e-06
6.7111194e-06
6.8206736e-06
6.9720228e-06
7.1834431e-06
7.4426537e-06
7.7550487e-06
8.1193836e-06
8.5201005e-06
8.9950916e-06
9.5362246e-06
1.0150109e-05
1.0845231e-05
1.1631963e-05
1.2523159e-05
1.3534302e-05
1.4684221e-05
1.5996386e-05
1.7499357e-05
1.9228235e-05
2.1226229e-05
2.3546586e-05
2.6254946e-05
2.9432206e-05
3.3177981e-05
3.7614897e-05
4.2893828e-05
4.9200493e-05
5.6763091e-05
6.5857535e-05
7.6821224e-05
9.0062336e-05
0.00010695709
0.00012649989
0.00015018429
0.000178916
0.00021377963
0.00025849309
0.00031020152
0.0003729492
0.00044908376
0.0005414461
0.00065347755
0.00078935483
0.00095414911
0.0011540144
0.0012111978
0.0012093145
0.0012073677
0.0012053462
0.0012032369
0.0012010245
0.0011986913
0.0011962162
0.0011935745
0.0011907351
0.0011879054
0.0011854422
0.0011833003
0.0011814451
0.0011798631
0.0011785451
0.0011774496
0.0011766494
0.0011762479
0.0011755843
0.0011752266
0.0011771594
1.2928905e-06
9.3846324e-06
9.0165575e-06
6.9742552e-06
9.4059721e-06
6.9809907e-06
8.3302927e-06
6.3969456e-06
6.3386694e-06
5.881372e-06
5.8301799e-06
5.71825e-06
5.7547688e-06
5.8166904e-06
5.9512648e-06
6.127964e-06
6.3569037e-06
6.6312251e-06
6.9361686e-06
7.3048705e-06
7.7279769e-06
8.2092851e-06
8.7543391e-06
9.3699979e-06
1.0064826e-05
1.0849171e-05
1.1735889e-05
1.274045e-05
1.3881349e-05
1.5181999e-05
1.6670807e-05
1.8382725e-05
2.0360839e-05
2.265829e-05
2.5340636e-05
2.8488699e-05
3.2201982e-05
3.6602816e-05
4.1841482e-05
4.8102852e-05
5.5616245e-05
6.4656358e-05
7.5561085e-05
8.8738041e-05
0.0001046833
0.00012399949
0.00014868448
0.00017730335
0.00021203592
0.00025418987
0.00030825395
0.00037078113
0.00044665127
0.00053869848
0.00065035572
0.00078579617
0.00095009076
0.0011494004
0.0012101406
0.0012082414
0.0012062835
0.0012042567
0.0012021488
0.0011999458
0.0011976315
0.0011951869
0.0011925903
0.0011898164
0.001187127
0.0011847933
0.0011827707
0.0011810249
0.0011795399
0.0011782945
0.0011772579
0.0011765209
0.0011760956
0.001175413
0.0011752821
0.0011769685
1.2552562e-06
7.8680255e-06
8.3061837e-06
6.0161346e-06
7.9720344e-06
6.6805231e-06
6.493794e-06
5.3113055e-06
5.2615114e-06
4.9525352e-06
4.9308787e-06
4.8896966e-06
4.9561191e-06
5.0556962e-06
5.2137482e-06
5.4128017e-06
5.6421e-06
5.9266396e-06
6.258425e-06
6.6387422e-06
7.0710607e-06
7.5596962e-06
8.1103809e-06
8.730126e-06
9.4275838e-06
1.0212987e-05
1.1099223e-05
1.2075053e-05
1.3204659e-05
1.4490742e-05
1.5961358e-05
1.7651112e-05
1.9602769e-05
2.1869175e-05
2.4515636e-05
2.7622743e-05
3.1289797e-05
3.5638811e-05
4.081928e-05
4.7324965e-05
5.4822816e-05
6.3847698e-05
7.4740158e-05
8.7907499e-05
0.00010384556
0.00012315773
0.00014657563
0.00017653505
0.00021127032
0.00025343286
0.00030460123
0.0003701835
0.00044607508
0.00053815506
0.00064985767
0.0007853673
0.00094977233
0.0011492619
0.0012090357
0.0012071273
0.001205165
0.0012031392
0.0012010391
0.0011988519
0.0011965628
0.0011941547
0.0011916078
0.0011889
0.0011863515
0.0011841466
0.0011822426
0.0011806066
0.0011792184
0.0011780476
0.0011770778
0.0011763971
0.0011759369
0.0011752678
0.0011753199
0.0011767583
1.2437912e-06
7.3025943e-06
7.5804591e-06
6.2350495e-06
7.6329646e-06
5.0430499e-06
5.062931e-06
4.4053963e-06
4.3574429e-06
4.1696797e-06
4.1752459e-06
4.1911179e-06
4.2854237e-06
4.4164805e-06
4.5836979e-06
4.7977164e-06
5.055901e-06
5.3565228e-06
5.7014937e-06
6.0930683e-06
6.5350234e-06
7.03202e-06
7.5899255e-06
8.2158069e-06
8.9046801e-06
9.6897429e-06
1.0573518e-05
1.1571113e-05
1.2701043e-05
1.3986088e-05
1.5454358e-05
1.7140581e-05
1.9087745e-05
2.1349023e-05
2.3990186e-05
2.709244e-05
3.0755887e-05
3.5103635e-05
4.0286731e-05
4.6490072e-05
5.3939433e-05
6.3370013e-05
7.4287958e-05
8.7491212e-05
0.00010347594
0.00012284738
0.00014633962
0.00017484277
0.00021129942
0.00025359997
0.00030493398
0.00036723248
0.00044698074
0.00053936979
0.00065145174
0.00078743451
0.00095243897
0.0011526997
0.0012078886
0.0012059778
0.0012040173
0.0012019988
0.0011999124
0.001197747
0.0011954894
0.0011931242
0.0011906332
0.0011879956
0.0011855864
0.0011835074
0.0011817185
0.0011801892
0.0011788947
0.0011778
0.0011769003
0.0011762655
0.001175776
0.0011751561
0.0011753185
0.0011765151
1.2546905e-06
7.4901857e-06
6.7964658e-06
6.7011323e-06
6.6406976e-06
4.0276988e-06
4.1091177e-06
3.641537e-06
3.6074518e-06
3.5140659e-06
3.5481204e-06
3.6093729e-06
3.7298387e-06
3.8745691e-06
4.0699078e-06
4.3046689e-06
4.5795009e-06
4.8944729e-06
5.2518899e-06
5.6546447e-06
6.106762e-06
6.6131197e-06
7.1714038e-06
7.8023032e-06
8.5085145e-06
9.3001769e-06
1.0189624e-05
1.1191936e-05
1.2325635e-05
1.3613559e-05
1.508396e-05
1.6771814e-05
1.8720457e-05
2.098356e-05
2.3627533e-05
2.6734395e-05
3.0405233e-05
3.4764354e-05
3.9964185e-05
4.6191177e-05
5.3673298e-05
6.2688668e-05
7.4130132e-05
8.7402991e-05
0.00010347422
0.00012295193
0.00014657349
0.00017523279
0.00021192499
0.00025445704
0.00030606822
0.00036869933
0.00044896139
0.00054185673
0.00065455781
0.00079130485
0.00095726252
0.0011587239
0.0012067067
0.0012047998
0.0012028474
0.0012008418
0.0011987745
0.0011966358
0.0011944147
0.0011920982
0.0011896702
0.0011871105
0.0011848373
0.0011828797
0.0011812006
0.0011797717
0.0011785653
0.0011775457
0.0011767146
0.0011761198
0.0011756254
0.0011750622
0.0011752546
0.0011762195
1.0189932e-06
8.0055349e-06
5.8960228e-06
4.2485207e-06
4.2700919e-06
3.3448075e-06
3.2821063e-06
3.0242327e-06
2.9970564e-06
2.973956e-06
3.0360164e-06
3.1327576e-06
3.2657602e-06
3.4419168e-06
3.6576774e-06
3.909856e-06
4.1994407e-06
4.5276356e-06
4.8971037e-06
5.3111392e-06
5.7739283e-06
6.2845864e-06
6.8586551e-06
7.4990591e-06
8.214149e-06
9.0140204e-06
9.9109645e-06
1.0920051e-05
1.2059845e-05
1.3353306e-05
1.482889e-05
1.6521909e-05
1.8476157e-05
2.0745913e-05
2.3398349e-05
2.6516416e-05
3.0202349e-05
3.458184e-05
3.9808905e-05
4.6071342e-05
5.3598826e-05
6.3137449e-05
7.4185701e-05
8.7548366e-05
0.00010372987
0.00012334204
0.00014712651
0.00017598224
0.0002129244
0.00025574021
0.00030769203
0.00037073312
0.00045155717
0.00054506641
0.0006585185
0.00079619157
0.00096330065
0.0011662053
0.0012054987
0.0012036022
0.0012016636
0.0011996762
0.0011976324
0.0011955242
0.0011933427
0.0011910778
0.0011887181
0.0011862501
0.0011841077
0.0011822661
0.0011806906
0.001179354
0.0011782275
0.0011772784
0.0011765134
0.0011759581
0.0011754603
0.0011749184
0.0011751197
0.0011758591
7.9833026e-07
5.9766301e-06
4.6065998e-06
3.243591e-06
3.3108689e-06
2.7110564e-06
2.6449604e-06
2.5001635e-06
2.5033077e-06
2.5304329e-06
2.6212497e-06
2.7393305e-06
2.9015521e-06
3.0994409e-06
3.3325934e-06
3.5999648e-06
3.9030242e-06
4.24371e-06
4.6249563e-06
5.0502937e-06
5.5205539e-06
6.0461976e-06
6.6307747e-06
7.281221e-06
8.0058322e-06
8.814652e-06
9.719943e-06
1.0736784e-05
1.1883814e-05
1.3184154e-05
1.4666524e-05
1.6366614e-05
1.8328738e-05
2.0607834e-05
2.3271869e-05
2.6404736e-05
3.0109802e-05
3.4514215e-05
3.9774158e-05
4.6078494e-05
5.4029587e-05
6.3241327e-05
7.436689e-05
8.7824515e-05
0.00010412185
0.0001238746
0.0001478291
0.00017688945
0.00021404924
0.00025715342
0.00030945205
0.00037291162
0.00045424983
0.00054837839
0.00066259021
0.00080120234
0.00096948147
0.0011738547
0.0012042752
0.001202395
0.0012004759
0.0011985117
0.0011964957
0.0011944209
0.0011922795
0.0011900635
0.0011877639
0.0011854174
0.0011833984
0.0011816665
0.0011801884
0.0011789368
0.0011778818
0.001176996
0.0011762893
0.0011757651
0.0011752727
0.0011747788
0.0011749475
0.001175456
6.2369635e-07
3.3639365e-06
3.659774e-06
2.6361916e-06
2.5573653e-06
2.1922312e-06
2.1434491e-06
2.0783834e-06
2.1115851e-06
2.1781926e-06
2.2943712e-06
2.4372639e-06
2.6203261e-06
2.8358297e-06
3.083794e-06
3.3645595e-06
3.6799902e-06
4.032459e-06
4.4250466e-06
4.8613754e-06
5.3457161e-06
5.8799289e-06
6.4748318e-06
7.1351662e-06
7.8691703e-06
8.6868429e-06
9.6004314e-06
1.0625045e-05
1.1779419e-05
1.3086849e-05
1.4576333e-05
1.628396e-05
1.8254561e-05
2.0543733e-05
2.3220206e-05
2.6368716e-05
3.0093439e-05
3.4711569e-05
4.0043407e-05
4.6435532e-05
5.4122583e-05
6.3389995e-05
7.458432e-05
8.8125711e-05
0.00010452435
0.00012439918
0.00014850143
0.00017929958
0.00021502866
0.00025837161
0.00031095775
0.00037476549
0.00045645823
0.00055109395
0.0006659321
0.00080532428
0.00097458329
0.0011801967
0.0012030475
0.0012011894
0.0011992954
0.0011973597
0.0011953763
0.0011933389
0.0011912407
0.0011890746
0.0011868327
0.0011846135
0.0011827079
0.001181077
0.0011796887
0.0011785153
0.0011775265
0.0011767
0.0011760439
0.0011755432
0.0011750678
0.0011746392
0.0011747689
0.0011750908
5.0459108e-07
2.6012299e-06
2.7998251e-06
2.0831314e-06
1.9932625e-06
1.7808056e-06
1.7541219e-06
1.7460962e-06
1.8076177e-06
1.9056219e-06
2.0441076e-06
2.2098149e-06
2.4099813e-06
2.6402653e-06
2.9012266e-06
3.1940293e-06
3.5207986e-06
3.8841297e-06
4.2871636e-06
4.7335424e-06
5.2275017e-06
5.7739714e-06
6.378745e-06
7.0487109e-06
7.7921594e-06
8.6191794e-06
9.5421591e-06
1.0576414e-05
1.1740964e-05
1.3059482e-05
1.4561451e-05
1.6283559e-05
1.8271382e-05
2.0581401e-05
2.3283411e-05
2.6463436e-05
3.0227166e-05
3.4704191e-05
4.0052909e-05
4.6466664e-05
5.4181063e-05
6.3482751e-05
7.4720155e-05
8.8313577e-05
0.00010477389
0.00012577408
0.00015013882
0.000179682
0.00021551324
0.00025897814
0.00031171093
0.00037924506
0.00045744933
0.00055233761
0.00066749783
0.00080730541
0.00097710607
0.0011834312
0.0012018262
0.0011999959
0.0011981322
0.00119623
0.0011942841
0.0011922887
0.001190238
0.0011881257
0.0011859451
0.0011838385
0.0011820333
0.001180492
0.0011791832
0.0011780787
0.0011771493
0.0011763768
0.0011757642
0.0011752836
0.0011748321
0.0011744647
0.0011745475
0.0011747124
3.8727095e-07
2.022991e-06
2.1022161e-06
1.6537866e-06
1.5621549e-06
1.4514434e-06
1.4493296e-06
1.4837077e-06
1.5708575e-06
1.6938266e-06
1.8508045e-06
2.0352895e-06
2.2487757e-06
2.4907055e-06
2.7620865e-06
3.0645501e-06
3.400372e-06
3.7722564e-06
4.1833624e-06
4.6373262e-06
5.1383552e-06
5.691345e-06
6.3020352e-06
6.9772424e-06
7.7251813e-06
8.5558699e-06
9.481638e-06
1.0517764e-05
1.1683259e-05
1.3001821e-05
1.4502997e-05
1.6223577e-05
1.8209277e-05
2.0516744e-05
2.3216015e-05
2.6393479e-05
3.0154879e-05
3.4629908e-05
3.9976996e-05
4.638936e-05
5.4102096e-05
6.3868967e-05
7.5189018e-05
8.8878038e-05
0.00010544865
0.00012552259
0.00014985362
0.000179356
0.00021513908
0.00025854545
0.00031404537
0.0003783959
0.00045646872
0.00055121182
0.00066621683
0.00080586617
0.00097551649
0.0011817159
0.0012006245
0.0011988265
0.0011969977
0.0011951333
0.0011932286
0.0011912787
0.0011892783
0.0011872221
0.0011851045
0.0011830933
0.0011813731
0.0011799077
0.001178666
0.0011776194
0.0011767408
0.0011760144
0.0011754368
0.0011749735
0.00117455
0.0011742342
0.0011742686
0.001174314
2.4359477e-07
1.6044258e-06
1.5302516e-06
1.3234961e-06
1.2409372e-06
1.1989047e-06
1.2243224e-06
1.2932285e-06
1.4047909e-06
1.549286e-06
1.7228915e-06
1.9228731e-06
2.148985e-06
2.4020195e-06
2.6834779e-06
2.9946946e-06
3.3391701e-06
3.7191753e-06
4.137869e-06
4.5988911e-06
5.1064637e-06
5.6654933e-06
6.2816686e-06
6.9617104e-06
7.7137508e-06
8.5477226e-06
9.4758718e-06
1.05134e-05
1.1679246e-05
1.2997043e-05
1.4496273e-05
1.6213645e-05
1.8194749e-05
2.0496032e-05
2.3275328e-05
2.6464052e-05
3.0238351e-05
3.4728022e-05
4.0091566e-05
4.6522222e-05
5.4255006e-05
6.3575391e-05
7.4829945e-05
8.8439218e-05
0.00010491143
0.00012486365
0.00014904399
0.00017995222
0.00021576522
0.00025919232
0.00031186353
0.00037575985
0.00045329105
0.00054739126
0.00066163701
0.00080039401
0.00096900098
0.0011739858
0.0011994509
0.0011976893
0.001195899
0.0011940757
0.0011922152
0.001190313
0.0011883647
0.0011863654
0.0011843102
0.0011823749
0.0011807223
0.001179317
0.0011781281
0.0011771273
0.0011762892
0.0011755991
0.0011750477
0.0011745985
0.0011742017
0.0011739236
0.0011739076
0.0011738624
3.4504144e-07
1.2865976e-06
1.1251055e-06
1.0586597e-06
1.0139203e-06
1.0124709e-06
1.0611781e-06
1.1527324e-06
1.2797011e-06
1.4355803e-06
1.6168687e-06
1.8223831e-06
2.0524414e-06
2.3082015e-06
2.5913574e-06
2.9039833e-06
3.248494e-06
3.6277014e-06
4.0448186e-06
4.5035345e-06
5.0080557e-06
5.5631551e-06
6.1741015e-06
6.8473691e-06
7.591161e-06
8.4153606e-06
9.3321396e-06
1.0356579e-05
1.150746e-05
1.2808207e-05
1.4288042e-05
1.5983343e-05
1.7939296e-05
2.0211865e-05
2.2870074e-05
2.5998545e-05
2.9701143e-05
3.4105341e-05
3.9366776e-05
4.5675033e-05
5.3260709e-05
6.2403824e-05
7.401462e-05
8.7468491e-05
0.00010374991
0.00012346865
0.00014736434
0.00017633437
0.00021146801
0.00025408822
0.0003058027
0.00036856689
0.00044476099
0.00053728499
0.00064967589
0.00078625377
0.00095230347
0.00115429
0.0011982986
0.001196579
0.0011948321
0.0011930542
0.0011912416
0.0011893902
0.0011874963
0.0011855557
0.0011835642
0.0011816826
0.001180078
0.0011787151
0.0011775631
0.0011765939
0.0011757839
0.0011751181
0.001174582
0.0011741412