/*--------------------------------*- C++ -*----------------------------------*\
  =========                 |
  \\      /  F ield         | OpenFOAM: The Open Source CFD Toolbox
   \\    /   O peration     | Website:  https://openfoam.org
    \\  /    A nd           | Version:  6
     \\/     M anipulation  |
\*---------------------------------------------------------------------------*/
FoamFile
{
    version     2.0;
    format      ascii;
    class       volScalarField;
    location    "800";
    object      k;
}
// * * * * * * * * * * * * * * * * * * * * * * * * * * * * * * * * * * * * * //

dimensions      [0 2 -2 0 0 0 0];

internalField   nonuniform List<scalar> 
16000
(
0.12640543
0.031796666
0.021314157
0.017649938
0.015206012
0.014337857
0.013320649
0.012988147
0.012518476
0.012301507
0.012047442
0.011882228
0.011721251
0.011594999
0.011482511
0.011388928
0.011310652
0.011244749
0.01118861
0.011140454
0.011098812
0.011062575
0.01103084
0.011002896
0.010978165
0.010956176
0.010936537
0.010918926
0.010903069
0.010888736
0.010875731
0.010863886
0.010853051
0.010843098
0.01083391
0.010825378
0.010817405
0.010809899
0.010802773
0.010795945
0.010789336
0.01078287
0.010776476
0.010770081
0.010763615
0.010757009
0.010750195
0.010743104
0.010735666
0.010727812
0.01071947
0.010710566
0.010701024
0.010690762
0.010679683
0.010667661
0.010654532
0.010640081
0.010623984
0.010605486
0.010582436
0.010555395
0.010523292
0.010484819
0.010439117
0.010386744
0.01033013
0.010274755
0.010223934
0.010180648
0.010141295
0.010111983
0.010081094
0.010064227
0.010040317
0.010052889
0.010032781
0.010119681
0.010036056
0.010120306
0.1070271
0.032304431
0.020805498
0.017527271
0.015018736
0.014259115
0.013221504
0.012920426
0.012446761
0.012236111
0.011983974
0.011819266
0.011661239
0.011534871
0.011428339
0.011340865
0.01126769
0.011206091
0.011153621
0.011108614
0.011069694
0.011035824
0.011006157
0.010980025
0.010956884
0.010936292
0.010917883
0.01090135
0.010886438
0.010872927
0.010860634
0.010849399
0.010839082
0.010829561
0.010820725
0.010812474
0.010804714
0.010797361
0.010790331
0.010783549
0.01077694
0.010770433
0.010763961
0.010757457
0.010750855
0.010744092
0.010737102
0.010729821
0.010722184
0.010714123
0.010705571
0.010696457
0.010686705
0.010676236
0.01066496
0.010652764
0.010639498
0.010624977
0.01060898
0.010591215
0.010571094
0.010546768
0.010517288
0.010481255
0.010437637
0.010386546
0.01033029
0.01027432
0.010223191
0.010179024
0.010140041
0.010109267
0.010080484
0.010063799
0.010039896
0.01004548
0.010028359
0.010105902
0.010034233
0.010118933
0.0925756
0.032760324
0.020278285
0.017380625
0.014825572
0.014164525
0.013118409
0.012842293
0.012371736
0.012163599
0.011917193
0.011751169
0.011598081
0.011476881
0.011377514
0.011295931
0.011227684
0.011170242
0.011121317
0.011079351
0.01104306
0.011011474
0.010983798
0.010959407
0.010937792
0.010918537
0.010901298
0.010885787
0.010871764
0.010859021
0.010847386
0.010836707
0.010826854
0.01081771
0.010809171
0.010801144
0.010793542
0.010786283
0.010779292
0.010772496
0.010765827
0.010759219
0.01075261
0.010745936
0.010739139
0.010732157
0.01072493
0.010717399
0.010709502
0.010701176
0.010692356
0.010682973
0.010672956
0.010662227
0.010650698
0.010638266
0.010624795
0.010610108
0.010594004
0.010576254
0.010556546
0.010534303
0.010508003
0.010474934
0.010433906
0.010384641
0.010329101
0.010272886
0.010221485
0.01017689
0.010138056
0.010106578
0.010078877
0.010062537
0.010039486
0.010040681
0.010025794
0.010094136
0.010032125
0.010108985
0.08307247
0.032952153
0.019752819
0.017210174
0.014631039
0.014052481
0.01301407
0.012752147
0.012294122
0.012082845
0.011847019
0.011677662
0.011535244
0.011422473
0.011330016
0.011254103
0.011190609
0.011137172
0.011091663
0.011052625
0.011018864
0.01098947
0.010963703
0.010940977
0.010920815
0.010902828
0.010886692
0.010872139
0.01085894
0.010846904
0.010835864
0.01082568
0.010816228
0.0108074
0.010799099
0.010791235
0.010783728
0.010776504
0.010769491
0.010762623
0.010755836
0.010749069
0.010742265
0.010735367
0.010728318
0.010721064
0.010713549
0.010705717
0.01069751
0.010688869
0.010679733
0.010670036
0.010659709
0.010648675
0.01063685
0.010624137
0.010610409
0.010595502
0.01057922
0.010561352
0.010541638
0.010519695
0.010494825
0.010465341
0.010427514
0.010380694
0.010326358
0.010270234
0.010218738
0.010173994
0.010135346
0.010103507
0.010076612
0.010058927
0.010038928
0.010038236
0.01002381
0.010081351
0.010030337
0.010102332
0.07474218
0.032768625
0.019240086
0.017014176
0.014436456
0.013922091
0.012908864
0.012649445
0.012213841
0.011993549
0.011773272
0.011608605
0.011476448
0.011371754
0.011285946
0.011215484
0.011156565
0.01110698
0.011064756
0.011028533
0.010997197
0.010969903
0.010945959
0.010924817
0.01090603
0.010889236
0.010874131
0.010860463
0.010848019
0.010836618
0.010826104
0.010816344
0.010807225
0.010798643
0.010790508
0.010782738
0.010775258
0.010767999
0.010760897
0.01075389
0.010746919
0.01073993
0.01073287
0.010725686
0.010718328
0.010710745
0.010702886
0.0106947
0.010686132
0.010677127
0.010667626
0.010657568
0.010646885
0.010635504
0.010623342
0.010610304
0.010596275
0.0105811
0.010564589
0.010546541
0.010526719
0.010504798
0.010480276
0.010452205
0.010418248
0.010374564
0.010321996
0.01026632
0.010214938
0.010170303
0.010131927
0.010100046
0.010073801
0.010055323
0.010037798
0.010035655
0.010022317
0.010069711
0.010028709
0.010091935
0.067438546
0.032052521
0.018752109
0.016790814
0.014243553
0.013772133
0.012803412
0.012533385
0.012130766
0.011900269
0.011696585
0.011544086
0.011421769
0.011324804
0.011245377
0.011180144
0.011125616
0.011079725
0.011040651
0.011007119
0.010978101
0.010952805
0.010930589
0.010910941
0.010893444
0.010877759
0.010863603
0.010850739
0.010838969
0.010828123
0.010818054
0.010808639
0.010799772
0.010791357
0.01078331
0.010775556
0.010768028
0.010760661
0.010753396
0.01074618
0.010738958
0.010731681
0.010724302
0.010716774
0.010709049
0.010701084
0.01069283
0.01068424
0.010675265
0.010665851
0.010655944
0.010645484
0.010634407
0.010622642
0.010610108
0.010596712
0.010582345
0.010566863
0.010550085
0.010531813
0.010511826
0.010489834
0.010465418
0.010437898
0.010405934
0.010366158
0.010316006
0.01026116
0.010210118
0.010165826
0.010127845
0.010096173
0.010070494
0.010051602
0.01003602
0.010032711
0.010021057
0.010060188
0.010027295
0.010084359
0.061037621
0.03098221
0.018292535
0.016537714
0.014054247
0.013601576
0.012698264
0.012403459
0.012044216
0.011812992
0.011625144
0.01148421
0.011371299
0.011281719
0.011208401
0.011148172
0.011097847
0.011055487
0.01101942
0.010988453
0.010961635
0.010938229
0.010917639
0.010899386
0.010883084
0.010868414
0.010855114
0.010842963
0.010831774
0.010821391
0.010811676
0.010802516
0.01079381
0.010785473
0.010777427
0.010769604
0.010761943
0.010754387
0.010746884
0.010739384
0.01073184
0.010724209
0.010716448
0.010708515
0.01070037
0.010691969
0.010683272
0.010674234
0.010664809
0.010654947
0.010644596
0.0106337
0.010622196
0.010610015
0.010597078
0.010583296
0.010568563
0.010552743
0.010535664
0.010517136
0.010496947
0.01047483
0.010450416
0.010423152
0.010392092
0.010355334
0.010308354
0.010254758
0.010204296
0.010160569
0.010123132
0.010091876
0.010066733
0.010047797
0.010033635
0.010028704
0.01001983
0.01005197
0.010025827
0.010076197
0.05542752
0.029932754
0.017845652
0.016253462
0.013870333
0.013410047
0.01259376
0.012275102
0.011952301
0.01173178
0.011558998
0.011429052
0.011325114
0.01124258
0.011175095
0.011119644
0.011073329
0.011034334
0.011001124
0.010972587
0.010947845
0.010926211
0.010907133
0.010890167
0.010874951
0.01086119
0.01084864
0.010837095
0.010826383
0.010816358
0.010806893
0.010797884
0.010789239
0.010780881
0.01077274
0.010764755
0.010756872
0.010749042
0.010741219
0.01073336
0.010725423
0.010717372
0.010709168
0.010700775
0.010692157
0.010683275
0.010674091
0.010664566
0.010654655
0.010644312
0.010633487
0.010622127
0.010610169
0.010597548
0.010584186
0.010569997
0.010554876
0.010538697
0.010521295
0.010502485
0.010482068
0.010459792
0.010435325
0.010408192
0.010377637
0.010342275
0.010299049
0.010247168
0.010197525
0.010154578
0.010117851
0.010087192
0.010062597
0.010043895
0.010030814
0.010024599
0.010018486
0.010044151
0.010024119
0.010068718
0.050503173
0.028967784
0.017411846
0.015937771
0.01369303
0.013197315
0.012488386
0.012154924
0.011859607
0.011656713
0.011498218
0.011378704
0.011283302
0.011207479
0.011145548
0.011094646
0.011052142
0.011016338
0.010985827
0.010959576
0.010936772
0.01091678
0.010899088
0.010883284
0.010869031
0.010856058
0.010844136
0.010833076
0.01082272
0.010812933
0.010803601
0.010794627
0.010785931
0.010777443
0.010769102
0.010760856
0.010752658
0.010744466
0.010736241
0.010727947
0.01071955
0.010711015
0.010702312
0.010693408
0.010684271
0.010674867
0.010665162
0.010655117
0.010644692
0.010633843
0.010622522
0.010610676
0.010598247
0.010585169
0.010571368
0.010556757
0.010541235
0.010524682
0.010506943
0.010487838
0.010467176
0.010444721
0.010420171
0.010393108
0.010362909
0.010328544
0.010288093
0.010238464
0.010189873
0.01014791
0.010112067
0.010082164
0.010058179
0.010039928
0.010027668
0.01002078
0.010016989
0.010036835
0.010022267
0.010061092
0.046172626
0.028066378
0.016992759
0.015589462
0.01352325
0.012995701
0.012379526
0.012043663
0.011774162
0.011587866
0.011442876
0.01133326
0.011245956
0.011176509
0.011119848
0.011073262
0.011034362
0.011001564
0.010973583
0.010949458
0.010928441
0.010909944
0.010893494
0.01087871
0.010865279
0.010852952
0.010841518
0.010830804
0.010820666
0.010810983
0.010801651
0.010792586
0.010783716
0.010774982
0.010766331
0.010757721
0.010749112
0.01074047
0.010731764
0.010722964
0.010714041
0.010704967
0.010695715
0.010686257
0.010676565
0.010666608
0.010656353
0.010645766
0.010634808
0.010623437
0.010611606
0.010599264
0.010586354
0.010572811
0.010558562
0.010543523
0.010527596
0.010510664
0.010492582
0.010473176
0.010452262
0.010429621
0.010404972
0.010377944
0.010348008
0.010314333
0.010275486
0.010228751
0.010181434
0.010140651
0.010105862
0.010076859
0.01005357
0.010035924
0.010024301
0.01001724
0.010015342
0.010030197
0.010020332
0.010053439
0.042356453
0.027207597
0.016589834
0.015207193
0.013359601
0.012807496
0.012263937
0.011941293
0.011695965
0.01152531
0.011393053
0.011292816
0.01121317
0.011149768
0.011098087
0.011055571
0.011020057
0.010990068
0.010964429
0.010942255
0.010922854
0.010905684
0.01089031
0.01087638
0.010863607
0.010851763
0.010840656
0.01083013
0.010820055
0.010810324
0.010800848
0.010791553
0.010782379
0.010773277
0.010764204
0.010755126
0.010746013
0.01073684
0.010727579
0.010718208
0.010708704
0.010699044
0.010689205
0.010679161
0.010668888
0.010658356
0.010647537
0.010636396
0.010624896
0.010612997
0.010600653
0.010587812
0.01057442
0.010560412
0.010545717
0.010530252
0.010513923
0.010496615
0.010478192
0.010458488
0.010437326
0.0104145
0.01038975
0.010362744
0.010333027
0.010299919
0.010262305
0.010218161
0.010172322
0.010132898
0.010099326
0.010071354
0.010048867
0.010031932
0.010020824
0.010013958
0.010013567
0.010024468
0.010018532
0.010046641
0.038985652
0.026369579
0.016204894
0.014789778
0.013199943
0.012633444
0.012142642
0.011847783
0.011625024
0.011469114
0.011348832
0.01125747
0.011185045
0.011127349
0.011080348
0.011041647
0.011009283
0.010981887
0.010958381
0.010937956
0.010919974
0.010903935
0.010889443
0.010876175
0.01086387
0.010852321
0.010841358
0.01083084
0.010820655
0.010810713
0.010800937
0.010791267
0.010781656
0.010772064
0.010762459
0.010752817
0.010743115
0.010733335
0.010723458
0.010713465
0.010703339
0.010693059
0.010682607
0.010671959
0.010661091
0.010649978
0.010638591
0.010626895
0.010614856
0.010602434
0.010589582
0.01057625
0.010562384
0.010547921
0.010532789
0.010516909
0.010500188
0.010482516
0.010463763
0.010443772
0.010422374
0.010399374
0.010374533
0.010347549
0.01031803
0.01028542
0.010248855
0.010206854
0.010162672
0.01012477
0.010092559
0.010065737
0.010044162
0.010028008
0.010017347
0.010010907
0.01001165
0.010019741
0.010016822
0.010040918
0.0359997
0.025528745
0.015839792
0.014406408
0.013041005
0.012474357
0.012032082
0.011763086
0.011561351
0.011419343
0.011310299
0.011227315
0.011161672
0.011109337
0.011066702
0.011031539
0.011002067
0.010977019
0.010955413
0.010936503
0.01091971
0.010904574
0.010890736
0.010877906
0.01086585
0.010854383
0.010843356
0.01083265
0.01082217
0.010811843
0.010801607
0.010791417
0.010781238
0.010771041
0.010760805
0.010750514
0.010740152
0.010729707
0.010719167
0.010708517
0.010697743
0.010686827
0.010675752
0.010664497
0.010653038
0.010641349
0.010629403
0.010617166
0.010604602
0.010591671
0.010578327
0.010564522
0.0105502
0.010535298
0.010519748
0.01050347
0.010486376
0.010468358
0.010449295
0.010429035
0.010407422
0.010384269
0.010359354
0.010332406
0.010303081
0.010270919
0.010235254
0.010195012
0.010152639
0.010116394
0.010085669
0.010060103
0.010039545
0.010024206
0.010013965
0.010008062
0.010009518
0.010015801
0.010015236
0.010035985
0.033346911
0.024660416
0.015493691
0.01405714
0.012878109
0.012329801
0.011932053
0.01168718
0.011504991
0.011376082
0.011277552
0.01120245
0.01114314
0.011095802
0.011057204
0.011025275
0.010998401
0.010975417
0.010955432
0.010937763
0.010921884
0.010907382
0.010893935
0.010881286
0.010869229
0.010857607
0.010846293
0.01083519
0.010824223
0.010813336
0.010802486
0.010791639
0.010780775
0.010769875
0.010758927
0.010747921
0.010736849
0.010725704
0.010714476
0.010703155
0.010691727
0.010680178
0.010668489
0.010656639
0.010644606
0.010632363
0.010619881
0.010607127
0.010594063
0.010580649
0.010566841
0.010552588
0.010537835
0.010522521
0.010506577
0.010489928
0.010472484
0.010454148
0.010434799
0.010414299
0.010392497
0.010369219
0.01034426
0.01031737
0.010288249
0.01025651
0.010221631
0.010182835
0.010142389
0.010107909
0.010078767
0.010054549
0.0100351
0.010020592
0.010010769
0.010005448
0.010007154
0.010011552
0.010013701
0.010031871
0.030982485
0.023737072
0.015165368
0.013740243
0.012704616
0.012199328
0.011842378
0.01162004
0.011455997
0.011339404
0.011250679
0.011182953
0.011129528
0.011086795
0.011051861
0.011022813
0.010998194
0.010976939
0.010958242
0.010941487
0.010926204
0.010912023
0.010898665
0.010885907
0.010873578
0.010861547
0.010849714
0.010838005
0.010826366
0.010814757
0.010803153
0.010791536
0.010779893
0.010768217
0.010756503
0.010744746
0.010732942
0.010721087
0.010709172
0.01069719
0.010685126
0.010672966
0.01066069
0.010648277
0.010635703
0.01062294
0.010609957
0.010596721
0.010583193
0.010569333
0.010555094
0.010540427
0.010525277
0.010509583
0.010493278
0.010476288
0.010458528
0.010439904
0.010420302
0.010399594
0.010377637
0.010354271
0.010329303
0.010302507
0.010273612
0.01024229
0.010208122
0.010170537
0.010132102
0.01009946
0.010071967
0.01004917
0.010030905
0.01001724
0.010007855
0.010003079
0.010004762
0.010007843
0.010012065
0.010028281
0.028868042
0.022728776
0.014852832
0.013455024
0.012539092
0.012082505
0.011762912
0.011561645
0.011414422
0.01130937
0.011229771
0.011168897
0.011120861
0.011082286
0.011050584
0.011024003
0.01100123
0.010981303
0.010963502
0.010947278
0.010932219
0.010918008
0.010904405
0.010891229
0.010878344
0.010865651
0.010853075
0.010840568
0.010828093
0.010815631
0.010803169
0.0107907
0.010778222
0.010765734
0.010753235
0.010740723
0.010728197
0.010715651
0.010703078
0.010690469
0.010677809
0.010665081
0.010652263
0.010639334
0.010626265
0.010613028
0.010599591
0.010585919
0.010571972
0.010557707
0.01054308
0.01052804
0.010512532
0.010496497
0.010479869
0.010462576
0.010444537
0.010425662
0.010405846
0.010384967
0.010362895
0.01033948
0.010314547
0.010287887
0.010259256
0.010228367
0.010194871
0.010158337
0.01012196
0.010091191
0.01006538
0.010044051
0.010027016
0.010014211
0.010005318
0.010000998
0.010002371
0.01000454
0.010010158
0.010025017
0.026971447
0.02160357
0.014552909
0.01320009
0.012390953
0.011979041
0.011693591
0.011511919
0.011380277
0.011286054
0.011214873
0.011160273
0.011117065
0.011082126
0.011053145
0.011028531
0.011007117
0.010988043
0.010970679
0.010954548
0.010939301
0.010924677
0.010910484
0.010896582
0.010882871
0.010869283
0.010855773
0.010842312
0.010828883
0.01081548
0.010802102
0.010788749
0.010775425
0.010762131
0.010748869
0.010735636
0.01072243
0.010709244
0.010696068
0.010682889
0.010669692
0.010656455
0.010643157
0.010629769
0.010616265
0.010602611
0.010588774
0.010574719
0.010560403
0.010545785
0.010530817
0.01051545
0.010499629
0.010483297
0.010466389
0.010448835
0.010430559
0.010411475
0.010391485
0.010370478
0.010348334
0.010324916
0.010300064
0.010273589
0.01024527
0.010214848
0.010182025
0.01014645
0.01011214
0.010083241
0.01005911
0.010039265
0.010023474
0.01001154
0.010003206
0.0099992684
0.01000012
0.010001578
0.010008068
0.01002203
0.025266865
0.020328865
0.014258772
0.012973774
0.012259517
0.011888642
0.011634441
0.011470938
0.011353689
0.011269508
0.011205964
0.011156958
0.011117915
0.011085979
0.011059099
0.011035853
0.011015219
0.010996448
0.010979002
0.01096249
0.010946626
0.010931209
0.010916095
0.010901187
0.010886423
0.010871762
0.010857183
0.010842676
0.010828236
0.010813867
0.010799573
0.010785359
0.010771228
0.010757182
0.01074322
0.010729336
0.010715526
0.010701776
0.010688075
0.010674404
0.010660745
0.010647074
0.010633365
0.01061959
0.010605715
0.010591708
0.010577534
0.010563153
0.010548525
0.010533606
0.01051835
0.010502706
0.010486622
0.01047004
0.010452899
0.01043513
0.010416663
0.010397415
0.010377297
0.010356206
0.010334035
0.010310659
0.010285937
0.010259699
0.010231746
0.010201844
0.010169724
0.010135082
0.010102815
0.010075745
0.010053255
0.01003487
0.010020302
0.010009245
0.010001532
0.009997913
0.0099981548
0.0099991027
0.010006135
0.010019114
0.023735304
0.019078719
0.013957586
0.012774561
0.012143984
0.011810812
0.011584837
0.011438713
0.011334674
0.011259626
0.011202822
0.011158588
0.011122903
0.011093199
0.011067677
0.011045097
0.011024583
0.011005514
0.01098745
0.010970081
0.010953194
0.010936645
0.010920341
0.010904222
0.010888257
0.010872428
0.01085673
0.010841165
0.010825734
0.010810445
0.010795302
0.010780306
0.010765458
0.010750755
0.010736192
0.010721758
0.010707442
0.010693228
0.010679096
0.010665026
0.010650993
0.010636971
0.010622931
0.010608842
0.010594668
0.010580376
0.010565928
0.010551283
0.010536402
0.01052124
0.010505749
0.010489882
0.010473586
0.010456805
0.01043948
0.010421547
0.010402936
0.010383573
0.010363374
0.010342247
0.010320094
0.010296807
0.01027226
0.010246308
0.010218775
0.010189454
0.010158096
0.010124415
0.010094137
0.010068826
0.0100479
0.010030907
0.010017504
0.010007317
0.010000244
0.0099968688
0.0099965664
0.0099972628
0.01000421
0.010016115
0.02236009
0.018020277
0.01364187
0.012601667
0.01204423
0.011744745
0.011545201
0.011415274
0.011323082
0.011256036
0.011204875
0.011164398
0.011131097
0.011102709
0.011077694
0.011055008
0.01103393
0.011013965
0.010994776
0.01097614
0.010957909
0.010939993
0.010922338
0.010904916
0.010887715
0.010870731
0.010853966
0.010837422
0.010821102
0.010805009
0.010789139
0.010773491
0.010758057
0.010742828
0.010727789
0.010712927
0.010698221
0.010683652
0.010669194
0.010654823
0.01064051
0.010626224
0.010611936
0.01059761
0.01058321
0.010568702
0.010554045
0.0105392
0.010524125
0.010508776
0.010493108
0.010477072
0.010460617
0.01044369
0.010426234
0.010408187
0.010389485
0.010370057
0.010349827
0.010328711
0.010306623
0.010283467
0.010259137
0.010233508
0.010206438
0.010177751
0.010147232
0.0101146
0.010086232
0.010062589
0.010043125
0.010027413
0.010015082
0.010005728
0.0099992644
0.009996069
0.0099954066
0.0099960097
0.010002144
0.010012824
0.02111857
0.017115076
0.013360889
0.012449408
0.011958329
0.011690427
0.011515279
0.011400009
0.011318133
0.011257764
0.011210953
0.011173038
0.011141007
0.011112925
0.01108753
0.011063973
0.011041695
0.011020326
0.01099963
0.010979456
0.010959714
0.010940351
0.010921338
0.010902663
0.010884322
0.01086631
0.010848627
0.010831268
0.010814229
0.010797503
0.010781078
0.010764943
0.01074908
0.010733474
0.010718102
0.010702943
0.010687972
0.010673163
0.010658486
0.010643913
0.010629413
0.010614951
0.010600495
0.010586009
0.010571456
0.010556798
0.010541998
0.010527014
0.010511805
0.010496329
0.010480539
0.010464389
0.01044783
0.010430811
0.010413277
0.010395171
0.010376431
0.010356992
0.010336783
0.010315729
0.010293752
0.010270769
0.010246688
0.010221407
0.010194814
0.010166779
0.010137153
0.010105756
0.010079197
0.010057121
0.010039008
0.01002445
0.010013063
0.010004459
0.009998564
0.009995536
0.0099944992
0.0099946431
0.0099998739
0.010008903
0.019991424
0.016316386
0.01311147
0.012312444
0.011884937
0.011648057
0.011494496
0.011392052
0.011318597
0.011263257
0.011219256
0.011182537
0.011150573
0.011121796
0.0110952
0.011070137
0.011046196
0.011023118
0.011000746
0.010978981
0.010957765
0.010937061
0.010916851
0.010897119
0.010877853
0.010859041
0.010840669
0.010822721
0.010805181
0.01078803
0.010771245
0.010754805
0.010738684
0.010722857
0.010707297
0.010691974
0.01067686
0.010661924
0.010647133
0.010632454
0.010617855
0.010603301
0.010588755
0.010574181
0.010559544
0.010544803
0.010529922
0.01051486
0.010499576
0.010484029
0.010468174
0.010451966
0.010435358
0.010418302
0.010400745
0.010382634
0.010363911
0.010344516
0.010324384
0.010303445
0.01028163
0.010258864
0.010235066
0.01021015
0.010184021
0.010156573
0.010127695
0.010097966
0.010073092
0.010052472
0.010035607
0.01002209
0.010011528
0.01000357
0.0099981547
0.0099952545
0.0099939455
0.0099938099
0.0099980287
0.010005055
0.01896877
0.015593493
0.0128936
0.012194698
0.011825293
0.011616608
0.01148142
0.011389463
0.011322179
0.011269954
0.011227097
0.011190205
0.011157235
0.011126953
0.011098595
0.011071684
0.011045926
0.011021135
0.010997197
0.010974036
0.010951598
0.010929845
0.010908743
0.010888263
0.010868377
0.010849055
0.01083027
0.010811991
0.010794188
0.01077683
0.010759885
0.010743322
0.010727109
0.010711213
0.010695601
0.01068024
0.010665097
0.010650138
0.010635329
0.010620635
0.01060602
0.01059145
0.010576887
0.010562295
0.010547639
0.010532879
0.010517978
0.010502896
0.010487595
0.010472033
0.010456168
0.010439957
0.010423356
0.010406317
0.010388793
0.010370733
0.010352084
0.01033279
0.010312791
0.010292024
0.010270426
0.010247931
0.010224466
0.010199955
0.010174314
0.010147452
0.010119272
0.010091288
0.010067937
0.010048637
0.010032904
0.010020326
0.01001051
0.010003137
0.0099981286
0.0099953168
0.0099938769
0.0099937204
0.0099971514
0.010002734
0.018044889
0.014930991
0.012704565
0.012095769
0.011777136
0.011593254
0.011472964
0.011388781
0.011325303
0.011274298
0.011231105
0.011192971
0.011158296
0.011126128
0.011095887
0.011067207
0.011039857
0.011013679
0.010988562
0.01096442
0.010941185
0.010918796
0.010897199
0.010876343
0.010856181
0.010836666
0.010817753
0.010799401
0.010781566
0.01076421
0.010747293
0.010730776
0.010714622
0.010698793
0.010683254
0.010667969
0.0106529
0.010638014
0.010623274
0.010608645
0.010594092
0.010579577
0.010565066
0.010550522
0.010535909
0.01052119
0.010506329
0.010491286
0.010476024
0.010460503
0.010444684
0.010428526
0.010411986
0.010395021
0.010377585
0.010359632
0.010341113
0.010321976
0.010302166
0.010281628
0.010260304
0.010238135
0.010215057
0.010191003
0.010165901
0.010139674
0.010112237
0.010085771
0.010063743
0.01004559
0.010030839
0.010019075
0.01000991
0.010003055
0.0099983925
0.0099956561
0.0099941643
0.0099940296
0.0099968148
0.01000113
0.017219292
0.01437058
0.01254278
0.012012636
0.011737346
0.011573901
0.011464603
0.011385322
0.011323438
0.011272127
0.011227649
0.011187817
0.011151369
0.011117532
0.011085819
0.011055902
0.011027551
0.011000594
0.010974894
0.01095034
0.010926833
0.010904288
0.010882629
0.010861785
0.010841691
0.010822288
0.010803519
0.010785333
0.010767681
0.010750515
0.010733793
0.010717472
0.010701512
0.010685873
0.010670517
0.010655407
0.010640506
0.010625778
0.010611187
0.010596698
0.010582276
0.010567885
0.01055349
0.010539057
0.010524548
0.010509929
0.010495164
0.010480217
0.01046505
0.010449627
0.01043391
0.010417859
0.010401436
0.010384599
0.010367307
0.010349516
0.01033118
0.010312254
0.010292687
0.010272429
0.010251429
0.010229634
0.010206989
0.010183434
0.010158908
0.010133345
0.010106675
0.010081467
0.010060536
0.010043332
0.01002939
0.010018294
0.01000967
0.010003244
0.0099988562
0.0099961888
0.0099947131
0.0099946269
0.0099968987
0.010000234
0.01650705
0.013917337
0.012405942
0.011940522
0.011699911
0.011552086
0.01145014
0.011373549
0.011312013
0.011259943
0.011214281
0.011173229
0.011135712
0.011101042
0.011068732
0.011038434
0.011009883
0.010982875
0.010957243
0.010932847
0.010909567
0.0108873
0.010865954
0.010845447
0.010825705
0.010806658
0.010788247
0.010770413
0.010753105
0.010736273
0.010719873
0.01070386
0.010688194
0.010672835
0.010657745
0.010642887
0.010628225
0.010613723
0.010599346
0.01058506
0.010570829
0.010556619
0.010542398
0.010528129
0.01051378
0.010499316
0.010484702
0.010469904
0.010454888
0.010439616
0.010424054
0.010408166
0.010391913
0.010375258
0.010358161
0.010340584
0.010322483
0.010303818
0.010284542
0.01026461
0.010243977
0.010222596
0.010200417
0.01017739
0.010153461
0.010128571
0.01010266
0.010078418
0.010058326
0.010041847
0.010028518
0.010017927
0.010009713
0.01000361
0.009999416
0.0099967961
0.0099953509
0.0099952723
0.0099970847
0.0099996352
0.015802669
0.013513092
0.012269553
0.011860915
0.011649029
0.011514845
0.011419579
0.011346177
0.011286109
0.011234699
0.01118932
0.011148385
0.011110892
0.011076461
0.011044569
0.011014812
0.010986882
0.010960539
0.010935592
0.010911884
0.010889286
0.010867689
0.010847
0.010827132
0.010808006
0.010789551
0.010771704
0.010754408
0.01073761
0.010721263
0.01070532
0.010689741
0.010674484
0.010659513
0.01064479
0.01063028
0.010615947
0.010601758
0.010587678
0.010573674
0.010559713
0.010545762
0.010531789
0.010517761
0.010503645
0.010489407
0.010475016
0.010460438
0.01044564
0.010430589
0.01041525
0.010399589
0.010383571
0.010367161
0.010350321
0.010333016
0.010315206
0.010296853
0.010277916
0.010258354
0.010238126
0.010217192
0.010195507
0.01017303
0.010149712
0.010125508
0.010100368
0.010076749
0.010057201
0.010041188
0.010028248
0.010017971
0.01001001
0.010004098
0.0099999984
0.0099973861
0.0099959786
0.0099959419
0.0099974635
0.0099994972
0.014479949
0.012845748
0.012013667
0.011700243
0.011529502
0.01141818
0.011337323
0.011274001
0.011221718
0.011176846
0.011137274
0.01110169
0.011069232
0.011039024
0.011010671
0.010983898
0.010958496
0.010934298
0.010911171
0.010889
0.010867692
0.010847165
0.010827419
0.010808442
0.010790152
0.01077248
0.010755364
0.010738749
0.010722587
0.01070683
0.010691438
0.010676371
0.010661593
0.010647069
0.010632765
0.010618648
0.010604687
0.01059085
0.010577108
0.010563427
0.010549777
0.010536127
0.010522444
0.010508699
0.010494859
0.010480894
0.010466772
0.010452461
0.010437931
0.010423148
0.01040808
0.010392696
0.01037696
0.010360841
0.010344302
0.01032731
0.010309829
0.010291821
0.01027325
0.010254076
0.010234262
0.01021377
0.010192561
0.010170597
0.010147835
0.010124233
0.010099749
0.01007643
0.010057138
0.010041335
0.010028556
0.010018393
0.010010503
0.010004606
0.010000442
0.0099977243
0.0099962552
0.0099960728
0.0099970854
0.0099985714
0.014031098
0.012625566
0.011864436
0.011586833
0.011436115
0.011338188
0.011266732
0.011210474
0.01116359
0.011122955
0.011086757
0.011053901
0.011023675
0.0109956
0.010969353
0.010944684
0.0109214
0.01089934
0.010878368
0.010858368
0.010839235
0.010820878
0.010803147
0.010785927
0.010769179
0.010752867
0.010736956
0.010721413
0.010706207
0.010691308
0.010676687
0.010662316
0.010648167
0.010634213
0.010620428
0.010606785
0.010593261
0.010579857
0.010566541
0.010553279
0.010540041
0.010526796
0.010513511
0.010500158
0.010486705
0.010473123
0.010459381
0.010445448
0.010431295
0.010416889
0.010402202
0.0103872
0.010371852
0.010356125
0.010339988
0.010323405
0.010306343
0.010288767
0.01027064
0.010251927
0.01023259
0.010212593
0.0101919
0.010170473
0.010148273
0.010125259
0.010101391
0.010077802
0.010058297
0.010042338
0.010029438
0.010019178
0.010011205
0.010005218
0.010000941
0.009998118
0.0099965735
0.0099962281
0.0099968993
0.0099981896
0.01358795
0.012399147
0.011682128
0.011443571
0.011316028
0.011235679
0.011177226
0.011131189
0.011092471
0.011058534
0.011027932
0.010999829
0.010973701
0.010949197
0.010926068
0.010904126
0.010883225
0.010863248
0.010844097
0.01082569
0.010807959
0.010790844
0.010774292
0.010758255
0.010742695
0.010727574
0.010712856
0.010698508
0.010684495
0.010670785
0.010657347
0.01064415
0.010631165
0.010618361
0.010605709
0.010593182
0.010580747
0.010568348
0.01055596
0.010543561
0.010531128
0.010518637
0.010506064
0.010493383
0.010480571
0.010467601
0.010454446
0.010441081
0.010427478
0.01041361
0.010399448
0.010384964
0.010370129
0.010354911
0.010339281
0.010323207
0.010306657
0.010289597
0.010271994
0.010253812
0.010235016
0.010215571
0.010195442
0.010174593
0.010152985
0.01013058
0.010107339
0.01008322
0.010062878
0.010046205
0.010032695
0.010021913
0.010013486
0.010007093
0.010002449
0.0099993097
0.0099974834
0.0099968128
0.0099971124
0.00999819
55.788702
101.36966
60.724145
41.152831
28.568575
19.955766
14.100217
10.093581
7.2865679
5.2795656
3.8234379
2.7660688
1.9921719
1.4320838
1.020208
0.72289342
0.50761083
0.35402208
0.24598416
0.1704534
0.11807455
0.082133817
0.057764332
0.04144341
0.030663134
0.023637956
0.019126435
0.016266047
0.014473153
0.013359465
0.012670568
0.012243027
0.011973924
0.01179968
0.011681818
0.011597507
0.011533453
0.011482032
0.011438898
0.011401585
0.011368633
0.011339146
0.011312549
0.011288387
0.011266294
0.011245874
0.011226183
0.011202416
0.011168425
0.011124097
0.011073475
0.011021046
0.010969798
0.010921695
0.010877095
0.010836191
0.010799769
0.010768573
0.010740504
0.01071533
0.010688182
0.010662003
0.010627543
0.010594863