/*--------------------------------*- C++ -*----------------------------------*\
  =========                 |
  \\      /  F ield         | OpenFOAM: The Open Source CFD Toolbox
   \\    /   O peration     | Website:  https://openfoam.org
    \\  /    A nd           | Version:  6
     \\/     M anipulation  |
\*---------------------------------------------------------------------------*/
FoamFile
{
    version     2.0;
    format      ascii;
    class       volScalarField;
    location    "800";
    object      nut;
}
// * * * * * * * * * * * * * * * * * * * * * * * * * * * * * * * * * * * * * //

dimensions      [0 2 -1 0 0 0 0];

internalField   nonuniform List<scalar> 
16000
(
5.1843121e-06
2.1279474e-05
2.3256179e-05
3.3055888e-05
2.844989e-05
3.6605575e-05
3.6118726e-05
4.0756071e-05
4.2087208e-05
4.2165933e-05
4.2869072e-05
4.1482036e-05
4.1635794e-05
4.0529935e-05
4.0543268e-05
4.0014445e-05
4.0170687e-05
4.0185886e-05
4.0589282e-05
4.1031383e-05
4.1730952e-05
4.2555673e-05
4.3595788e-05
4.4812488e-05
4.625174e-05
4.7917089e-05
4.9845554e-05
5.2064604e-05
5.4618937e-05
5.7557608e-05
6.0944435e-05
6.4856202e-05
6.9388129e-05
7.4656342e-05
8.0803905e-05
8.8006363e-05
9.6479582e-05
0.00010648896
0.00011836095
0.00013249688
0.00014939014
0.00016964897
0.00019402053
0.00022342125
0.00025897316
0.00030204544
0.0003542992
0.00041773688
0.0004947515
0.00058817095
0.00070129152
0.00083791221
0.0010024042
0.0010408909
0.001041974
0.0010421872
0.0010417746
0.0010410145
0.0010400912
0.0010390279
0.0010377091
0.0010361647
0.0010343344
0.0010321444
0.0010295447
0.0010265629
0.0010233302
0.0010201495
0.0010172056
0.0010146655
0.001012328
0.0010105341
0.0010086312
0.001007491
0.0010059267
0.0010063757
0.0010049445
0.001009445
0.00100429
0.00100835
4.3169786e-06
2.1044158e-05
2.1317927e-05
3.0219316e-05
2.6271379e-05
3.3001353e-05
3.325938e-05
3.6415893e-05
3.8398823e-05
3.7569526e-05
3.865475e-05
3.6913874e-05
3.7225442e-05
3.5996402e-05
3.6076355e-05
3.5547478e-05
3.5711284e-05
3.5707565e-05
3.6073072e-05
3.6462362e-05
3.7086158e-05
3.7819461e-05
3.874486e-05
3.9827048e-05
4.1106413e-05
4.2586328e-05
4.4298941e-05
4.6268705e-05
4.8534575e-05
5.1139692e-05
5.4139808e-05
5.7602184e-05
6.1610158e-05
6.6265236e-05
7.1692391e-05
7.8044864e-05
8.5510867e-05
9.4321501e-05
0.0001047607
0.00011717696
0.00013199767
0.00014974906
0.00017107664
0.00019677088
0.00022779843
0.00026533884
0.00031082416
0.00036598453
0.00043289698
0.00051403402
0.0006123114
0.00073113175
0.00087445683
0.0010395338
0.0010408309
0.0010411854
0.0010408357
0.0010400882
0.0010391701
0.0010381458
0.0010369868
0.0010355906
0.0010339038
0.0010318475
0.0010293625
0.0010264515
0.0010232388
0.0010200251
0.001017064
0.0010144746
0.0010121577
0.0010102816
0.0010084963
0.0010073658
0.0010058014
0.001005857
0.0010045917
0.0010085662
0.0010040765
0.0010081514
3.6870972e-06
2.0804798e-05
1.9794034e-05
2.779367e-05
2.4534402e-05
2.9924434e-05
3.1084197e-05
3.258165e-05
3.5235724e-05
3.3369788e-05
3.4791595e-05
3.2696918e-05
3.3137972e-05
3.1867986e-05
3.2010697e-05
3.1502585e-05
3.1672478e-05
3.1666644e-05
3.2003161e-05
3.2357093e-05
3.2921492e-05
3.3584661e-05
3.4418722e-05
3.539399e-05
3.6544863e-05
3.7875639e-05
3.9414145e-05
4.1182773e-05
4.3215868e-05
4.5552005e-05
4.8240607e-05
5.134147e-05
5.4928573e-05
5.9092009e-05
6.3942569e-05
6.9616079e-05
7.6279143e-05
8.413623e-05
9.3438235e-05
0.00010449264
0.00011767566
0.00013344996
0.00015238223
0.00017516514
0.00020264436
0.00023585092
0.00027603616
0.00032471248
0.00038369945
0.00045517159
0.00054170995
0.00064635327
0.00077266365
0.00092482689
0.0010396795
0.00104019
0.0010399117
0.0010391754
0.0010382512
0.0010372264
0.0010360888
0.0010348057
0.0010332927
0.0010313986
0.0010290557
0.0010262451
0.0010230719
0.0010198442
0.0010168676
0.0010142539
0.0010119448
0.0010100287
0.0010083036
0.0010071916
0.0010056744
0.0010054825
0.0010043411
0.0010077986
0.0010038471
0.0010074778
3.2808255e-06
2.0485058e-05
1.8506475e-05
2.5520143e-05
2.2900295e-05
2.7108876e-05
2.8967005e-05
2.9145903e-05
3.215924e-05
2.9618031e-05
3.1158138e-05
2.8910824e-05
2.9407184e-05
2.8209456e-05
2.8367507e-05
2.7910847e-05
2.8073167e-05
2.8079306e-05
2.8388211e-05
2.8717784e-05
2.9231803e-05
2.9837902e-05
3.059513e-05
3.1480867e-05
3.2523456e-05
3.3728565e-05
3.5120236e-05
3.6719359e-05
3.8556527e-05
4.0666663e-05
4.3094057e-05
4.5892538e-05
4.9128559e-05
5.2883104e-05
5.725564e-05
6.2368134e-05
6.8370134e-05
7.5445015e-05
8.381787e-05
9.3764292e-05
0.00010562058
0.00011980042
0.00013680993
0.00015726707
0.00018192529
0.00021170311
0.00024771511
0.00029130899
0.00034410896
0.00040806175
0.00048548911
0.00057914323
0.00069227013
0.00082870283
0.00099297541
0.0010391957
0.0010390009
0.0010382773
0.0010373432
0.0010363104
0.0010351709
0.0010339028
0.0010324669
0.001030769
0.0010286014
0.0010259251
0.0010228178
0.0010195946
0.0010166119
0.0010139892
0.0010116897
0.0010097527
0.0010080719
0.0010068838
0.001005537
0.0010052381
0.0010041215
0.001006973
0.0010036368
0.0010069971
2.9455488e-06
2.0051544e-05
1.7465521e-05
2.3410073e-05
2.1396975e-05
2.4534779e-05
2.6970531e-05
2.6033829e-05
2.9201621e-05
2.6213442e-05
2.7742058e-05
2.5532794e-05
2.6014599e-05
2.4933128e-05
2.5081927e-05
2.4691679e-05
2.4841589e-05
2.4866999e-05
2.5152014e-05
2.5464703e-05
2.5936762e-05
2.6496009e-05
2.7188739e-05
2.7999178e-05
2.895023e-05
3.0048923e-05
3.1316148e-05
3.2771554e-05
3.4442684e-05
3.6361464e-05
3.8567973e-05
4.1111123e-05
4.4051234e-05
4.7461805e-05
5.1433089e-05
5.6075807e-05
6.1525677e-05
6.7949023e-05
7.5550142e-05
8.4579294e-05
9.5340899e-05
0.00010820968
0.00012364401
0.00014220316
0.00016456833
0.00019157038
0.00022421759
0.00026372995
0.00031158013
0.00036953736
0.00043971969
0.00052465079
0.00062732558
0.00075129362
0.00090077815
0.0010381937
0.001038098
0.0010373905
0.0010364439
0.0010353996
0.0010342524
0.0010329838
0.0010315653
0.0010299434
0.0010279879
0.0010254835
0.001022473
0.0010192736
0.0010162963
0.0010136786
0.0010113934
0.001009453
0.0010078078
0.0010065743
0.0010053656
0.0010049843
0.0010039281
0.001006211
0.0010034372
0.0010063157
2.6611841e-06
1.7368655e-05
1.6541475e-05
2.1415248e-05
2.003066e-05
2.2155221e-05
2.5085697e-05
2.3202333e-05
2.637474e-05
2.3155526e-05
2.4569312e-05
2.2538446e-05
2.2961329e-05
2.201939e-05
2.2144504e-05
2.1825955e-05
2.1961697e-05
2.200909e-05
2.2274059e-05
2.257475e-05
2.301227e-05
2.353308e-05
2.4172189e-05
2.4919799e-05
2.5794336e-05
2.6803916e-05
2.7966914e-05
2.9301931e-05
3.0834071e-05
3.2592802e-05
3.4614778e-05
3.6944895e-05
3.9638486e-05
4.276298e-05
4.6401165e-05
5.0654613e-05
5.5647932e-05
6.1533736e-05
6.849947e-05
7.6775325e-05
8.6640202e-05
9.843766e-05
0.0001125881
0.00012960431
0.00015011003
0.00017486666
0.00020479832
0.00024102355
0.00028489453
0.00033803827
0.00040240809
0.00048034034
0.00057462051
0.00068856305
0.00082612364
0.00099202125
0.0010371983
0.0010365126
0.0010355516
0.0010344932
0.0010333351
0.0010320607
0.001030646
0.0010290525
0.001027205
0.0010249151
0.0010220369
0.0010188822
0.0010159225
0.0010133227
0.0010110583
0.0010091286
0.0010075141
0.0010062565
0.0010051561
0.0010047089
0.001003747
0.0010055677
0.0010032519
0.0010057996
2.395991e-06
1.639608e-05
1.5436271e-05
1.9528771e-05
1.8791521e-05
1.9969017e-05
2.3285398e-05
2.0627538e-05
2.3677754e-05
2.0461376e-05
2.1689171e-05
1.9886166e-05
2.0224967e-05
1.9428786e-05
1.9523641e-05
1.9274593e-05
1.93966e-05
1.9465256e-05
1.9713719e-05
2.0005198e-05
2.0414197e-05
2.090294e-05
2.1497245e-05
2.2192058e-05
2.3002339e-05
2.3936928e-05
2.5012253e-05
2.6245993e-05
2.7661264e-05
2.9285535e-05
3.1152642e-05
3.3304138e-05
3.5791318e-05
3.867662e-05
4.2036711e-05
4.5965755e-05
5.0579295e-05
5.601881e-05
6.2458045e-05
7.0111173e-05
7.9236447e-05
9.0152369e-05
0.00010324884
0.00011900161
0.00013798835
0.00016091502
0.00018863884
0.00022219729
0.00026284642
0.0003120994
0.00037177667
0.00044406224
0.00053156919
0.00063741901
0.00076534417
0.00091981791
0.0010362955
0.0010356407
0.0010346638
0.0010335894
0.0010324182
0.0010311348
0.0010297181
0.0010281366
0.0010263368
0.0010242117
0.0010215076
0.0010184205
0.0010154915
0.0010129217
0.0010106865
0.0010087789
0.0010071934
0.0010059325
0.0010049111
0.0010043726
0.0010035673
0.0010049982
0.0010030667
0.0010052578
2.1643615e-06
1.5915589e-05
1.4387568e-05
1.7761649e-05
1.7647776e-05
1.7939931e-05
2.1509739e-05
1.831688e-05
2.1081036e-05
1.806912e-05
1.9074335e-05
1.7524661e-05
1.777243e-05
1.7118862e-05
1.7184906e-05
1.7000534e-05
1.7112206e-05
1.7200948e-05
1.7437274e-05
1.7722112e-05
1.8108475e-05
1.8571021e-05
1.9128594e-05
1.9779675e-05
2.0536624e-05
2.1408795e-05
2.2411082e-05
2.3560351e-05
2.487815e-05
2.6390276e-05
2.812833e-05
3.0131044e-05
3.2446468e-05
3.5132962e-05
3.8262181e-05
4.1922289e-05
4.6221472e-05
5.1292205e-05
5.7296976e-05
6.4437333e-05
7.2954758e-05
8.3147531e-05
9.5380925e-05
0.00011010115
0.00012784866
0.00014928479
0.00017521308
0.00020660573
0.00024464138
0.00029074093
0.00034661676
0.00041432779
0.00049634431
0.0005956265
0.00071572109
0.00086089084
0.0010353826
0.0010347721
0.0010337787
0.0010326868
0.0010315009
0.0010302065
0.0010287847
0.0010272081
0.0010254338
0.0010233835
0.0010208854
0.0010178917
0.0010150064
0.0010124785
0.0010102815
0.001008406
0.0010068502
0.0010056017
0.0010046406
0.0010040303
0.0010033811
0.0010044523
0.0010028713
0.0010047609
1.9638935e-06
1.5388638e-05
1.3410698e-05
1.6082155e-05
1.6578009e-05
1.6026748e-05
1.9722274e-05
1.6245399e-05
1.8610602e-05
1.5930757e-05
1.6707245e-05
1.5413746e-05
1.5576652e-05
1.5055232e-05
1.5098481e-05
1.4972152e-05
1.507807e-05
1.518523e-05
1.5413716e-05
1.5694109e-05
1.6063043e-05
1.6504553e-05
1.7032391e-05
1.7647627e-05
1.836073e-05
1.9181294e-05
2.0123128e-05
2.1202338e-05
2.243924e-05
2.385827e-05
2.5489198e-05
2.7368459e-05
2.9541437e-05
3.206319e-05
3.5001328e-05
3.8439082e-05
4.247874e-05
4.7245574e-05
5.2892611e-05
5.9611756e-05
6.7630772e-05
7.723163e-05
8.8759696e-05
0.00010263775
0.00011937602
0.00013959995
0.00016407013
0.00019370592
0.00022962375
0.00027316997
0.00032596914
0.00038997798
0.00046754931
0.00056150947
0.00067525308
0.00081286701
0.00097926477
0.001033904
0.0010328944
0.0010317839
0.0010305823
0.0010292758
0.0010278469
0.0010262717
0.0010245146
0.001022517
0.0010201704
0.0010172996
0.0010144709
0.0010119963
0.0010098471
0.0010080127
0.0010064901
0.0010052662
0.0010043512
0.0010037038
0.0010031869
0.0010039364
0.0010026715
0.0010042617
1.7899152e-06
1.4790927e-05
1.2497843e-05
1.44757e-05
1.5567689e-05
1.4293071e-05
1.7906895e-05
1.43836e-05
1.6320192e-05
1.4015141e-05
1.4577633e-05
1.3525425e-05
1.3616853e-05
1.3212264e-05
1.3240476e-05
1.31646e-05
1.3269311e-05
1.3393061e-05
1.3617478e-05
1.3895319e-05
1.4251402e-05
1.4676432e-05
1.51807e-05
1.5767017e-05
1.6444589e-05
1.7223058e-05
1.8115431e-05
1.9137162e-05
2.0307584e-05
2.1650048e-05
2.3192854e-05
2.4970531e-05
2.7026331e-05
2.9412663e-05
3.2193865e-05
3.5449159e-05
3.9276173e-05
4.3794515e-05
4.9149061e-05
5.552476e-05
6.3138151e-05
7.2258073e-05
8.3213694e-05
9.6409689e-05
0.00011233165
0.000131576
0.00015486928
0.00018308803
0.0002172989
0.00025878801
0.00030910879
0.00037013483
0.00044412273
0.00053378854
0.00064240126
0.00077390152
0.00093303838
0.0010330339
0.0010320092
0.0010308798
0.001029662
0.0010283427
0.0010269059
0.0010253301
0.0010235848
0.0010216228
0.0010193626
0.0010166504
0.0010138906
0.0010114799
0.0010093881
0.0010076029
0.0010061184
0.001004928
0.001004049
0.0010033932
0.0010029853
0.0010034608
0.0010024712
0.0010037668
1.6386494e-06
1.4098196e-05
1.1647878e-05
1.2930891e-05
1.4591808e-05
1.2722504e-05
1.6056711e-05
1.2705179e-05
1.4218836e-05
1.2295912e-05
1.2672005e-05
1.1835549e-05
1.1872289e-05
1.1567572e-05
1.1588785e-05
1.1555994e-05
1.166361e-05
1.1802319e-05
1.1974921e-05
1.2243773e-05
1.2584833e-05
1.2992485e-05
1.3474128e-05
1.4033264e-05
1.467791e-05
1.5417436e-05
1.6264027e-05
1.723239e-05
1.8340864e-05
1.9611772e-05
2.1072087e-05
2.2754485e-05
2.4700327e-05
2.6959612e-05
2.9593762e-05
3.267843e-05
3.630709e-05
4.0594818e-05
4.5983778e-05
5.2082387e-05
5.9369218e-05
6.8102744e-05
7.8598711e-05
9.124844e-05
0.0001065174
0.00012497863
0.00014733217
0.00017441981
0.00020726894
0.00024711745
0.0002954617
0.00035410837
0.00042523631
0.0005114722
0.00061598263
0.000742589
0.00089590524
0.0010321596
0.0010311221
0.0010299739
0.0010287399
0.0010274078
0.0010259628
0.0010243856
0.0010226498
0.0010207165
0.0010185221
0.0010159515
0.0010132718
0.0010109351
0.0010089099
0.0010071812
0.0010057409
0.0010045904
0.0010037408
0.0010030979
0.0010027782
0.0010030389
0.0010022826
0.0010033249
1.5069941e-06
1.3298407e-05
1.085223e-05
1.1438927e-05
1.3613103e-05
1.1296133e-05
1.4190353e-05
1.1186597e-05
1.230973e-05
1.0749998e-05
1.0974425e-05
1.0323408e-05
1.0323057e-05
1.0101928e-05
1.0075041e-05
1.0060832e-05
1.0164554e-05
1.0311396e-05
1.0532331e-05
1.0808217e-05
1.1148381e-05
1.1550611e-05
1.2021205e-05
1.2564626e-05
1.3188438e-05
1.3902056e-05
1.4717267e-05
1.564837e-05
1.6713084e-05
1.7933075e-05
1.9334526e-05
2.0948681e-05
2.2815639e-05
2.4983743e-05
2.7512343e-05
3.047448e-05
3.3960567e-05
3.8083361e-05
4.2977721e-05
4.8810682e-05
5.5786582e-05
6.4155094e-05
7.479699e-05
8.701699e-05
0.00010177296
0.00011961885
0.00014123517
0.00016743523
0.00019921625
0.00023777811
0.00028457203
0.0003413517
0.00041023428
0.00049377534
0.00059506013
0.00071781544
0.00086654779
0.0010312785
0.0010302325
0.001029066
0.0010278163
0.0010264721
0.0010250194
0.0010234406
0.0010217131
0.0010198046
0.0010176658
0.0010152119
0.0010126224
0.0010103688
0.0010084182
0.0010067529
0.0010053633
0.0010042566
0.0010034334
0.0010028167
0.0010025652
0.0010026764
0.0010021036
0.001002948
1.3929804e-06
1.2389393e-05
1.0111185e-05
1.0084399e-05
1.2599791e-05
9.9965788e-06
1.2392674e-05
9.8088699e-06
1.0593237e-05
9.3591577e-06
9.4689276e-06
8.9724764e-06
8.8805178e-06
8.7059254e-06
8.7220478e-06
8.7538157e-06
8.8771878e-06
9.0447315e-06
9.2752749e-06
9.5575836e-06
9.8981075e-06
1.0296826e-05
1.0759464e-05
1.1291136e-05
1.189907e-05
1.2592702e-05
1.3383524e-05
1.4285481e-05
1.5315781e-05
1.6495588e-05
1.7850619e-05
1.9410814e-05
2.1215391e-05
2.331145e-05
2.5756815e-05
2.8622496e-05
3.1996106e-05
3.5988798e-05
4.0731707e-05
4.6387948e-05
5.3157043e-05
6.128323e-05
7.1066943e-05
8.2868686e-05
9.7130792e-05
0.00011533968
0.00013639343
0.00016191525
0.00019288039
0.00023045951
0.00027606898
0.00033142166
0.00039858705
0.00048006577
0.00057888047
0.0006986863
0.00084390914
0.0010199001
0.0010293404
0.0010281566
0.0010268924
0.001025537
0.0010240775
0.001022498
0.0010207784
0.0010188921
0.0010168005
0.001014442
0.0010119511
0.0010097884
0.0010079196
0.0010063238
0.001004991
0.0010039305
0.0010031324
0.001002549
0.0010023428
0.0010023616
0.001001936
0.00100262
1.2944485e-06
1.1375125e-05
9.4178161e-06
8.8566847e-06
1.1519553e-05
8.8122767e-06
1.0695196e-05
8.5595943e-06
9.0672453e-06
8.1104841e-06
8.0611662e-06
7.6526781e-06
7.6050439e-06
7.5079542e-06
7.5495519e-06
7.6181344e-06
7.7595265e-06
7.9444884e-06
8.1843297e-06
8.4729072e-06
8.8150967e-06
9.2122265e-06
9.6697687e-06
1.0193336e-05
1.078986e-05
1.1468798e-05
1.2241434e-05
1.312142e-05
1.4125523e-05
1.5274493e-05
1.6529816e-05
1.8036259e-05
1.9778666e-05
2.1802919e-05
2.4165436e-05
2.6935434e-05
3.0371277e-05
3.4265166e-05
3.889355e-05
4.4416794e-05
5.1030824e-05
5.8974673e-05
6.8545525e-05
8.0095984e-05
9.406087e-05
0.00011097147
0.00013146679
0.00015767698
0.00018804438
0.00022490353
0.00026964495
0.00032395134
0.00038985696
0.00046982186
0.00056682263
0.00068446336
0.0008271128
0.0010000607
0.0010284467
0.0010272469
0.0010259696
0.0010246047
0.00102314
0.0010215609
0.0010198499
0.0010179843
0.0010159338
0.0010136533
0.0010112678
0.0010092021
0.0010074207
0.0010058998
0.0010046291
0.0010036162
0.0010028435
0.0010022964
0.0010021104
0.0010020333
0.0010017758
0.001002342
1.2102068e-06
1.026945e-05
8.7641381e-06
7.742428e-06
1.0341922e-05
7.7300218e-06
9.1220995e-06
7.4251411e-06
7.7231226e-06
6.8710158e-06
6.8064955e-06
6.531893e-06
6.507986e-06
6.471351e-06
6.5370265e-06
6.6355085e-06
6.7935685e-06
6.9936518e-06
7.2426759e-06
7.5377074e-06
7.8828842e-06
8.2803229e-06
8.7353993e-06
9.2317381e-06
9.8151572e-06
1.0478105e-05
1.1231459e-05
1.2088393e-05
1.3065059e-05
1.4181427e-05
1.5461843e-05
1.6936206e-05
1.8641288e-05
2.0622382e-05
2.2935292e-05
2.5648809e-05
2.8847685e-05
3.2636342e-05
3.7143301e-05
4.2526508e-05
4.8978934e-05
5.7165237e-05
6.6587786e-05
7.7963747e-05
9.1721148e-05
0.00010838696
0.00012859117
0.00015310486
0.00018452151
0.0002208885
0.00026503625
0.00031862674
0.00038367013
0.00046259871
0.00055835782
0.00067451834
0.00081541261
0.00098629305
0.0010275529
0.001026339
0.0010250505
0.0010236779
0.0010222099
0.0010206333
0.0010189321
0.001017087
0.0010150735
0.0010128581
0.0010105828
0.0010086183
0.0010069283
0.0010054866
0.0010042827
0.0010033184
0.0010025729
0.0010020605
0.0010018799
0.0010017394
0.0010016145
0.0010020973
1.1399592e-06
9.0856273e-06
8.1431793e-06
6.7322585e-06
9.1041854e-06
6.7397055e-06
7.702698e-06
6.3454521e-06
6.3761488e-06
5.7999886e-06
5.7387156e-06
5.5661733e-06
5.5676456e-06
5.5784167e-06
5.6666946e-06
5.7900319e-06
5.9636383e-06
6.177324e-06
6.4356109e-06
6.7375164e-06
7.0701995e-06
7.4651832e-06
7.9158157e-06
8.4276942e-06
9.0079932e-06
9.6654741e-06
1.0410988e-05
1.1257602e-05
1.2221203e-05
1.3321588e-05
1.458285e-05
1.6034602e-05
1.7713305e-05
1.9663904e-05
2.1941822e-05
2.4615392e-05
2.7768789e-05
3.1505684e-05
3.5953685e-05
4.1269938e-05
4.7647624e-05
5.5320446e-05
6.457431e-05
7.5755264e-05
9.0024853e-05
0.00010654131
0.00012656654
0.00015086946
0.00018037129
0.00021821771
0.0002620089
0.00031516933
0.00037969508
0.00045800216
0.00055301784
0.00066829561
0.00080815068
0.00097782062
0.0010266615
0.0010254355
0.001024138
0.00102276
0.0010212912
0.0010197195
0.0010180303
0.0010162066
0.0010142281
0.0010120691
0.0010099068
0.0010080457
0.0010064492
0.0010050897
0.0010039555
0.0010030411
0.0010023261
0.0010018442
0.0010016535
0.0010014728
0.0010014426
0.0010018747
1.0846e-06
7.8345625e-06
7.5354839e-06
5.8152881e-06
7.8412312e-06
5.811312e-06
6.9298584e-06
5.3158623e-06
5.2632981e-06
4.879392e-06
4.8334265e-06
4.7373926e-06
4.7648759e-06
4.8137418e-06
4.9231541e-06
5.0678174e-06
5.2561396e-06
5.4824829e-06
5.7347062e-06
6.0402748e-06
6.3915423e-06
6.7917485e-06
7.2455945e-06
7.7588867e-06
8.338864e-06
8.9942651e-06
9.7359391e-06
1.0576937e-05
1.1532862e-05
1.2623456e-05
1.3872676e-05
1.5310002e-05
1.6971785e-05
1.8902872e-05
2.1158609e-05
2.3807256e-05
2.6932894e-05
3.0638937e-05
3.5052492e-05
4.0329997e-05
4.6665569e-05
5.4291897e-05
6.3495309e-05
7.4621396e-05
8.8090909e-05
0.00010441518
0.00012528217
0.00014948931
0.00017888008
0.00021456554
0.00026034516
0.00031331972
0.00037762282
0.00045566479
0.00055036589
0.00066527665
0.00080471219
0.00097391604
0.001025776
0.0010245402
0.001023236
0.0010218552
0.0010203883
0.0010188242
0.0010171498
0.0010153497
0.0010134062
0.0010112987
0.0010092503
0.0010074927
0.0010059898
0.0010047137
0.0010036503
0.0010027868
0.0010021066
0.0010016514
0.0010014391
0.0010012299
0.001001265
0.0010016709
1.04856e-06
6.5399973e-06
6.9107345e-06
4.9933908e-06
6.6143956e-06
5.5346093e-06
5.3757403e-06
4.3919984e-06
4.3472872e-06
4.0885387e-06
4.0678531e-06
4.0314033e-06
4.0841845e-06
4.1646943e-06
4.2938434e-06
4.4572436e-06
4.6460937e-06
4.8810338e-06
5.1555591e-06
5.4708186e-06
5.8297757e-06
6.2361044e-06
6.6946641e-06
7.2113875e-06
7.793585e-06
8.4498992e-06
9.1911994e-06
1.0008396e-05
1.0954928e-05
1.2033379e-05
1.3267403e-05
1.4686184e-05
1.6325796e-05
1.8230832e-05
2.045642e-05
2.3070623e-05
2.6157346e-05
2.9819739e-05
3.418425e-05
3.966622e-05
4.5988669e-05
5.3602188e-05
6.2795365e-05
7.3913567e-05
8.7377398e-05
0.00010369888
0.00012349908
0.00014883701
0.00017823177
0.00021392672
0.00025726358
0.00031282219
0.00037714807
0.00045522349
0.00054996996
0.00066494773
0.00080448689
0.00097385513
0.0010249007
0.0010236578
0.0010223495
0.0010209684
0.0010195062
0.0010179527
0.0010162962
0.0010145228
0.0010126164
0.001010559
0.0010086234
0.0010069675
0.0010055562
0.0010043625
0.001003369
0.0010025572
0.0010019157
0.0010014839
0.0010012455
0.001001019
0.0010011006
0.0010014744
1.0339389e-06
6.0402013e-06
6.2748715e-06
5.1484689e-06
6.2997347e-06
4.1558867e-06
4.1687089e-06
3.6232717e-06
3.5809367e-06
3.4239599e-06
3.4264852e-06
3.4378755e-06
3.5141245e-06
3.6209843e-06
3.7580284e-06
3.9340169e-06
4.1468625e-06
4.3952276e-06
4.6807776e-06
5.0054699e-06
5.3725258e-06
5.7859074e-06
6.2505863e-06
6.7725411e-06
7.3478284e-06
8.0040233e-06
8.7434463e-06
9.5788374e-06
1.052581e-05
1.1603567e-05
1.2835809e-05
1.4251821e-05
1.5887862e-05
1.7788801e-05
2.0010161e-05
2.2620527e-05
2.5704487e-05
2.9366124e-05
3.3733214e-05
3.8962247e-05
4.5244415e-05
5.3199046e-05
6.2414648e-05
7.3564328e-05
8.7069039e-05
0.00010344245
0.0001233078
0.00014742103
0.00017827113
0.00021408729
0.00025756976
0.00031036033
0.00037795409
0.00045630096
0.00055138036
0.0006667728
0.0008068363
0.00097687741
0.0010240415
0.001022794
0.0010214842
0.0010201056
0.0010186507
0.0010171107
0.0010154753
0.0010137321
0.0010118663
0.001009861
0.0010080355
0.0010064775
0.001005154
0.0010040391
0.0010031127
0.0010023525
0.001001751
0.0010013388
0.001001078
0.0010008487
0.0010009411
0.0010012763
1.0373359e-06
6.1617357e-06
5.5945151e-06
5.5023361e-06
5.4486651e-06
3.2993916e-06
3.3632399e-06
2.9774397e-06
2.9474492e-06
2.8693572e-06
2.8959805e-06
2.9452658e-06
3.0434187e-06
3.1619194e-06
3.3223344e-06
3.5156028e-06
3.7423466e-06
4.0027211e-06
4.2987223e-06
4.6328371e-06
5.0084931e-06
5.4298322e-06
5.8951006e-06
6.4214632e-06
7.0113355e-06
7.6732783e-06
8.4176978e-06
9.257311e-06
1.0207734e-05
1.1288221e-05
1.2522589e-05
1.3940335e-05
1.5578014e-05
1.7480917e-05
1.9705112e-05
2.2319883e-05
2.5410662e-05
2.9082565e-05
3.3464558e-05
3.8714481e-05
4.5025415e-05
5.2633036e-05
6.2290127e-05
7.3500651e-05
8.7080951e-05
0.00010354723
0.00012352564
0.00014777545
0.00017883046
0.00021484916
0.00025857423
0.00031165597
0.00037969677
0.00045848621
0.00055410642
0.00067016576
0.00081105988
0.00098214564
0.0010232049
0.0010219556
0.001020647
0.0010192734
0.0010178281
0.001016304
0.0010146923
0.0010129826
0.001011162
0.0010092139
0.0010074944
0.0010060295
0.0010047883
0.0010037464
0.001002882
0.0010021716
0.0010016086
0.0010012125
0.0010009397
0.0010007164
0.0010007781
0.0010010648
8.3743692e-07
6.5464531e-06
4.8226785e-06
3.4658546e-06
3.4809721e-06
2.7225504e-06
2.6692456e-06
2.4573824e-06
2.4339944e-06
2.4143641e-06
2.4644885e-06
2.5432926e-06
2.6521365e-06
2.7966573e-06
2.9740652e-06
3.1818623e-06
3.4209596e-06
3.6924497e-06
3.9986252e-06
4.3423044e-06
4.7270481e-06
5.1522745e-06
5.6308771e-06
6.1654411e-06
6.763024e-06
7.4321501e-06
8.1831902e-06
9.0288535e-06
9.9847937e-06
1.1070367e-05
1.2309567e-05
1.3732174e-05
1.5375138e-05
1.7284269e-05
1.9516291e-05
2.2141289e-05
2.5245687e-05
2.8935799e-05
3.3341969e-05
3.8623219e-05
4.4974131e-05
5.3023467e-05
6.2353228e-05
7.3642566e-05
8.7319605e-05
0.00010390381
0.00012402509
0.0001484472
0.00017972144
0.00021598915
0.00026001313
0.00031345458
0.00038198707
0.00046131435
0.00055759195
0.00067446091
0.00081636029
0.00098870411
0.0010223985
0.0010211504
0.0010198458
0.0010184795
0.0010170461
0.0010155393
0.0010139523
0.0010122773
0.0010105051
0.001008625
0.0010070063
0.0010056291
0.0010044643
0.0010034884
0.0010026792
0.0010020141
0.0010014875
0.0010011069
0.0010008212
0.0010005829
0.001000608
0.0010008208
6.5158616e-07
4.8536336e-06
3.7412646e-06
2.6275976e-06
2.6798824e-06
2.191462e-06
2.1366156e-06
2.018515e-06
2.0206896e-06
2.0427125e-06
2.1167659e-06
2.2134244e-06
2.3464142e-06
2.5089694e-06
2.7008729e-06
2.9213865e-06
3.1718185e-06
3.4538642e-06
3.7700388e-06
4.1233548e-06
4.5146301e-06
4.9525665e-06
5.4402425e-06
5.9835273e-06
6.5894332e-06
7.2664424e-06
8.0249033e-06
8.8775345e-06
9.8400548e-06
1.0931959e-05
1.2177468e-05
1.3606688e-05
1.5257013e-05
1.7174827e-05
1.9417539e-05
2.205605e-05
2.5177772e-05
2.8890283e-05
3.3325797e-05
3.8644297e-05
4.5353285e-05
5.3131361e-05
6.2529632e-05
7.3903035e-05
8.7682548e-05
0.00010439106
0.00012466264
0.0001492656
0.00018073384
0.00021725668
0.00026158739
0.00031539873
0.00038438626
0.00046426011
0.0005612073
0.00067890263
0.0008218298
0.00099546103
0.001021631
0.0010203872
0.0010190896
0.0010177334
0.0010163139
0.0010148256
0.0010132628
0.0010116192
0.0010098876
0.0010080999
0.0010065753
0.00100528
0.001004186
0.00100327
0.0010025095
0.001001884
0.0010013889
0.0010010215
0.0010007284
0.0010004845
0.001000466
0.0010005835
5.0497359e-07
2.7108641e-06
2.9487556e-06
2.1191189e-06
2.0543887e-06
1.7594044e-06
1.7198041e-06
1.6675291e-06
1.6947924e-06
1.749395e-06
1.8444452e-06
1.9616265e-06
2.1118757e-06
2.2890817e-06
2.4933793e-06
2.7251605e-06
2.9860558e-06
3.2781152e-06
3.6039735e-06
3.9667182e-06
4.3699799e-06
4.8154299e-06
5.3120883e-06
5.8640307e-06
6.478223e-06
7.1631116e-06
7.9290348e-06
8.7887402e-06
9.7580301e-06
1.0856554e-05
1.2108772e-05
1.3545136e-05
1.5203491e-05
1.7130791e-05
1.9385112e-05
2.2038098e-05
2.517788e-05
2.9071252e-05
3.3569375e-05
3.8964279e-05
4.5454893e-05
5.3283319e-05
6.2743634e-05
7.419252e-05
8.8063247e-05
0.00010488162
0.00012528604
0.00015136573
0.00018163832
0.00021837647
0.00026296623
0.00031709091
0.000386402
0.00046673146
0.00056424001
0.00068263258
0.00082643301
0.0010011661
0.0010209122
0.0010196761
0.0010183887
0.0010170459
0.0010156432
0.001014176
0.0010126391
0.001011027
0.0010093335
0.001007643
0.0010062035
0.0010049827
0.0010039532
0.0010030917
0.0010023755
0.0010017862
0.0010013184
0.0010009618
0.0010006688
0.0010004333
0.0010003827
0.0010004344
4.0487054e-07
2.0787505e-06
2.2370844e-06
1.6613752e-06
1.5892401e-06
1.4194042e-06
1.3986644e-06
1.3932229e-06
1.4438921e-06
1.5242733e-06
1.6377127e-06
1.7736907e-06
1.938138e-06
2.127691e-06
2.3429226e-06
2.5848916e-06
2.8554398e-06
3.1567968e-06
3.4916463e-06
3.8630914e-06
4.2747339e-06
4.730759e-06
5.2360785e-06
5.7965245e-06
6.4191082e-06
7.1123539e-06
7.8867209e-06
8.7551345e-06
9.733642e-06
1.0842218e-05
1.2105743e-05
1.3555186e-05
1.522904e-05
1.7175028e-05
1.9452153e-05
2.2133184e-05
2.5307573e-05
2.908506e-05
3.3599858e-05
3.9015874e-05
4.5532936e-05
5.3394274e-05
6.2895667e-05
7.4394067e-05
8.832349e-05
0.00010609911
0.00012673504
0.00015176709
0.00018213905
0.00021899571
0.00026372766
0.00032102806
0.000387413
0.00046798622
0.00056580286
0.00068458902
0.00082889762
0.001004292
0.001020252
0.0010190271
0.0010177533
0.0010164271
0.0010150446
0.0010136017
0.0010120938
0.0010105162
0.0010088638
0.0010072579
0.0010058928
0.0010047369
0.0010037637
0.0010029496
0.0010022725
0.0010017155
0.0010012715
0.0010009246
0.0010006356
0.00100041
0.0010003339
0.001000328
3.0797906e-07
1.6030218e-06
1.665704e-06
1.3090153e-06
1.236984e-06
1.1500489e-06
1.1498483e-06
1.1790188e-06
1.2507e-06
1.3515128e-06
1.4801824e-06
1.6316394e-06
1.8072095e-06
2.0065664e-06
2.2306414e-06
2.480869e-06
2.7592113e-06
3.0679856e-06
3.4098895e-06
3.7880211e-06
4.2059589e-06
4.6678602e-06
5.1785927e-06
5.7439303e-06
6.3708234e-06
7.06774e-06
7.8450946e-06
8.7157869e-06
9.6958642e-06
1.0805331e-05
1.2069136e-05
1.351835e-05
1.5191603e-05
1.7136783e-05
1.9413131e-05
2.2093762e-05
2.5268219e-05
2.9046388e-05
3.3562576e-05
3.8980663e-05
4.5500142e-05
5.3757516e-05
6.3334138e-05
7.4919735e-05
8.8949997e-05
0.0001059535
0.00012657129
0.00015158105
0.0001819267
0.00021875085
0.00026584533
0.0003204759
0.00038677756
0.00046726092
0.00056498515
0.00068368341
0.00082791924
0.0010032717
0.0010196615
0.0010184508
0.0010171937
0.0010158872
0.0010145277
0.0010131116
0.0010116351
0.0010100941
0.0010084842
0.0010069487
0.0010056454
0.0010045436
0.001003617
0.0010028423
0.0010021979
0.0010016682
0.0010012436
0.0010009056
0.0010006238
0.0010004085
0.001000313
0.0010002638
1.9188704e-07
1.2605382e-06
1.2028896e-06
1.040797e-06
9.7737262e-07
9.46041e-07
9.683616e-07
1.0254871e-06
1.1170084e-06
1.2353772e-06
1.3777222e-06
1.5419925e-06
1.728116e-06
1.936843e-06
2.1694966e-06
2.4272666e-06
2.713104e-06
3.0289747e-06
3.377575e-06
3.7620052e-06
4.185855e-06
4.6532902e-06
5.1691372e-06
5.7390919e-06
6.3700384e-06
7.0703769e-06
7.8504568e-06
8.7231204e-06
9.7043628e-06
1.0814147e-05
1.2077378e-05
1.3525082e-05
1.5195804e-05
1.7137294e-05
1.9482317e-05
2.2174404e-05
2.5362021e-05
2.915521e-05
3.3688413e-05
3.9125618e-05
4.5666359e-05
5.3553109e-05
6.3080353e-05
7.4605567e-05
8.8560897e-05
0.00010547122
0.000125973
0.00015218513
0.00018257273
0.00021943404
0.00026415708
0.00031842907
0.00038430269
0.00046427767
0.00056140136
0.000679394
0.00082280534
0.00099719911
0.0010191524
0.0010179587
0.0010167211
0.0010154367
0.0010141024
0.0010127152
0.0010112714
0.0010097677
0.0010082002
0.0010067191
0.0010054633
0.001004403
0.0010035122
0.0010027675
0.0010021484
0.0010016397
0.0010012296
0.0010008986
0.001000624
0.0010004157
0.0010003024
0.0010002187
2.6935777e-07
1.0047992e-06
8.8013539e-07
8.2994962e-07
7.9708549e-07
7.9835702e-07
8.3945933e-07
9.148668e-07
1.0189539e-06
1.146738e-06
1.2955812e-06
1.4646582e-06
1.6543376e-06
1.8656576e-06
2.1000901e-06
2.3594203e-06
2.6457172e-06
2.9613816e-06
3.3091517e-06
3.6921665e-06
4.1140023e-06
4.5787154e-06
5.0907874e-06
5.6557115e-06
6.2804308e-06
6.9733078e-06
7.7446346e-06
8.6071603e-06
9.5767577e-06
1.067323e-05
1.192128e-05
1.3351678e-05
1.5002655e-05
1.6921588e-05
1.9166943e-05
2.1810431e-05
2.4940126e-05
2.8664166e-05
3.3114648e-05
3.8452561e-05
4.4873799e-05
5.2616344e-05
6.2450407e-05
7.3852127e-05
8.765539e-05
0.00010437911
0.00012465288
0.00014924074
0.00017907032
0.00021526847
0.00025920484
0.00031254556
0.000377319
0.00045599678
0.00055159385
0.00066779298
0.00080909981
0.0009810266
0.0010187364
0.0010175625
0.0010163468
0.0010150867
0.0010137796
0.0010124226
0.0010110129
0.0010095474
0.0010080232
0.0010065774
0.0010053528
0.0010043195
0.0010034517
0.0010027263
0.0010021234
0.0010016279
0.0010012261
0.0010008993