/*--------------------------------*- C++ -*----------------------------------*\
  =========                 |
  \\      /  F ield         | OpenFOAM: The Open Source CFD Toolbox
   \\    /   O peration     | Website:  https://openfoam.org
    \\  /    A nd           | Version:  6
     \\/     M anipulation  |
\*---------------------------------------------------------------------------*/
FoamFile
{
    version     2.0;
    format      ascii;
    class       volScalarField;
    location    "800";
    object      omega;
}
// * * * * * * * * * * * * * * * * * * * * * * * * * * * * * * * * * * * * * //

dimensions      [0 0 -1 0 0 0 0];

internalField   nonuniform List<scalar> 
16000
(
1431.727
1494.2412
765.22001
495.55566
332.89738
257.06293
192.43735
159.73044
129.16616
110.54233
93.645767
81.576183
71.02082
62.725134
55.60267
49.729457
44.726247
40.496315
36.856431
33.72187
30.996779
28.61975
26.533486
24.695631
23.069717
21.626772
20.342261
19.195985
18.170904
17.252754
16.429503
15.690981
15.028466
14.434414
13.902264
13.42625
13.001245
12.622646
12.286271
11.988273
11.725102
11.493523
11.290513
11.113231
10.959029
10.825454
10.710216
10.611209
10.52653
10.45449
10.393656
10.342927
10.301751
10.270781
10.249471
10.235839
10.227291
10.220877
10.214473
10.207124
10.197883
10.186986
10.173975
10.158287
10.139547
10.117981
10.09462
10.071813
10.051001
10.033502
10.017795
10.006573
9.9948271
9.9893964
9.9811615
9.9892003
9.9834183
10.024995
9.9931849
10.036501
1337.0254
1535.0784
767.20703
503.02845
334.86365
260.91023
194.11675
161.87839
130.41206
111.73572
94.442854
82.21112
71.45773
63.015491
55.817235
49.905181
44.866944
40.611308
36.950327
33.799267
31.061046
28.673719
26.579366
24.735142
23.104232
21.657375
20.369815
19.221157
18.194201
17.274534
16.450009
15.710378
15.046869
14.45189
13.91885
13.441967
13.016105
12.636654
12.299441
12.000618
11.736619
11.504219
11.300403
11.122336
10.96737
10.833061
10.717122
10.617442
10.532107
10.459406
10.397862
10.346266
10.303781
10.270216
10.246583
10.231381
10.222073
10.215458
10.209089
10.202049
10.194048
10.184302
10.172405
10.157755
10.139904
10.118886
10.095678
10.072615
10.051669
10.033788
10.018242
10.006386
9.9955586
9.9902134
9.9819867
9.9869862
9.9825222
10.020068
9.9934951
10.037116
1088.1324
1574.6523
767.10353
509.69426
336.16187
264.26633
195.45922
163.69738
131.43587
112.67342
95.047959
82.626735
71.711827
63.184522
55.939424
49.996451
44.932101
40.657501
36.982062
33.820043
31.073823
28.680703
26.582383
24.735491
23.10295
21.655242
20.367431
19.218958
18.192492
17.273494
16.449716
15.710846
15.048076
14.453776
13.921338
13.444968
13.019527
12.640408
12.303448
12.004811
11.740911
11.508535
11.304683
11.126529
10.971427
10.836948
10.720811
10.620909
10.535325
10.462336
10.400441
10.348382
10.305193
10.270351
10.244213
10.227234
10.217016
10.210123
10.2037
10.196669
10.188844
10.179981
10.169436
10.156048
10.139302
10.119064
10.096163
10.072995
10.051933
10.033868
10.018389
10.006228
9.9958756
9.9906876
9.9828391
9.9859331
9.982459
10.016025
9.9936783
10.033954
1114.3004
1608.5946
765.44949
515.49572
336.89444
267.05551
196.5204
165.11871
132.24222
113.29846
95.440688
82.78249
71.804449
63.241646
55.964667
49.998901
44.918184
40.631788
36.949029
33.781984
31.033241
28.639154
26.54124
24.695619
23.065018
21.619696
20.334585
19.188992
18.165493
17.249445
16.428514
15.692338
15.032092
14.440121
13.909805
13.435352
13.011626
12.634026
12.298408
12.000964
11.738082
11.506566
11.303436
11.12588
10.971257
10.837156
10.721313
10.621625
10.536183
10.463259
10.401342
10.349146
10.305638
10.270114
10.242401
10.223422
10.212127
10.204887
10.19838
10.191301
10.183476
10.174742
10.164805
10.152945
10.137565
10.118374
10.095989
10.072861
10.051759
10.033632
10.018236
10.005922
9.9959253
9.9901569
9.9836485
9.9859288
9.9826665
10.011541
9.9939914
10.032136
1138.227
1634.2196
762.62015
520.31997
337.08364
269.19466
197.30388
166.08019
132.81677
113.56112
95.59383
82.792084
71.776452
63.185873
55.891667
49.911624
44.824204
40.533412
36.850511
33.684519
30.9388
28.548648
26.455595
24.615251
22.990214
21.550569
20.271151
19.131175
18.113153
17.202369
16.386412
15.654889
14.998973
14.410996
13.884336
13.413214
12.992505
12.617618
12.284434
11.98919
11.728245
11.498422
11.296767
11.120489
10.966952
10.833771
10.718703
10.619657
10.534737
10.462217
10.400584
10.348542
10.305024
10.269237
10.240779
10.219966
10.207394
10.199727
10.193113
10.185962
10.178095
10.169373
10.159586
10.148329
10.134603
10.116754
10.095127
10.072193
10.051142
10.033065
10.017791
10.005464
9.9957557
9.9896478
9.984227
9.985882
9.9831022
10.007554
9.9943567
10.028597
1159.8714
1647.6055
759.10661
524.02664
336.76717
270.57619
197.82071
166.49925
133.1397
113.47945
95.484461
82.652548
71.624777
63.014808
55.718047
49.732786
44.648455
40.360991
36.685294
33.526642
30.789639
28.408485
26.324862
24.493911
22.878159
21.447565
20.17691
19.045349
18.035369
17.132205
16.323394
15.598512
14.94876
14.366465
13.845014
13.378647
12.962267
12.591293
12.261634
11.969599
11.711508
11.484206
11.284772
11.110449
10.9586
10.826872
10.713053
10.615066
10.531038
10.459252
10.398199
10.34658
10.303313
10.267557
10.238775
10.216908
10.202818
10.19463
10.187889
10.18065
10.172718
10.16397
10.154231
10.143212
10.130338
10.114164
10.093574
10.070997
10.050096
10.032171
10.017073
10.004843
9.995387
9.9891052
9.984539
9.9856902
9.9836484
10.004486
9.9947923
10.026211
1179.2622
1646.4275
755.12752
526.42296
336.00305
271.07484
198.08672
166.28369
133.17812
113.19867
95.225431
82.36466
71.348865
62.728677
55.443485
49.462423
44.390791
40.114512
36.453363
33.308441
30.585876
28.218841
26.149255
24.331869
22.729161
21.311028
20.052234
18.931909
17.932551
17.039384
16.239899
15.523652
14.881895
14.306965
13.792264
13.332065
12.921308
12.55543
12.230357
11.942515
11.688172
11.464194
11.267701
11.095983
10.946397
10.816632
10.704512
10.607982
10.525197
10.454454
10.394255
10.343307
10.300523
10.265038
10.236244
10.213895
10.198406
10.189579
10.182693
10.175352
10.16734
10.158545
10.148812
10.137905
10.125421
10.110541
10.091315
10.069276
10.048628
10.030952
10.016095
10.004052
9.994836
9.9885407
9.9845994
9.9850428
9.9842136
10.001978
9.9951754
10.023495
1196.4935
1642.8979
750.0794
527.33151
334.87238
270.57
198.11997
165.66911
132.86668
112.72505
94.818114
81.931284
70.94923
62.328656
55.068236
49.101065
44.051432
39.794277
36.154967
33.030206
30.327824
27.98006
25.929162
24.129549
22.543677
21.14145
19.897641
18.791395
17.805253
16.924463
16.136491
15.430872
14.798936
14.233041
13.726616
13.273974
12.87011
12.510487
12.191025
11.908329
11.658596
11.438714
11.245847
11.077355
10.93058
10.803256
10.693261
10.598556
10.517341
10.447929
10.388839
10.338789
10.296697
10.261687
10.233107
10.21059
10.194179
10.184558
10.177511
10.170059
10.161957
10.153102
10.143352
10.132506
10.120241
10.105962
10.08835
10.067052
10.04676
10.029426
10.014883
10.003105
9.9941349
9.9879463
9.98448
9.9843591
9.9847266
9.9996294
9.9954196
10.02101
1211.6958
1640.5024
744.04275
526.59941
333.45736
268.92204
197.89764
164.79055
132.25052
112.06693
94.264003
81.356196
70.426928
61.816649
54.59319
48.649821
43.631195
39.40109
35.790879
32.692729
30.01628
27.692959
25.66541
23.88781
22.322588
20.939725
19.714038
18.624712
17.654376
16.788337
16.014058
15.321037
14.700721
14.145502
13.648841
13.205105
12.809357
12.457109
12.144223
11.867578
11.623268
11.408207
11.219601
11.054911
10.911452
10.78701
10.679527
10.586985
10.507634
10.439814
10.382063
10.333116
10.2919
10.257539
10.229361
10.206938
10.190181
10.179555
10.17233
10.164762
10.156565
10.147641
10.137863
10.127053
10.114946
10.101098
10.084681
10.064354
10.044519
10.027617
10.013463
10.002021
9.9933213
9.9873328
9.9842252
9.9838018
9.9851675
9.9974806
9.9955636
10.018396
1225.037
1638.877
737.14433
523.97754
331.83359
266.83698
197.35081
163.67777
131.47723
111.23203
93.563792
80.643006
69.78293
61.194424
54.019291
48.109863
43.131029
38.935914
35.362068
32.297025
29.65229
27.35862
25.35911
23.607791
22.067054
20.707028
19.502607
18.433045
17.481085
16.632151
15.873723
15.195236
14.588297
14.045347
13.559892
13.126347
12.739877
12.39608
12.09065
11.820897
11.582766
11.373195
11.189417
11.029056
10.889372
10.7682
10.663577
10.573491
10.496266
10.430267
10.374056
10.32639
10.286212
10.252649
10.225021
10.202854
10.185951
10.174559
10.16714
10.159453
10.151159
10.142165
10.132352
10.121564
10.109575
10.096028
10.080304
10.061227
10.041946
10.025559
10.011869
10.000824
9.9924321
9.9867091
9.9838761
9.9833641
9.9855317
9.995604
9.9956312
10.015712
1236.7106
1637.5484
729.5124
519.13098
330.02435
264.4052
196.36194
162.34928
130.54753
110.22892
92.718725
79.795632
69.018638
60.463995
53.347841
47.482627
42.552242
38.399994
34.869864
31.84447
29.237276
26.978491
25.011742
23.291018
21.778617
20.444912
19.2649
18.217927
17.286879
16.457356
15.716908
15.054833
14.462966
13.933814
13.460932
13.038788
12.66266
12.328343
12.031142
11.769038
11.537766
11.334289
11.155825
11.000256
10.864747
10.747176
10.645711
10.558331
10.48345
10.419464
10.364964
10.318731
10.279726
10.247087
10.220133
10.198361
10.181489
10.169567
10.161932
10.154129
10.145739
10.136676
10.126829
10.116058
10.104169
10.090871
10.075683
10.057725
10.039085
10.023292
10.010137
9.9995452
9.9915061
9.9860927
9.983477
9.9830321
9.9858241
9.9940966
9.9957151
10.013348
1246.9912
1635.898
721.32716
511.61535
328.0234
261.68895
194.87768
160.82534
129.46201
109.06658
91.730531
78.817979
68.135739
59.627373
52.580279
46.769668
41.8964
37.79479
34.309149
31.329748
28.766154
26.547875
24.619078
22.933779
21.454053
20.1506
18.99855
17.977348
17.070046
16.262491
15.542401
14.898811
14.323875
13.810192
13.351383
12.941955
12.577286
12.253631
11.966648
11.712853
11.489025
11.29218
11.119412
10.969028
10.838035
10.724325
10.626266
10.541784
10.469418
10.407599
10.354946
10.310269
10.272547
10.240935
10.214755
10.193492
10.176805
10.164583
10.156701
10.148787
10.140308
10.131181
10.121304
10.110551
10.098755
10.085677
10.070944
10.053915
10.035994
10.020866
10.008307
9.9982197
9.9905796
9.985503
9.9830715
9.9827883
9.9860334
9.9929956
9.995795
10.011404
1256.1525
1633.0415
712.77515
503.51508
325.75701
258.75348
193.29171
159.12237
128.21822
107.7513
90.599561
77.712192
67.135025
58.685619
51.705513
45.95698
41.149118
37.108123
33.680894
30.755678
28.242895
26.071367
24.186015
22.541136
21.098411
19.829041
18.70835
17.715908
16.834942
16.051623
15.354055
14.730757
14.174342
13.677536
13.234053
12.838424
12.48599
12.17356
11.896664
11.65192
11.436192
11.246632
11.080816
10.935929
10.809734
10.700059
10.605602
10.524152
10.454422
10.394878
10.344172
10.301141
10.264787
10.234279
10.20895
10.188285
10.171911
10.159627
10.151447
10.143431
10.134871
10.125689
10.115791
10.105062
10.093357
10.080478
10.066138
10.049871
10.032736
10.018331
10.006422
9.9968844
9.9896869
9.9849596
9.9826955
9.9826171
9.986123
9.9922041
9.9958843
10.00976
1264.4923
1627.8224
704.00475
494.9541
323.06198
255.63762
191.59488
157.25831
126.81543
106.28945
89.327284
76.480481
65.990995
57.609808
50.716461
45.045398
40.315518
36.346412
32.987297
30.1247
27.670216
25.551809
23.715412
22.11604
20.714639
19.483136
18.39714
17.436371
16.584202
15.827155
15.154203
14.552847
14.016382
13.537695
13.110649
12.729838
12.39027
12.089717
11.823455
11.588223
11.380956
11.198789
11.03967
10.900657
10.779648
10.674816
10.58411
10.505758
10.438728
10.38152
10.332819
10.291493
10.256563
10.227215
10.202791
10.182783
10.166809
10.154629
10.146174
10.138067
10.129439
10.120214
10.110307
10.099613
10.088003
10.075312
10.061316
10.045678
10.02938
10.015744
10.004527
9.9955773
9.9888603
9.9844857
9.9823834
9.9825236
9.9860797
9.991237
9.9959505
10.008431
1272.315
1618.516
695.15679
485.97189
319.60885
252.3773
189.76961
155.24837
125.25267
104.68474
87.868996
75.064736
64.692139
56.402372
49.613031
44.035764
39.397343
35.511934
32.231189
29.439897
27.05157
24.992803
23.210789
21.662132
20.306325
19.11637
18.068286
17.141992
16.320939
15.591791
14.943096
14.365224
13.850041
13.390626
12.981054
12.616209
12.291642
12.003458
11.748219
11.522831
11.324351
11.14968
10.997451
10.864443
10.748573
10.648309
10.561606
10.486946
10.422615
10.367754
10.321073
10.281474
10.247998
10.219842
10.196356
10.177043
10.161516
10.149508
10.140891
10.132708
10.124025
10.114774
10.104874
10.094229
10.082725
10.07022
10.056535
10.041423
10.025999
10.013164
10.002666
9.9943349
9.9881284
9.9841087
9.9821726
9.9825093
9.9859891
9.9904649
9.9959269
10.007292
1279.8982
1602.535
686.34485
476.60522
315.96858
249.00274
187.78618
153.10183
123.52931
102.84074
86.192394
73.467237
63.234595
55.061572
48.39534
42.929397
38.397096
34.607817
31.416452
28.7053
26.391467
24.399041
22.676495
21.179887
19.873629
18.728673
17.721584
16.832551
16.045069
15.346299
14.725056
14.171965
13.679121
13.239817
12.84832
12.499684
12.189605
11.914315
11.67051
11.455302
11.266104
11.100104
10.954874
10.827984
10.717205
10.621504
10.538684
10.467512
10.406379
10.353817
10.309125
10.271236
10.239215
10.212262
10.189729
10.171131
10.156083
10.144302
10.135615
10.127371
10.118651
10.109391
10.099515
10.088938
10.077555
10.065243
10.051853
10.037197
10.022667
10.010648
10.000883
9.9931888
9.9875107
9.9838494
9.9820983
9.9825881
9.98586
9.9898268
9.9957382
10.006259
1287.4713
1575.9069
677.65343
466.82846
312.47013
245.54075
185.61189
150.74827
121.47086
100.73982
84.284868
71.68013
61.614245
53.585899
47.064419
41.72876
37.318805
33.638591
30.548644
27.926211
25.689415
23.769856
22.113235
20.676193
19.423782
18.327241
17.363992
16.514734
15.762728
15.095869
14.503308
13.975971
13.506232
13.087636
12.71468
12.382616
12.087311
11.825122
11.592834
11.387674
11.207506
11.049493
10.911436
10.790977
10.686078
10.594925
10.515815
10.447958
10.389811
10.339966
10.297174
10.260937
10.230337
10.204578
10.182996
10.165119
10.150568
10.139051
10.130365
10.12208
10.11334
10.104089
10.094259
10.08377
10.072529
10.060424
10.047328
10.03309
10.019457
10.008252
9.999217
9.9921653
9.9870186
9.9837171
9.9821771
9.9827827
9.985749
9.9892921
9.9954243
10.005312
1295.1903
1532.2858
668.96497
456.54307
309.00986
241.97816
183.95819
148.06298
119.05271
98.359598
82.131667
69.693007
59.826488
51.974516
45.622916
40.438066
36.168921
32.610583
29.625292
27.102174
24.954756
23.115378
21.530562
20.157767
18.96312
17.917826
17.000591
16.193308
15.478207
14.844347
14.281276
13.780282
13.334059
12.936446
12.5822
12.266813
11.986353
11.737332
11.516592
11.321194
11.1499
10.999617
10.868524
10.754226
10.654726
10.568324
10.493456
10.428681
10.373323
10.326008
10.285442
10.250739
10.221487
10.196896
10.176245
10.159081
10.145032
10.133802
10.125173
10.116863
10.108123
10.098901
10.089137
10.078758
10.067681
10.055806
10.043017
10.029184
10.016439
10.006029
9.9977054
9.9912833
9.9866563
9.983714
9.9824084
9.9830986
9.9857177
9.9889236
9.9951343
10.004364
1302.8559
1475.0182
659.60885
445.55061
305.42016
239.9305
181.54212
144.90489
116.24835
95.657885
79.711252
67.493469
57.866882
50.228459
44.076832
39.064064
34.941447
31.521243
28.659607
26.246641
24.19716
22.444717
20.936976
19.632224
18.498889
17.506949
16.636647
15.870158
15.192834
14.592598
14.059449
13.585074
13.162528
12.78597
12.450448
12.151718
11.886091
11.650316
11.44148
11.256949
11.094308
10.951276
10.826854
10.718509
10.624191
10.542297
10.471364
10.410065
10.357213
10.312283
10.27376
10.240831
10.212786
10.189318
10.169565
10.153094
10.13954
10.128609
10.120072
10.111759
10.103038
10.093864
10.084184
10.073936
10.063046
10.051426
10.03897
10.025553
10.013671
10.004025
9.9963788
9.990554
9.9864192
9.9838302
9.9827645
9.9835033
9.9858021
9.9887849
9.9948035
10.003348
1310.385
1429.0378
649.48341
440.36577
303.78425
235.9553
178.12175
141.22984
113.00418
92.609444
77.006576
65.077232
55.738664
48.355316
42.418231
37.602542
33.655697
30.390585
27.66546
25.372461
23.428401
21.768604
20.342477
19.107694
18.034761
17.097932
16.276307
15.552838
14.913557
14.346977
13.843613
13.395604
12.996397
12.6405
12.32327
12.040732
11.789443
11.56636
11.368753
11.194144
11.040321
10.905247
10.787001
10.68433
10.594938
10.517306
10.450045
10.391897
10.341734
10.299043
10.262414
10.231075
10.204353
10.181946
10.163046
10.147234
10.134157
10.123526
10.115108
10.10681
10.098127
10.089018
10.079439
10.069338
10.058653
10.047312
10.035219
10.022257
10.011204
10.00228
9.9952646
9.989987
9.9863009
9.9840467
9.9832053
9.9839632
9.9860223
9.9888537
9.994367
10.002174
1317.331
1407.2334
641.50618
442.76605
303.79602
230.56169
174.07839
136.93721
109.26069
89.189015
74.009348
62.449798
53.456162
46.351027
40.67218
36.082592
32.332443
29.237626
26.659985
24.494882
22.661927
21.098561
19.7533
18.591174
17.581725
16.700446
15.9275
15.246749
14.645004
14.111446
13.63716
13.214775
12.838161
12.502187
12.202525
11.935482
11.697863
11.486854
11.299908
11.134622
10.988918
10.860937
10.749474
10.652134
10.567363
10.49373
10.429919
10.374733
10.327104
10.286501
10.25164
10.221787
10.196299
10.17488
10.156775
10.141579
10.128954
10.118615
10.110327
10.102066
10.09344
10.084413
10.074949
10.065004
10.05453
10.043473
10.031768
10.019339
10.009071
10.000825
9.9943905
9.9896022
9.986307
9.9843496
9.983713
9.9844842
9.9862981
9.9888211
9.9937975
10.000695
1322.2007
1415.6185
634.20723
436.50148
299.30113
224.63136
169.09286
132.08804
105.00294
85.402425
70.734774
59.634928
51.018821
44.254669
38.871316
34.533841
30.99818
28.085688
25.663413
23.631263
21.912888
20.445005
19.184042
18.094727
17.148311
16.321729
15.596356
14.957075
14.391558
13.889707
13.443224
13.04525
12.690089
12.372978
12.089894
11.837409
11.612571
11.41282
11.235927
11.079422
10.941264
10.820519
10.714732
10.622309
10.541792
10.471837
10.411207
10.358754
10.313509
10.274816
10.241575
10.213087
10.188737
10.16822
10.15084
10.13621
10.124002
10.113938
10.105786
10.097583
10.089034
10.080109
10.070773
10.06099
10.05072
10.039918
10.028537
10.01683
10.007292
9.9996745
9.9937738
9.9894243
9.9864666
9.9847589
9.9842878
9.9850552
9.9866714
9.9889702
9.9933713
9.9992203
1322.7354
1424.9644
625.00084
426.19978
293.29218
217.54868
163.10369
126.53256
100.20607
81.243515
67.1987
56.637246
48.483684
42.11112
37.055984
32.991798
29.683844
26.961398
24.698143
22.799387
21.193193
19.824265
18.646352
17.628097
16.742675
15.968608
15.288594
14.688607
14.157229
13.685125
13.264625
12.889402
12.5542
12.254615
11.986914
11.74789
11.534742
11.344981
11.177442
11.029281
10.898651
10.78383
10.6832
10.595225
10.518532
10.451871
10.394116
10.344056
10.30113
10.264142
10.232346
10.205087
10.181783
10.162068
10.145334
10.13121
10.119377
10.109565
10.101545
10.093424
10.084976
10.076174
10.066986
10.057382
10.047325
10.036777
10.025697
10.014745
10.005865
9.9988158
9.9933977
9.9894419
9.986786
9.9853012
9.9849642
9.9857127
9.987197
9.9893922
9.9933275
9.9983908
1316.3218
1377.347
616.09111
414.82554
285.33738
209.19164
156.11043
120.31293
94.948328
76.806498
63.500795
53.556264
45.926717
39.983429
35.278684
31.500416
28.426594
25.896735
23.792514
22.025536
20.528835
19.251035
18.152246
17.201162
16.372975
15.647859
15.009863
14.44607
13.945977
13.501005
13.104116
12.749509
12.43237
12.148671
11.894996
11.668407
11.466317
11.286471
11.126834
10.985547
10.860897
10.751296
10.65528
10.571266
10.49793
10.43405
10.378999
10.331337
10.290155
10.254635
10.22407
10.19784
10.175553
10.156528
10.140351
10.126663
10.115156
10.105566
10.097668
10.089651
10.081327
10.07267
10.063653
10.054249
10.044426
10.034152
10.023392
10.013097
10.004787
9.9982298
9.9932277
9.9896095
9.9872143
9.9859239
9.985696
9.9864231
9.9878157
9.9899342
9.9934782
9.9978508
1300.1544
1324.4373
607.34209
401.15847
275.68577
199.75982
148.28325
113.60691
89.419484
72.269614
59.799889
50.52553
43.453272
37.955118
33.606349
30.113587
27.269556
24.926305
22.974525
21.332802
19.939621
18.747875
17.721035
16.830445
16.053397
15.371729
14.770818
14.238814
13.766072
13.344709
12.968256
12.631383
12.329671
12.059429
11.817543
11.601352
11.408334
11.236384
11.083592
10.948199
10.828566
10.723152
10.631225
10.55079
10.48059
10.419484
10.36643
10.320482
10.280793
10.246518
10.216967
10.191769
10.17017
10.151711
10.13599
10.12266
10.111421
10.102014
10.094219
10.086328
10.078148
10.069656
10.060828
10.051641
10.042067
10.03208
10.02165
10.011897
10.004059
9.997906
9.9932442
9.9899004
9.9877177
9.9865845
9.9864374
9.9871449
9.9884825
9.9905458
9.9937701
9.9975973
1268.2626
1271.3039
600.24096
384.9836
263.81785
188.94932
139.46413
106.37008
83.64991
67.686805
56.153212
47.59606
41.091557
36.042454
32.05006
28.841847
26.219619
24.054028
22.245562
20.720253
19.422286
18.308949
17.347115
16.510766
15.779248
15.136019
14.567726
14.063532
13.614595
13.213675
12.854816
12.533097
12.244425
11.985361
11.75298
11.54567
11.360407
11.195237
11.04838
10.918198
10.803162
10.70184
10.612891
10.535058
10.467061
10.407803
10.356273
10.311553
10.273154
10.239996
10.211421
10.18685
10.165771
10.147738
10.132359
10.119296
10.108257
10.098987
10.09127
10.083523
10.075503
10.067192
10.058567
10.049608
10.040292
10.030595
10.02049
10.011152
10.003673
9.9978265
9.9934197
9.9902793
9.9882539
9.9872338
9.9871362
9.9878206
9.9891179
9.9911191
9.9940623
9.9974487
1218.5248
1205.74
588.20746
365.31217
248.514
176.81921
130.33599
99.515042
78.551259
63.857304
53.229064
45.316298
39.275794
34.579816
30.86006
27.864248
25.416049
23.389477
21.692784
20.257966
19.033791
17.98106
17.069334
16.274647
15.577948
14.963976
14.420402
13.9372
13.506185
13.120643
12.775048
12.464833
12.186195
11.935943
11.71137
11.510049
11.329915
11.169121
11.025978
10.898925
10.786499
10.68732
10.600087
10.524169
10.457822
10.399993
10.349708
10.306084
10.268319
10.235692
10.207562
10.183362
10.162588
10.144803
10.129622
10.116711
10.10578
10.096577
10.088887
10.081301
10.073457
10.065339
10.056927
10.048205
10.039153
10.02975
10.019975
10.010904
10.003654
9.9980014
9.993752
9.9907334
9.9887991
9.9878382
9.9877521
9.9884034
9.9896732
9.9916402
9.9943927
9.9974769
1161.5252
1126.5671
563.57777
342.50766
228.42658
160.83921
118.46962
90.719589
72.024977
58.972382
49.539518
42.513849
37.145615
32.938947
29.579957
26.854359
24.611367
22.74263
21.168751
19.830508
18.682982
17.691599
16.8292
16.074412
15.4103
14.823139
14.301771
13.837069
13.421533
13.048986
12.714319
12.41329
12.142356
11.89853
11.680085
11.48398
11.308275
11.151233
11.011276
10.886933
10.776818
10.679617
10.594089
10.519061
10.453435
10.396186
10.34637
10.303124
10.265663
10.233281
10.205349
10.181306
10.160658
10.142971
10.127865
10.115008
10.104113
10.09493
10.087244
10.079825
10.072159
10.064231
10.056024
10.047522
10.038707
10.029562
10.020069
10.011122
10.003977
9.9984076
9.9942178
9.9912355
9.9893161
9.9883425
9.9882049
9.9887822
9.9899925
9.9918571
9.9943408
9.9971313
1124.6206
1169.4395
574.76143
345.83026
228.7155
159.9561
117.37236
89.90165
71.523115
58.712528
49.443097
42.516927
37.201073
33.027835
29.688888
26.973426
24.733502
22.862927
21.283928
19.938497
18.782612
17.782316
16.911223
16.148414
15.476973
14.883203
14.355913
13.885925
13.465685
13.088956
12.750577
12.446259
12.172419
11.926039
11.70455
11.505732
11.327622
11.16836
11.026336
10.900077
10.788194
10.689375
10.602377
10.526026
10.459218
10.400924
10.35019
10.306143
10.267989
10.235012
10.206569
10.182092
10.161075
10.143076
10.127706
10.114626
10.10354
10.094194
10.086364
10.079141
10.071679
10.063962
10.055976
10.047703
10.039129
10.030236
10.021007
10.011938
10.004694
9.9990483
9.9947971
9.991763
9.9897961
9.9887696
9.9885676
9.9890819
9.9902399
9.992011
9.9943197
9.9969957
1161.7454
1238.163
596.06462
361.34517
238.27382
166.67656
122.06326
93.320524
74.075033
60.671254
50.975689
43.733858
38.177667
33.81884
30.334412
27.503772
25.172008
23.227829
21.589607
20.196378
19.001835
17.970257
17.073673
16.289852
15.600941
14.992513
14.45282
13.972241
13.542869
13.158183
12.812788
12.502206
12.222704
11.971143
11.744861
11.541568
11.359264
11.196243
11.050857
10.921574
10.806972
10.705712
10.616529
10.53823
10.469693
10.409871
10.357796
10.312577
10.273404
10.239544
10.210342
10.185214
10.163642
10.145173
10.129406
10.115993
10.104631
10.095056
10.08704
10.080044
10.072812
10.065331
10.057586
10.049561
10.041242
10.032612
10.023655
10.014352
10.00674
10.00078
9.9962576
9.9929902
9.9908199
9.9896111
9.9892439
9.9896155
9.9906461
9.9922715
9.9944146
9.9969959
30523.276
32969.679
18987.512
13147.26
9535.5143
6948.4422
5068.2439
3715.4216
2740.8914
2038.3313
1524.6908
1147.9974
866.74312
660.96671
501.50358
382.44921
289.74114
219.9562
168.31698
130.38398
102.21799
81.518843
66.223195
54.878421
46.423467
40.02594
35.134115
31.323711
28.298382
25.82921
23.764004
22.008678
20.496131
19.179015
18.023228
17.003773
16.101791
15.302627
14.59453
13.967834
13.414291
12.926696
12.498689
12.12453
11.798955
11.51709
11.274384
11.066427
10.889612
10.741277
10.619424
10.521494
10.442983
10.380976
10.333375
10.298149
10.273178
10.255952
10.242971
10.232403
10.221405
10.210946
10.197055
10.183961
10.163045
10.146026
10.115788
10.097529
10.054085
10.037789
10.006589
10.001129
9.9744223
9.9810397
9.9507998
9.9809428
9.9500904
10.00292
9.9625292
10.001738
33365.221
28282.049
21529.263
16308.253
12094.395
8809.6491
6381.4151
4624.2345
3367.0474
2467.2813
1818.9309
1347.3663
1002.3026
748.00607
560.04055
420.69366
317.27537
240.70507
183.98649
142.05011
110.8838
87.882049
70.887478
58.313907
48.980352
41.937857
36.57401
32.421822
29.153849
26.514151
24.318857
22.461751
20.868979
19.487511
18.279356
17.216745
16.278869
15.449656
14.716303
14.068344
13.49689
12.994226
12.553565
12.168826
11.834444
11.5453
11.296648
11.083799
10.902891
10.751079
10.62638
10.525816
10.444846
10.38088
10.331749
10.295688
10.270742
10.253763
10.241123
10.230969
10.220315
10.210244
10.196618
10.18389
10.163132
10.146391
10.11619
10.098118
10.055168
10.03912
10.007521
10.002344
9.9752986
9.9821635
9.9519188
9.9817376
9.951407
10.003908
9.9637267
10.003186
36693.866
20107.795
12965.429
8341.1935
4656.4414
2267.042
1038.3137
498.05896
280.31401
188.87903
146.37391
121.01011
104.32004
91.052455
80.725884
72.140023
64.647995
58.732525
53.1735
48.729431
44.471432
40.99832
37.767674
34.942407
32.413041
30.054527
27.968384
26.08773
24.381249
22.815152
21.385663
20.095992
18.934924
17.889517
16.948871
16.103314
15.344347
14.66436
14.056553
13.514864
13.033628
12.607671
12.232264
11.902957
11.615562
11.366107
11.150835
10.965781
10.808112
10.675959
10.568084
10.48056
10.409488
10.353476
10.310734
10.280571
10.26026
10.24653
10.235735
10.22681
10.216489
10.207001
10.193045
10.180866
10.159169
10.143382
10.111815
10.095488
10.051077
10.038356
10.005285
10.002814
9.9741372
9.9833081
9.9512832
9.9834716
9.9513934
10.005771
9.9640743
10.004721
33936.341
23450.254
13794.375
7753.1276
3594.4253
1417.3238
560.13706
280.9579
192.79229
152.6821
129.98416
111.54415
98.372511
86.544485
77.39115
69.492668
62.43784
57.049047
51.646188
47.521533
43.33029
40.099881
36.864404
34.230859
31.676209
29.47453
27.393551
25.595268
23.902234
22.376209
20.999965
19.75904
18.64125
17.634374
16.727794
15.912242
15.179656
14.522823
13.935319
13.411361
12.945585
12.533093
12.169377
11.850201
11.571544
11.329594
11.120736
10.941108
10.788072
10.659913
10.555203
10.469497
10.399833
10.345014
10.303784
10.275253
10.2562
10.243384
10.233213
10.224737
10.214715
10.205463
10.191666
10.1796
10.157992
10.142253
10.110807
10.094631
10.050984
10.039068
10.005575
10.003996
9.9747328
9.984707
9.9521776
9.9849907
9.9523911
10.007558
9.9650512
10.006346
35938.8
23053.299
13346.942
7271.179
3262.3397
1239.154
491.5766
259.05209
184.38677
147.32564
125.79949
107.83279
95.244392
83.818557
75.25973
67.465371
61.090297
55.38108
50.541581
46.21657
42.458741
39.064456
36.08618
33.386613
30.980651
28.79952
26.837597
25.044972
23.423899
21.958542
20.636011
19.443024
18.367003
17.39657
16.521808
15.734074
15.025856
14.390385
13.821616
13.314069
12.86265
12.462706
12.109931
11.800257
11.529822
11.29495
11.092156
10.917665
10.769031
10.644671
10.542771
10.458708
10.390363
10.336736
10.297386
10.270397
10.252531
10.240531
10.230958
10.222842
10.213135
10.204016
10.190447
10.178355
10.156971
10.141073
10.109981
10.093585
10.050815
10.038901
10.005835
10.003644
9.9753786
9.9850039
9.9530555
9.985752
9.9533621
10.008959
9.9660076
10.00779
36498.874
22729.606
12961.534
6715.554
2739.5797
956.00864
389.97809
227.57353
173.96342
141.22927
121.75368
104.24661
92.334916
81.138414
73.033688
65.437507
59.335538
53.796966
49.156972
44.980026
41.353258
38.108523
35.228307
32.63773
30.311539
28.209709
26.307767
24.580754
23.013941
21.596951
20.318157
19.164019
18.122489
17.182672
16.335106
15.571533
14.884775
14.268346
13.716443
13.223787
12.785486
12.397077
12.054407
11.753547
11.490763
11.2625
11.065379
10.895704
10.751209
10.630428
10.530878
10.448292
10.381177
10.329291
10.29173
10.266158
10.249363
10.238094
10.229038
10.22123
10.211781
10.202766
10.189376
10.177245
10.156044
10.139989
10.109207
10.092726
10.050824
10.039192
10.006263
10.004276
9.9760456
9.9859311
9.9539688
9.9867386
9.9543633
10.010448
9.9669773
10.009251
37435.725
22471.017
12528.858
6154.6479
2379.9896
800.17519
343.24642
214.63962
168.63971
137.91437
119.00208
101.79121
90.197565
79.125029
71.282894
63.818794
57.934417
52.531751
48.044757
43.978087
40.465133
37.304355
34.510477
31.991157
29.734377
27.693363
25.84861
24.169949
22.648421
21.273057
20.031888
18.911588
17.900378
16.98768
16.164342
15.422402
14.75495
14.155729
13.619134
13.14005
12.713764
12.335964
12.002623
11.709929
11.454258
11.232154
11.040334
10.875165
10.734554
10.617138
10.519416
10.438179
10.372599
10.322703
10.286793
10.262503
10.246666
10.236033
10.227421
10.219859
10.210622
10.201666
10.188431
10.176224
10.155199
10.138953
10.108493
10.091927
10.050802
10.039134
10.00656
10.004551
9.9766952
9.986585
9.9548873
9.987599
9.9553675
10.011888
9.9679472
10.010684
38193.121
22115.667
12039.161
5600.9094
2019.6252