/*--------------------------------*- C++ -*----------------------------------*\
  =========                 |
  \\      /  F ield         | OpenFOAM: The Open Source CFD Toolbox
   \\    /   O peration     | Website:  https://openfoam.org
    \\  /    A nd           | Version:  6
     \\/     M anipulation  |
\*---------------------------------------------------------------------------*/
FoamFile
{
    version     2.0;
    format      ascii;
    class       volScalarField;
    location    "800";
    object      p;
}
// * * * * * * * * * * * * * * * * * * * * * * * * * * * * * * * * * * * * * //

dimensions      [1 -1 -2 0 0 0 0];

internalField   nonuniform List<scalar> 
16000
(
99109.678
99167.629
99171.603
99227.395
99239.522
99290.425
99311.69
99358.232
99387.273
99431.245
99466.139
99509.286
99548.391
99591.926
99634.08
99678.653
99723.079
99768.91
99815.059
99862.079
99909.497
99957.446
100005.68
100054.18
100102.75
100151.31
100199.69
100247.75
100295.35
100342.33
100388.53
100433.78
100477.94
100520.83
100562.32
100602.24
100640.47
100676.86
100711.29
100743.66
100773.87
100801.84
100827.48
100850.77
100871.64
100890.08
100906.09
100919.65
100930.79
100939.53
100945.91
100949.98
100951.8
100951.42
100948.92
100944.37
100937.83
100929.4
100919.14
100907.15
100893.49
100878.27
100861.48
100843.38
100823.68
100803.11
100780.42
100758.13
100731.66
100709.5
100676.15
100659.51
100610.73
100615.94
100523.25
100591.12
100387.88
100618.14
100188.97
100673.45
99161.826
99223.925
99227.867
99288.134
99300.596
99355.63
99377.947
99428.101
99458.885
99506.037
99543.162
99589.218
99630.82
99677.111
99721.855
99769.075
99816.063
99864.418
99913.009
99962.379
100012.03
100062.09
100112.28
100162.55
100212.72
100262.64
100312.16
100361.11
100409.32
100456.63
100502.85
100547.82
100591.38
100633.35
100673.59
100711.95
100748.29
100782.5
100814.46
100844.09
100871.32
100896.07
100918.32
100938.04
100955.22
100969.86
100982
100991.66
100998.89
101003.74
101006.3
101006.62
101004.78
101000.88
100994.98
100987.19
100977.58
100966.25
100953.27
100938.74
100922.72
100905.3
100886.54
100866.53
100845.25
100822.95
100799.23
100775.03
100748.58
100723.35
100692.57
100669.32
100628.37
100618.5
100547.23
100583.5
100421.05
100599.34
100220.82
100659.28
99235.279
99302.444
99306.407
99371.518
99384.728
99443.971
99467.859
99521.613
99554.619
99604.953
99644.684
99693.688
99738.052
99787.157
99834.659
99884.575
99934.207
99985.095
100036.13
100087.79
100139.6
100191.63
100243.6
100295.42
100346.9
100397.87
100448.14
100497.54
100545.87
100592.96
100638.62
100682.67
100724.93
100765.26
100803.48
100839.48
100873.13
100904.32
100932.96
100959
100982.39
101003.1
101021.12
101036.46
101049.15
101059.24
101066.78
101071.84
101074.5
101074.85
101072.98
101069
101062.99
101055.08
101045.35
101033.9
101020.84
101006.25
100990.23
100972.85
100954.19
100934.33
100913.33
100891.25
100868.12
100844.04
100818.9
100793.04
100765.78
100738.52
100708.33
100681.18
100644.49
100624.61
100566.82
100581.88
100448.35
100585.14
100248.35
100647.66
99331.477
99404.1
99408.117
99478.609
99492.674
99556.6
99582.282
99640.022
99675.553
99729.391
99772.051
99824.288
99871.708
99923.874
99974.372
100027.18
100079.62
100133.16
100186.71
100240.7
100294.63
100348.54
100402.14
100455.3
100507.8
100559.46
100610.06
100659.42
100707.31
100753.56
100797.95
100840.31
100880.48
100918.28
100953.58
100986.27
101016.24
101043.41
101067.73
101089.16
101107.7
101123.35
101136.15
101146.15
101153.43
101158.06
101160.14
101159.78
101157.1
101152.21
101145.24
101136.31
101125.55
101113.07
101098.99
101083.43
101066.49
101048.26
101028.84
101008.31
100986.74
100964.2
100940.75
100916.43
100891.29
100865.37
100838.64
100811.22
100782.86
100754.07
100723.64
100694.13
100659.56
100633.65
100584.07
100583.96
100472.9
100577
100276.31
100648.01
99450.01
99528.831
99533.112
99609.731
99624.98
99694.146
99722.061
99784.186
99822.704
99880.364
99926.362
99982.102
100032.9
100088.35
100142.07
100197.91
100253.28
100309.53
100365.6
100421.85
100477.78
100533.38
100588.33
100642.49
100695.59
100747.44
100797.8
100846.46
100893.18
100937.78
100980.05
101019.8
101056.88
101091.15
101122.48
101150.79
101175.99
101198.04
101216.94
101232.7
101245.33
101254.92
101261.53
101265.26
101266.24
101264.58
101260.43
101253.93
101245.23
101234.49
101221.85
101207.46
101191.47
101174.01
101155.21
101135.19
101114.06
101091.92
101068.85
101044.95
101020.28
100994.89
100968.84
100942.17
100914.91
100887.07
100858.65
100829.68
100800.06
100769.94
100738.85
100707.73
100673.95
100644.07
100600.15
100587.94
100495.28
100573.34
100302.75
100651.04
99593.885
99679.945
99684.535
99767.879
99784.444
99859.247
99889.704
99956.482
99998.352
100060.06
100109.73
100169.18
100223.62
100282.52
100339.63
100398.61
100456.98
100515.93
100574.46
100632.83
100690.55
100747.54
100803.48
100858.16
100911.31
100962.7
101012.08
101059.21
101103.86
101145.83
101184.92
101220.96
101253.81
101283.35
101309.49
101332.18
101351.38
101367.11
101379.4
101388.31
101393.94
101396.38
101395.79
101392.3
101386.09
101377.32
101366.18
101352.85
101337.51
101320.35
101301.53
101281.23
101259.61
101236.81
101212.97
101188.21
101162.65
101136.39
101109.5
101082.07
101054.16
101025.82
100997.08
100967.98
100938.53
100908.74
100878.6
100848.1
100817.19
100785.89
100753.97
100721.72
100688.12
100655.73
100615.67
100594.24
100516.71
100573.04
100329.28
100657.77
99764.145
99858.447
99863.153
99953.924
99972.014
100052.89
100086.3
100158.05
100203.73
100269.76
100323.5
100386.91
100445.29
100507.83
100568.52
100630.73
100692.12
100753.72
100814.57
100874.83
100934.01
100991.96
101048.34
101102.9
101155.35
101205.43
101252.86
101297.41
101338.85
101376.98
101411.62
101442.62
101469.88
101493.31
101512.88
101528.58
101540.44
101548.53
101552.94
101553.81
101551.28
101545.52
101536.73
101525.11
101510.88
101494.26
101475.46
101454.71
101432.21
101408.17
101382.79
101356.24
101328.7
101300.32
101271.23
101241.57
101211.44
101180.93
101150.13
101119.1
101087.9
101056.55
101025.1
100993.55
100961.91
100930.18
100898.33
100866.34
100834.16
100801.75
100768.99
100735.89
100702.13
100668.24
100630.92
100602.88
100537.74
100574.8
100355.98
100668.12
99960.534
100064.18
100069.16
100168.28
100188.35
100275.93
100312.93
100390.09
100440.21
100510.94
100569.27
100636.95
100699.63
100766.03
100830.46
100895.96
100960.35
101024.47
101087.39
101149.18
101209.32
101267.61
101323.67
101377.24
101427.98
101475.62
101519.88
101560.53
101597.35
101630.17
101658.83
101683.23
101703.32
101719.08
101730.52
101737.72
101740.78
101739.83
101735.06
101726.65
101714.83
101699.83
101681.91
101661.33
101638.34
101613.22
101586.2
101557.54
101527.48
101496.23
101464
101430.99
101397.35
101363.26
101328.83
101294.19
101259.45
101224.68
101189.96
101155.34
101120.85
101086.54
101052.4
101018.45
100984.67
100951.05
100917.55
100884.14
100850.76
100817.35
100783.81
100750.07
100716.03
100681.37
100645.82
100613.21
100558.67
100578.53
100384.32
100680.9
100184.17
100298.57
100304
100412.56
100435.17
100530.15
100571.47
100654.57
100709.81
100785.67
100849.12
100921.42
100988.71
101059.16
101127.43
101196.19
101263.43
101329.76
101394.32
101457.04
101517.4
101575.13
101629.84
101681.21
101728.91
101772.66
101812.19
101847.28
101877.76
101903.47
101924.35
101940.35
101951.47
101957.8
101959.43
101956.51
101949.24
101937.84
101922.57
101903.7
101881.52
101856.33
101828.46
101798.19
101765.84
101731.71
101696.06
101659.18
101621.3
101582.65
101543.46
101503.89
101464.13
101424.31
101384.57
101345.01
101305.71
101266.76
101228.2
101190.08
101152.42
101115.22
101078.51
101042.25
101006.43
100971.02
100935.98
100901.26
100866.79
100832.49
100798.28
100764.08
100729.77
100694.87
100660.44
100624.96
100579.42
100584.13
100414.37
100694.82
100436.83
100563.65
100569.77
100688.94
100714.76
100817.85
100864.36
100953.9
101015.03
101096.44
101165.53
101242.75
101314.92
101389.52
101461.6
101533.43
101603.15
101671.18
101736.65
101799.4
101858.9
101914.81
101966.72
102014.29
102057.21
102095.21
102128.04
102155.54
102177.58
102194.1
102205.1
102210.64
102210.83
102205.82
102195.85
102181.15
102162.02
102138.78
102111.77
102081.35
102047.87
102011.7
101973.2
101932.71
101890.58
101847.11
101802.61
101757.35
101711.57
101665.52
101619.38
101573.34
101527.55
101482.15
101437.23
101392.9
101349.23
101306.27
101264.05
101222.6
101181.93
101142.03
101102.89
101064.49
101026.78
100989.74
100953.3
100917.41
100881.98
100846.95
100812.21
100777.71
100743.23
100708.51
100674.75
100637.88
100599.81
100591.52
100445.74
100708.74
100720.71
100861.77
100868.79
100999.82
101029.63
101141.61
101194.25
101290.8
101358.62
101446.03
101521.26
101603.66
101680.87
101759.56
101835.22
101909.69
101981.24
102050.07
102115.36
102176.81
102233.89
102286.22
102333.38
102375.06
102410.96
102440.85
102464.56
102482.01
102493.17
102498.09
102496.87
102489.71
102476.83
102458.53
102435.14
102407.04
102374.61
102338.27
102298.44
102255.56
102210.05
102162.31
102112.75
102061.73
102009.61
101956.71
101903.34
101849.76
101796.21
101742.9
101690.03
101637.74
101586.17
101535.44
101485.63
101436.81
101389.03
101342.32
101296.7
101252.18
101208.74
101166.36
101125.03
101084.69
101045.31
101006.82
100969.16
100932.28
100896.08
100860.48
100825.39
100790.74
100756.27
100722.02
100688.67
100651.61
100619.45
100600.29
100477.28
100721.57
101037.06
101194.76
101203.19
101347.61
101382.54
101504.29
101564.28
101668.47
101743.85
101837.72
101919.52
102007.23
102089.43
102171.92
102250.6
102326.87
102399.14
102467.4
102530.83
102589.06
102641.55
102687.91
102727.77
102760.83
102786.88
102805.78
102817.48
102822.02
102819.51
102810.14
102794.18
102771.97
102743.89
102710.37
102671.87
102628.88
102581.9
102531.43
102477.98
102422.01
102364.01
102304.41
102243.63
102182.04
102120.01
102057.83
101995.81
101934.18
101873.18
101812.97
101753.73
101695.58
101638.63
101582.96
101528.64
101475.7
101424.17
101374.07
101325.39
101278.11
101232.21
101187.66
101144.4
101102.39
101061.56
101021.86
100983.21
100945.54
100908.77
100872.8
100837.55
100802.94
100768.68
100735.11
100702.08
100665.79
100638.13
100609.91
100508.64
100733.91
101389.53
101566.48
101576.89
101736.29
101777.59
101909.98
101978.57
102090.98
102174.72
102275.37
102363.94
102456.84
102543.63
102629.17
102709.8
102786.47
102857.69
102923.27
102982.43
103034.73
103079.68
103116.92
103146.15
103167.19
103179.95
103184.44
103180.79
103169.21
103149.99
103123.53
103090.28
103050.72
103005.43
102954.96
102899.9
102840.86
102778.42
102713.15
102645.61
102576.3
102505.71
102434.3
102362.47
102290.59
102218.99
102147.96
102077.75
102008.58
101940.63
101874.05
101808.97
101745.49
101683.67
101623.57
101565.22
101508.64
101453.82
101400.75
101349.41
101299.76
101251.76
101205.36
101160.49
101117.1
101075.12
101034.47
100995.08
100956.86
100919.74
100883.61
100848.42
100814.02
100780.23
100747.49
100714.84
100680.16
100655.97
100620.4
100539.3
100745.5
101781.53
101980.79
101993.95
102170.05
102219.31
102363.16
102441.74
102562.88
102655.58
102763.15
102858.38
102955.9
103046.3
103133.51
103214.24
103289.04
103356.53
103416.38
103467.86
103510.56
103544.07
103568.14
103582.63
103587.54
103582.99
103569.21
103546.55
103515.45
103476.46
103430.16
103377.21
103318.28
103254.09
103185.34
103112.73
103036.92
102958.58
102878.3
102796.66
102714.18
102631.33
102548.54
102466.18
102384.6
102304.08
102224.87
102147.17
102071.16
101996.97
101924.71
101854.47
101786.3
101720.25
101656.32
101594.51
101534.82
101477.22
101421.67
101368.13
101316.54
101266.84
101218.96
101172.84
101128.4
101085.57
101044.26
101004.39
100965.88
100928.64
100892.6
100857.67
100823.68
100790.61
100758.81
100726.73
100694.36
100672.58
100631.64
100569.08
100755.9
102216.9
102442.11
102459.12
102653.74
102712.78
102868.89
102959.09
103089.52
103191.44
103305.57
103406.72
103507.54
103599.68
103686.17
103764.04
103833.53
103893.38
103943.21
103982.41
104010.69
104027.81
104033.75
104028.62
104012.7
103986.39
103950.22
103904.82
103850.92
103789.29
103720.77
103646.18
103566.38
103482.19
103394.42
103303.84
103211.16
103117.05
103022.1
102926.88
102831.87
102737.5
102644.16
102552.16
102461.78
102373.25
102286.77
102202.48
102120.51
102040.93
101963.81
101889.2
101817.1
101747.51
101680.42
101615.79
101553.6
101493.77
101436.26
101381
101327.93
101276.95
101228
101181
101135.86
101092.5
101050.83
101010.77
100972.24
100935.14
100899.41
100864.95
100831.61
100799.48
100768.69
100737.48
100707.81
100687.35
100643.29
100597.76
100764.16
102700.91
102956.25
102978.49
103193.14
103264.01
103433
103536.29
103676.49
103787.42
103906.79
104012.1
104113.77
104204.49
104286.44
104357.01
104416.21
104462.97
104497.02
104517.97
104525.79
104520.57
104502.63
104472.45
104430.67
104378.08
104315.53
104244
104164.47
104077.97
103985.52
103888.11
103786.71
103682.22
103575.48
103467.28
103358.31
103249.2
103140.52
103032.76
102926.33
102821.61
102718.89
102618.42
102520.41
102425.02
102332.37
102242.55
102155.63
102071.63
101990.57
101912.44
101837.21
101764.86
101695.32
101628.54
101564.46
101502.99
101444.07
101387.6
101333.51
101281.71
101232.09
101184.59
101139.1
101095.54
101053.83
101013.87
100975.58
100938.87
100903.68
100869.91
100837.44
100806.44
100776.74
100746.77
100720.03
100700.13
100655.17
100624.95
100769.82
103239.23
103529.76
103559.81
103796.52
103882.8
104065.74
104181.08
104327.93
104447.25
104569.9
104676.19
104774.71
104859.01
104930.67
104987.49
105029.47
105055.88
105066.75
105062.11
105042.36
105008.09
104960.09
104899.32
104826.87
104743.91
104651.68
104551.43
104444.4
104331.8
104214.78
104094.41
103971.7
103847.55
103722.77
103598.09
103474.14
103351.47
103230.54
103111.76
102995.44
102881.87
102771.24
102663.73
102559.45
102458.5
102360.92
102266.74
102175.96
102088.57
102004.53
101923.78
101846.27
101771.93
101700.68
101632.43
101567.09
101504.57
101444.78
101387.61
101332.97
101280.77
101230.9
101183.28
101137.79
101094.37
101052.91
101013.32
100975.54
100939.47
100905.05
100872.18
100840.78
100811.06
100782.52
100754.19
100730.36
100710.27
100666.4
100649.92
100772.9
103838.99
104171.09
104213.46
104472.97
104576.48
104770.49
104898.67
105052.8
105176.01
105297.5
105398.94
105487.45
105557.56
105610.44
105644.54
105660.09
105657
105635.81
105597.22
105542.25
105472.11
105388.17
105291.92
105184.89
105068.64
104944.7
104814.53
104679.54
104540.99
104400.07
104257.84
104115.23
103973.07
103832.07
103692.83
103555.87
103421.6
103290.39
103162.49
103038.12
102917.45
102800.59
102687.61
102578.56
102473.43
102372.22
102274.89
102181.38
102091.64
102005.59
101923.13
101844.17
101768.62
101696.37
101627.3
101561.33
101498.32
101438.18
101380.81
101326.08
101273.91
101224.17
101176.79
101131.65
101088.66
101047.75
101008.81
100971.78
100936.58
100903.13
100871.34
100841.22
100812.87
100785.61
100759.26
100738.03
100717.2
100676.32
100671.5
100773.05
104526.28
104902.41
104958.18
105236.49
105353.4
105556.37
105695.29
105852.23
105974.12
106086.56
106174.05
106242.21
106287
106309.61
106309.46
106287.44
106244.34
106181.53
106100.55
106003.17
105891.3
105766.88
105631.87
105488.17
105337.58
105181.79
105022.34
104860.62
104697.85
104535.12
104373.35
104213.33
104055.72
103901.07
103749.82
103602.33
103458.86
103319.62
103184.76
103054.36
102928.49
102807.15
102690.34
102578.02
102470.12
102366.57
102267.28
102172.16
102081.09
101993.96
101910.65
101831.04
101755.01
101682.44
101613.19
101547.15
101484.2
101424.22
101367.09
101312.7
101260.95
101211.71
101164.91
101120.42
101078.17
101038.07
101000.03
100963.97
100929.84
100897.55
100867.02
100838.3
100811.39
100785.57
100761.35
100742.19
100720.81
100684.73
100688.7
100769.92
105299.96
105718.63
105783.67
106075.52
106221.18
106443.47
106580.91
106728.71
106837.09
106926.89
106986.17
107019.34
107024.14
107002.31
106954.61
106882.97
106789.34
106676.11
106545.7
106400.67
106243.48
106076.53
105902.06
105722.12
105538.56
105353.01
105166.9
104981.46
104797.71
104616.53
104438.61
104264.52
104094.71
103929.52
103769.21
103613.96
103463.87
103319.03
103179.43
103045.07
102915.89
102791.83
102672.79
102558.66
102449.34
102344.69
102244.57
102148.86
102057.41
101970.08
101886.72
101807.2
101731.37
101659.1
101590.24
101524.68
101462.27
101402.89
101346.43
101292.77
101241.79
101193.39
101147.46
101103.91
101062.66
101023.6
100986.67
100951.8
100918.91
100887.93
100858.81
100831.62
100806.23
100781.99
100759.91
100742.62
100721.9
100690.51
100700.16
100763.07
106160.69
106622.75
106718.04
107047.73
107196.13
107403.21
107537.43
107661.57
107741.44
107791.67
107804.89
107785.46
107733.49
107652.04
107543.62
107411.51
107258.93
107089.24
106905.64
106711.17
106508.63
106300.53
106089.09
105876.23
105663.6
105452.56
105244.26
105039.6
104839.31
104643.96
104453.99
104269.7
104091.3
103918.93
103752.66
103592.5
103438.42
103290.35
103148.19
103011.85
102881.17
102756.02
102636.25
102521.68
102412.17
102307.54
102207.63
102112.28
102021.3
101934.55
101851.87
101773.09
101698.07
101626.65
101558.7
101494.08
101432.65
101374.28
101318.86
101266.26
101216.37
101169.09
101124.31
101081.94
101041.9
101004.1
100968.46
100934.93
100903.43
100873.89
100846.29
100820.7
100796.89
100774.35
100754.48
100739.04
100719.15
100691.23
100705.71
100753.63
107152.49
107670.68
107790.58
108111.53
108264.91
108448.34
108553.29
108631.35
108656.93
108643.35
108587.45
108495.08
108369.03
108214.16
108034.72
107835.25
107619.93
107392.69
107157.02
106916.01
106672.33
106428.21
106185.5
105945.74
105710.11
105479.56
105254.82
105036.41
104824.71
104619.96
104422.32
104231.84
104048.51
103872.29
103703.07
103540.72
103385.1
103236.02
103093.32
102956.79
102826.25
102701.49
102582.31
102468.51
102359.91
102256.3
102157.5
102063.31
101973.56
101888.08
101806.69
101729.23
101655.54
101585.47
101518.87
101455.59
101395.51
101338.5
101284.43
101233.18
101184.65
101138.74
101095.33
101054.35
101015.7
100979.32
100945.12
100913.04
100883.03
100855.02
100829.01
100805.04
100782.8
100762.02
100744.26
100730.19
100711.3
100688.14
100704.69
100739.54
108315.01
108857.85
108987.76
109285.35
109410.58
109538.5
109580.62
109580.34
109521.62
109417.94
109270.99
109088.69
108876.51
108640.86
108387.22
108120.75
107845.86
107566.36
107285.39
107005.55
106728.9
106457.05
106191.24
105932.38
105681.14
105437.94
105203.07
104976.67
104758.77
104549.34
104348.26
104155.39
103970.54
103793.5
103624.05
103461.95
103306.96
103158.83
103017.32
102882.18
102753.17
102630.06
102512.62
102400.62
102293.86
102192.11
102095.17
102002.85
101914.97
101831.33
101751.77
101676.11
101604.19
101535.87
101470.99
101409.4
101350.99
101295.62
101243.17
101193.53
101146.58
101102.23
101060.38
101020.94
100983.84
100948.99
100916.33
100885.81
100857.36
100830.93
100806.54
100784.17
100763.52
100744.55
100728.72
100715.73
100698.38
100680.17
100696.22
100719.45
109628.89
110154.02
110263.17
110498.88
110559.87
110593.12
110534.83
110422.77
110251.67
110036.75
109784.49
109504.66
109204.48
108890.92
108569.56
108245.08
107921.2
107600.84
107286.2
106978.94
106680.22
106390.85
106111.33
105841.94
105582.8
105333.88
105095.07
104866.19
104646.98
104437.19
104236.51
104044.65
103861.28
103686.1
103518.79
103359.05
103206.56
103061.05
102922.22
102789.8
102663.53
102543.15
102428.42
102319.1
102214.96
102115.79
102021.37
101931.52
101846.04
101764.74
101687.45
101614.01
101544.25
101478.02
101415.18
101355.59
101299.11
101245.63
101195.02
101147.18
101102
101059.38
101019.24
100981.47
100946.02
100912.81
100881.78
100852.86
100826.01
100801.18
100778.39
100757.59
100738.5
100721.29
100707.15
100695.09
100679.62
100665.95
100680.02
100693.9
110963.62
111482.12
111548.78
111671.24
111617.62
111506.83
111306.78
111052.77
110750.24
110415.77
110058.65
109688.62
109312.6
108936.34
108564.01
108198.76
107842.79
107497.62
107164.19
106843.04
106534.43
106238.38
105954.74
105683.27
105423.65
105175.5
104938.43
104712.02
104495.85
104289.5
104092.56
103904.62
103725.31
103554.24
103391.06
103235.43
103087
102945.48
102810.56
102681.96
102559.4
102442.62
102331.37
102225.43
102124.55
102028.53
101937.16
101850.25
101767.59
101689.03
101614.37
101543.47
101476.17
101412.31
101351.75
101294.37
101240.04
101188.63
101140.04
101094.15
101050.87
101010.1
100971.76
100935.76
100902.03
100870.5
100841.12
100813.83
100788.57
100765.32
100744.08
100724.77
100707.19
100691.63
100678.9
100667.69
100654.26
100644.4
100655.68
100662.34
112472.67
112815.08
112765.97
112677.41
112441.48
112141.14
111775.23
111373.67
110947.44
110510.59
110071.28
109636.42
109210.38
108796.31
108396.15
108011.03
107641.51
107287.69
106949.45
106626.43
106318.18
106024.18
105743.87
105476.67
105221.97
104979.21
104747.81
104527.24
104316.98
104116.54
103925.45
103743.28
103569.6
103404.02
103246.17
103095.69
102952.26
102815.55
102685.27
102561.13
102442.86
102330.21
102222.93
102120.8
102023.58
101931.08
101843.09
101759.41
101679.87
101604.3
101532.53
101464.39
101399.75
101338.46
101280.38
101225.38
101173.35
101124.16
101077.71
101033.9
100992.63
100953.8
100917.34
100883.17
100851.21
100821.41
100793.7
100768.03
100744.36
100722.66
100702.93
100685.04
100668.91
100654.86
100643.34
100632.96
100621.55
100614.65
100622.93
100624.62
113800.72
113765.86
113513.99
113168.1
112733.36
112257.04
111754.29
111245.04
110738.78
110243.65
109763.95
109302.55
108860.61
108438.58
108036.42
107653.69
107289.73
106943.73
106614.86
106302.25
106005.07
105722.49
105453.68
105197.89
104954.39
104722.54
104501.7
104291.32
104090.85
103899.81
103717.71
103544.14
103378.68
103220.95
103070.59
102927.25
102790.61
102660.37
102536.24
102417.96
102305.26
102197.91
102095.68
101998.35
101905.72
101817.58
101733.75
101654.05
101578.3
101506.35
101438.04
101373.21
101311.74
101253.47
101198.3
101146.08
101096.71
101050.08
101006.08
100964.62
100925.61
100888.95
100854.58
100822.4
100792.37
100764.41
100738.47
100714.49
100692.44
100672.3
100654.03
100637.54
100622.78
100610.07
100599.53
100589.92
100580.27
100575.73
100581.95
100579.16
114203.3
113879.35
113436.87
112917.09
112366.05
111807.86
111256.6
110721.51
110206.87
109715.12
109246.86
108801.97
108379.87
107979.57
107599.85
107239.52
106897.39
106572.38
106263.43
105969.56
105689.88
105423.58
105169.96
104928.36
104698.12
104478.64
104269.37
104069.78
103879.41
103697.8
103524.53
103359.21
103201.47
103050.95
102907.34
102770.31
102639.58
102514.9
102396.01
102282.69
102174.7
102071.81
101973.81
101880.51
101791.71
101707.22
101626.87
101550.48
101477.91
101408.99
101343.58
101281.53
101222.72
101167.01
101114.28
101064.42
101017.31
100972.85
100930.94
100891.49
100854.4
100819.59
100786.99
100756.53
100728.13
100701.73
100677.29
100654.75
100634.06
100615.2
100598.14
100582.8
100569.17
100557.44
100547.59
100538.86
100530.99
100526.92
100529.04
100526.75
112791.4
112536.08
112157.54
111690.5
111204.33
110711.32
110227.47
109757.93
109306.11
108873.28
108459.7
108065.1
107688.79
107330.14
106988.37
106662.69
106352.28
106056.39
105774.25
105505.18
105248.47
105003.45
104769.56
104546.3
104333.18
104129.75
103935.54
103750.14
103573.14
103404.18
103242.88
103088.91
102941.95
102801.71
102667.9
102540.26
102418.54
102302.47
102191.82
102086.34
101985.82
101890.07
101798.88
101712.08
101629.48
101550.92
101476.24
101405.27
101337.89
101273.93
101213.27
101155.78
101101.33
101049.8
101001.07
100955.05
100911.61
100870.67
100832.12
100795.89
100761.88
100730.02
100700.22
100672.42
100646.55
100622.56
100600.39
100579.98
100561.3
100544.31
100528.97
100515.24
100503.12
100492.66
100483.82
100476.29
100470.08
100466.35
100465.81
100464.61
108088.88
109144.6
109312.85
109373.96
109238.79
109031.84
108766.9
108475.42
108168.13
107855.6
107543.04
107234.52
106932.32
106638.05
106352.62
106076.57
105810.18
105553.53
105306.58
105069.2
104841.22
104622.4
104412.46
104211.06
104017.93
103832.75
103655.26
103485.19
103322.26
103166.22
103016.82
102873.82
102737
102606.12
102480.99
102361.41
102247.15
102137.99
102033.74
101934.22
101839.26
101748.68
101662.34
101580.07
101501.72
101427.15
101356.22
101288.8
101224.74
101163.93
101106.25
101051.57
100999.79
100950.78
100904.46
100860.71
100819.44
100780.55
100743.96
100709.58
100677.33
100647.13
100618.91
100592.6
100568.13
100545.45
100524.49
100505.21
100487.56
100471.5
100457
100444
100432.51
100422.51
100413.97
100406.81
100401.06
100396.93
100394.52
100393.45
110368.76
110411.1
110291.16
110046.16
109687.79
109260.51
108792
108301.52
107801.7
107298.48
106805.7
106323.08
105860.64
105414.63
104988.13
104594.37
104229.43
103902.29
103607.76
103344.34
103110.73
102903.36
102720.22
102558.24
102415.15
102287.43
102171.42
102065.26
101968.99
101886.02
101811.69
101742.83
101678.78
101618.61
101561.69
101507.55
101455.87
101406.42
101359.07
101313.69
101270.22
101228.59
101188.74
101150.64
101114.24
101079.48
101046.3
101014.65
100984.48
100955.71
100928.27
100902.13
100877.14
100853.33
100830.43
100808.65
100787.43
100767.41
100747.29
100728.87
100709.07
100692.4
100671.66
100657.49
100633.66
100624.01
100593.38
100592.38
100548.52
100563.77
100494.79
100541.03
100429.28
100527.8
100346.41
100529.63
100240.59
100552.22
100105.33
100606.97
97179.409
97375.815
97754.655
98163.003
98605.031
99080.742
99488.373
99837.488
100163.89
100457.07
100710.01
100930.63
101120.84
101282.84
101420.01
101534.03
101628.86
101703.67
101760.46
101800.61
101827.57
101841.39
101844.61
101837.33
101821.69
101798.52
101770.2
101738.01
101701.9
101663.86
101624.09
101582.91
101540.04
101496.53
101453.05
101410.01
101367.75
101326.5
101286.42
101247.63
101210.15
101174.03
101139.27
101105.87
101073.81
101043.07
101013.61
100985.41
100958.41
100932.59
100907.87
100884.23
100861.55
100839.85
100818.9
100798.9
100779.29
100760.74
100741.98
100724.72
100706.1
100690.23
100670.61
100656.82
100634.25
100624.37
100595.37
100593.24
100551.78
100565.07
100500.35
100542.27
100436
100529.42
100352.71
100532.03
100244.77
100558.09
100105.98
100615.4
104086.47
104120.19
104119.42
104092.62
104037.47
103960.27
103867.38
103762.36
103648.81
103531.17
103410.21
103288.69
103167.06
103047.09
102928.83
102814.89
102702.9
102599.43
102498.33
102406.54
102313.05
102230.55
102145.24
102071.32
101999.67
101934.56
101876.65
101821.6
101770.68
101709.71
101652.23
101598.11
101546.37
101497.07
101449.95
101404.8
101361.48
101319.85
101279.83
101241.33
101204.33
101168.77
101134.62
101101.86
101070.45
101040.37
101011.58
100984.04
100957.7
100932.53
100908.45
100885.43
100863.34
100842.22
100821.8
100802.31
100783.16
100765.03
100746.63
100729.71
100711.33
100695.7
100676.22
100662.53
100640.06
100630.05
100601.14
100598.7
100556.99
100569.84
100505.75
100545.92
100441.73
100531.86
100358.7
100533.59
100250.27
100559.74
100109.9
100618.25
101643.13
101645.28
101653.12
101668.09
101687.21
101706.83
101727.09
101748.81
101770.3
101792.05
101812.34
101831.6
101848.38
101862.61
101873.03
101879.9
101881.88
101880.05
101873.55
101863.39
101849.39
101832.28
101811.96
101786.77
101757.09
101723.56
101687.73
101649.82
101611.78
101573.75
101535.05
101496.37
101457.76
101419.37
101381.38
101343.95
101307.21
101271.28
101236.24
101202.19
101169.18
101137.23
101106.39
101076.67
101048.07
101020.58
100994.18
100968.87
100944.61
100921.36
100899.06
100877.69
100857.13
100837.43
100818.3
100800
100781.92
100764.79
100747.25
100731.14
100713.4
100698.43
100679.38
100666.23
100643.96
100634.44
100605.5
100603.54
100561.73
100574.89
100510.31
100551.06
100445.57
100536.84
100362.37
100538.5
100253.32
100564.18
100112.12
100622.23
102026.07
102033.62
102034.66
102033.26
102030.24
102025.01
102018.2
102010.73
102001.95
101992.35
101980.96
101969.4
101955.2
101940.56
101923.8
101905.24
101885.94
101862.78
101839.97
101812.74
101786.48
101755.53
101725.69
101692.56
101660.48
101626.49
101593.66
101558.92
101524.61
101490.11
101455.68
101421.44
101387.47
101353.87
101320.71
101288.07
101255.99
101224.55
101193.8
101163.78
101134.56
101106.16
101078.62
101051.96
101026.21
101001.38
100977.46
100954.44
100932.3
100911.03
100890.55
100870.88
100851.87
100833.6
100815.78
100798.66
100781.66
100765.49
100748.8
100733.43
100716.36
100701.92
100683.35
100670.55
100648.59
100639.23
100610.5
100608.54
100566.79
100579.71
100515.33
100555.61
100450.69
100541
100367.07
100542.06
100257.4
100567.67
100114.94
100625.46
101507.05
101512.19
101517.1
101523.98
101530.97
101538.01
101543.15
101549.38
101553.35
101557.67
101559.36
101561.11
101560.37
101559.68
101556.71
101553.33
101548.05
101542.06
101534.26
101525.65
101515.22
101504.1
101491.01
101476.86
101460.8
101443.52
101424.54
101404.45
101383.09
101360.82
101337.66
101313.81
101289.38
101264.54
101239.4
101214.11
101188.8
101163.59
101138.57
101113.86
101089.54
101065.69
101042.36
101019.62
100997.5
100976.03
100955.22
100935.09
100915.63
100896.82
100878.63
100861.05
100843.96
100827.44
100811.23
100795.55
100779.86
100764.84
100749.2
100734.72
100718.46
100704.67
100686.69
100674.3
100652.78
100643.62
100615.21
100613.23
100571.81
100584.44
100520.19
100560.15
100455.15
100545.21
100371.36
100545.93
100261.07
100571.18
100117.58
100628.53
101322.94
101329.67
101334.64
101340.33
101346.32
101352.03
101356.74
101361.64
101364.35
101368.45
101369.73
101372.98
101373.3
101374.92
101374.19
101373.38
101370.56
101367.67
101363.14
101358
101351.48
101344.04
101335.38
101325.67
101314.85
101302.99
101290.12
101276.25
101261.46
101245.81
101229.38
101212.24
101194.48
101176.2
101157.48
101138.43
101119.13
101099.69
101080.18
101060.7
101041.33
101022.15
101003.22
100984.59
100966.32
100948.45
100931
100913.99
100897.42
100881.29
100865.57
100850.26
100835.27
100820.64
100806.16
100792.04
100777.76
100763.98
100749.46
100735.91
100720.51
100707.38
100690.07
100678.07
100657.05
100648.01
100620.02
100617.88
100576.88
100589.06
100525.23
100564.54
100460.29
100549.2
100375.97
100549.55
100264.97
100574.46
100120.3
100631.32
101064.43
101071.22
101076.69
101083.24