/*--------------------------------*- C++ -*----------------------------------*\
  =========                 |
  \\      /  F ield         | OpenFOAM: The Open Source CFD Toolbox
   \\    /   O peration     | Website:  https://openfoam.org
    \\  /    A nd           | Version:  6
     \\/     M anipulation  |
\*---------------------------------------------------------------------------*/
FoamFile
{
    version     2.0;
    format      ascii;
    class       surfaceScalarField;
    location    "800";
    object      phi;
}
// * * * * * * * * * * * * * * * * * * * * * * * * * * * * * * * * * * * * * //

dimensions      [1 0 -1 0 0 0 0];

internalField   nonuniform List<scalar> 
31760
(
-0.00058036948
-0.038312116
0.038892485
-0.0012908919
-0.042465361
0.043175883
-0.0020180646
-0.043577848
0.04430502
-0.0027998586
-0.046117809
0.046899603
-0.0036017717
-0.047949306
0.048751219
-0.0044583414
-0.050393442
0.051250011
-0.0053436809
-0.052611453
0.053496793
-0.0062814317
-0.055158
0.056095751
-0.0072566301
-0.057673666
0.058648865
-0.0082841526
-0.060405156
0.061432679
-0.0093568153
-0.063197629
0.064270291
-0.010483692
-0.06616194
0.067288817
-0.011661928
-0.069235622
0.070413858
-0.012897516
-0.072469115
0.073704703
-0.014190449
-0.075840473
0.077133406
-0.01554498
-0.07937457
0.080729102
-0.016962365
-0.083067699
0.084485084
-0.018445891
-0.086933911
0.088417437
-0.019997597
-0.090977623
0.092529329
-0.021620549
-0.095209198
0.09683215
-0.023317019
-0.099636502
0.10133297
-0.025090086
-0.10426945
0.10604251
-0.026941753
-0.10911776
0.11096942
-0.02887491
-0.11419194
0.1161251
-0.030891891
-0.11950281
0.12151979
-0.032994773
-0.12506256
0.12716544
-0.035185887
-0.13088282
0.13307393
-0.037467518
-0.13697706
0.13925869
-0.039841279
-0.14335889
0.14573265
-0.042308535
-0.15004305
0.1525103
-0.044870982
-0.1570446
0.15960704
-0.047529387
-0.16438027
0.16703868
-0.050284833
-0.17206665
0.1748221
-0.053137202
-0.18012234
0.18297471
-0.056086427
-0.18856666
0.19151589
-0.059132092
-0.1974196
0.20046526
-0.062273271
-0.20670238
0.20984356
-0.065507827
-0.21643814
0.21967269
-0.068833877
-0.22665032
0.22997637
-0.072248342
-0.23736402
0.24077848
-0.07574786
-0.24860563
0.25210515
-0.079327787
-0.26040318
0.26398311
-0.082983209
-0.27278553
0.27644095
-0.086707628
-0.28578416
0.28950858
-0.090494192
-0.29943068
0.30321724
-0.094334858
-0.31375967
0.31760034
-0.098219868
-0.32880658
0.33269159
-0.10213886
-0.34460923
0.34852822
-0.10607982
-0.36120686
0.36514782
-0.11002861
-0.3786414
0.38259019
-0.11397015
-0.39695589
0.40089744
-0.11788661
-0.41619636
0.42011282
-0.12175827
-0.43641075
0.44028241
-0.12556256
-0.4576496
0.46145389
-0.12927483
-0.47996546
0.48367774
-0.13286659
-0.50341427
0.50700603
-0.13630629
-0.52805448
0.53149419
-0.13955773
-0.55394766
0.5571991
-0.14258106
-0.58115701
0.58418033
-0.1453309
-0.60975012
0.61249997
-0.14775646
-0.63979817
0.64222373
-0.14980054
-0.6713741
0.67341819
-0.15140037
-0.70455714
0.70615697
-0.15248205
-0.73942624
0.74050793
-0.15296981
-0.7760693
0.77655706
-0.15276527
-0.8145685
0.81436395
-0.15178297
-0.85502586
0.85404357
-0.14988013
-0.89750389
0.89560105
-0.14698907
-0.94215265
0.93926158
-0.14286813
-0.98895365
0.98483271
-0.1375423
-1.0382233
1.0328974
-0.13054855
-1.08965
1.0826563
-0.12218125
-1.1441311
1.1357638
-0.11142038
-1.2003078
1.1895469
-0.099261495
-1.2609624
1.2488035
-0.083645597
-1.321123
1.3055071
-0.066798109
-1.3893723
1.3725248
-0.045257212
-1.4516151
1.4300742
-0.022180137
-1.5291231
1.506046
-1.5943834
1.5657234
-0.00056106725
-0.037751048
-0.0012326036
-0.041793825
-0.0019220553
-0.042888396
-0.0026619002
-0.045377964
-0.0034242532
-0.047186953
-0.0042353249
-0.04958237
-0.0050769116
-0.051769867
-0.0059672395
-0.054267672
-0.0068956804
-0.056745226
-0.0078737237
-0.059427113
-0.0088965055
-0.062174847
-0.0099715673
-0.065086879
-0.011097221
-0.068109969
-0.012279031
-0.071287304
-0.013516746
-0.074602758
-0.014814818
-0.078076498
-0.016174494
-0.081708024
-0.017599269
-0.085509136
-0.019091149
-0.089485744
-0.020653097
-0.09364725
-0.022287491
-0.098002107
-0.023996938
-0.10256
-0.02578437
-0.10733032
-0.027651918
-0.11232439
-0.029601896
-0.11755283
-0.031636939
-0.12302752
-0.033759088
-0.12876067
-0.035970385
-0.13476577
-0.038272268
-0.141057
-0.040666719
-0.14764859
-0.043154858
-0.15455646
-0.045737663
-0.16179747
-0.048415757
-0.16938856
-0.051189051
-0.17734905
-0.05405799
-0.18569772
-0.057021618
-0.19445597
-0.060078618
-0.20364538
-0.063227712
-0.21328904
-0.066466552
-0.22341148
-0.069792176
-0.23403839
-0.073201302
-0.24519651
-0.076689716
-0.25691477
-0.080252244
-0.269223
-0.083883343
-0.28215306
-0.087576245
-0.29573777
-0.091323497
-0.31001242
-0.095116135
-0.32501394
-0.098944424
-0.34078094
-0.10279697
-0.35735431
-0.10666147
-0.3747769
-0.11052335
-0.39309401
-0.11436677
-0.41235294
-0.11817364
-0.43260388
-0.12192354
-0.4538997
-0.12559356
-0.47629544
-0.12915802
-0.49984982
-0.13258785
-0.52462465
-0.13585112
-0.55068438
-0.13891061
-0.57809752
-0.14172518
-0.60693556
-0.14424949
-0.63727385
-0.14643091
-0.66919269
-0.14821252
-0.70277553
-0.14952789
-0.73811088
-0.1503054
-0.77529178
-0.15046236
-0.81441154
-0.14991004
-0.85557819
-0.14853693
-0.898877
-0.14625013
-0.94443945
-0.14287787
-0.99232592
-0.13836298
-1.0427382
-0.13240541
-1.0956076
-0.12509356
-1.1514429
-0.11579129
-1.2096101
-0.10498005
-1.2717736
-0.091292933
-1.3348101
-0.076139935
-1.4045253
-0.057028428
-1.4707266
-0.036397714
-1.5497538
-1.6199217
-0.00052959599
-0.037221453
-0.0011782648
-0.041145156
-0.0018289685
-0.042237693
-0.0025337092
-0.044673224
-0.0032562412
-0.046464421
-0.0040301219
-0.04880849
-0.0048312273
-0.050968761
-0.0056821151
-0.053416785
-0.0065689131
-0.055858428
-0.0075058561
-0.05849017
-0.0084859547
-0.061194748
-0.0095179824
-0.064054851
-0.010599933
-0.067028019
-0.011737049
-0.070150188
-0.012930229
-0.073409579
-0.014182749
-0.076823979
-0.015496906
-0.080393866
-0.016875199
-0.084130843
-0.018320631
-0.088040311
-0.019835534
-0.092132347
-0.02142275
-0.096414892
-0.023085079
-0.10089767
-0.024824309
-0.10559109
-0.026643807
-0.1105049
-0.02854574
-0.1156509
-0.030532209
-0.12104105
-0.032605342
-0.12668754
-0.034767003
-0.1326041
-0.03701919
-0.13880482
-0.039363263
-0.14530452
-0.041800035
-0.15211969
-0.044330998
-0.1592665
-0.046956047
-0.16676351
-0.04967594
-0.17462915
-0.052490011
-0.18288365
-0.055397713
-0.19154827
-0.058397857
-0.20064523
-0.061488673
-0.21019823
-0.064668082
-0.22023207
-0.067933727
-0.23077275
-0.071281532
-0.2418487
-0.074708051
-0.25348825
-0.078208558
-0.2657225
-0.081777818
-0.2785838
-0.085409497
-0.2921061
-0.089096486
-0.30632543
-0.09283103
-0.32127939
-0.096604063
-0.33700791
-0.10040561
-0.35355276
-0.10422411
-0.37095841
-0.10804675
-0.38927137
-0.11185915
-0.40854054
-0.11564485
-0.42881818
-0.11938579
-0.45015876
-0.12306151
-0.47261972
-0.1266487
-0.49626263
-0.13012157
-0.52115178
-0.1334509
-0.54735505
-0.1366038
-0.57494462
-0.13954347
-0.60399589
-0.14222821
-0.63458912
-0.14461194
-0.66680896
-0.14664214
-0.70074533
-0.14826067
-0.73649234
-0.14940189
-0.77415057
-0.14998971
-0.81382371
-0.14994844
-0.85561946
-0.14917646
-0.89964898
-0.14757997
-0.94603593
-0.14502748
-0.99487841
-0.14142769
-1.046338
-0.13656763
-1.1004676
-0.13042802
-1.1575825
-0.12259965
-1.2174385
-0.11329881
-1.2810745
-0.10155801
-1.3465509
-0.088297985
-1.4177853
-0.071661701
-1.4873629
-0.053373336
-1.5680422
-1.6422636
-0.00050042875
-0.036721024
-0.0011310352
-0.04051455
-0.0017493027
-0.041619425
-0.0024246541
-0.043997872
-0.0031141766
-0.045774899
-0.0038567232
-0.048065943
-0.0046244518
-0.050201033
-0.005442491
-0.052598746
-0.0062954816
-0.055005437
-0.0071986096
-0.057587042
-0.0081446888
-0.060248669
-0.0091425286
-0.063057012
-0.010190094
-0.065980453
-0.011293117
-0.069047165
-0.012451865
-0.07225083
-0.013670453
-0.075605391
-0.014950533
-0.079113786
-0.016295526
-0.08278585
-0.017707672
-0.086628166
-0.019190091
-0.090649928
-0.020745116
-0.094859867
-0.022375335
-0.099267454
-0.024083741
-0.10388269
-0.025872639
-0.108716
-0.027744194
-0.11377935
-0.029700981
-0.11908426
-0.031744716
-0.1246438
-0.033877616
-0.1304712
-0.036101066
-0.13658137
-0.038416583
-0.142989
-0.040825128
-0.14971114
-0.043327426
-0.15676421
-0.045924185
-0.16416675
-0.048615009
-0.17193833
-0.05139963
-0.18009903
-0.054277622
-0.18867028
-0.057247579
-0.19767528
-0.060307847
-0.20713796
-0.063456409
-0.21708351
-0.06669058
-0.22753858
-0.070007446
-0.23853184
-0.073403162
-0.25009254
-0.076873474
-0.26225218
-0.080413615
-0.27504366
-0.084018005
-0.28850171
-0.087680411
-0.30266302
-0.091393816
-0.31756599
-0.095150284
-0.33325144
-0.098940819
-0.34976223
-0.10275533
-0.36714389
-0.10658289
-0.38544382
-0.11041014
-0.40471329
-0.11422335
-0.42500497
-0.11800641
-0.4463757
-0.12174072
-0.46888542
-0.12540638
-0.49259696
-0.12898079
-0.51757737
-0.13243755
-0.54389829
-0.13574792
-0.57163425
-0.13887933
-0.60086447
-0.14179498
-0.63167347
-0.1444536
-0.66415034
-0.14680913
-0.69838979
-0.14880915
-0.73449232
-0.15039572
-0.772564
-0.15150316
-0.81271628
-0.15205771
-0.85506491
-0.15197477
-0.89973192
-0.15116742
-0.94684328
-0.14952388
-0.99652195
-0.14694328
-1.0489186
-0.14327051
-1.1041404
-0.13843089
-1.1624222
-0.13214015
-1.2237292
-0.12448895
-1.2887257
-0.11475214
-1.3562877
-0.10354365
-1.4289938
-0.089445805
-1.5014607
-0.073779539
-1.5837084
-1.661425
-0.00047371135
-0.036247313
-0.0010882321
-0.039900029
-0.0016788835
-0.041028774
-0.0023304211
-0.043346335
-0.0029928783
-0.045112442
-0.0037106719
-0.04734815
-0.0044521743
-0.049459531
-0.005245136
-0.051805784
-0.0060727866
-0.054177787
-0.0069508058
-0.056709023
-0.0078723757
-0.059327099
-0.0088463483
-0.062083039
-0.0098707571
-0.064956044
-0.01095095
-0.067966972
-0.012087891
-0.07111389
-0.013285655
-0.074407628
-0.014546031
-0.077853409
-0.015872447
-0.081459434
-0.017267196
-0.085233417
-0.018733145
-0.089183979
-0.020273348
-0.093319664
-0.021890263
-0.097650539
-0.023586643
-0.10218631
-0.025364523
-0.10693812
-0.027226908
-0.11191696
-0.029175558
-0.11713561
-0.031212715
-0.12260665
-0.033339788
-0.12834413
-0.035558793
-0.13436236
-0.0378703
-0.1406775
-0.040275878
-0.14730556
-0.042775791
-0.15426429
-0.045370423
-0.16157212
-0.048059742
-0.16924901
-0.050843347
-0.17731543
-0.05372006
-0.18579356
-0.056689099
-0.19470624
-0.059748967
-0.20407809
-0.062897366
-0.21393511
-0.066131871
-0.22430407
-0.069450035
-0.23521367
-0.072848276
-0.24669429
-0.076322901
-0.25877756
-0.079869879
-0.27149668
-0.083484195
-0.28488739
-0.087160753
-0.29898647
-0.090893223
-0.31383352
-0.09467486
-0.3294698
-0.098498215
-0.34593887
-0.10235481
-0.36328729
-0.10623462
-0.38156401
-0.11012743
-0.40082049
-0.11402066
-0.42111173
-0.11790066
-0.4424957
-0.12175223
-0.46503385
-0.12555758
-0.48879162
-0.12929692
-0.51383802
-0.13294832
-0.5402469
-0.13648659
-0.56809598
-0.1398834
-0.59746767
-0.14310655
-0.62845032
-0.14612043
-0.66113646
-0.14888451
-0.69562572
-0.15135333
-0.73202349
-0.15347588
-0.77044145
-0.15519428
-0.81099788
-0.15644366
-0.85381553
-0.15715179
-0.8990238
-0.15723858
-0.94675649
-0.1566056
-0.99715492
-0.15516413
-1.05036
-0.15278355
-1.106521
-0.14937578
-1.1658299
-0.14472869
-1.2283763
-0.1388562
-1.2945982
-0.13123631
-1.3639076
-0.12223833
-1.4379918
-0.11075497
-1.5129441
-0.097817156
-1.5966462
-1.677316
-0.00045353275
-0.03579378
-0.0010444267
-0.039309135
-0.001614962
-0.040458239
-0.0022505204
-0.042710777
-0.0028943636
-0.044468599
-0.0035959323
-0.046646581
-0.0043204889
-0.048734974
-0.0050977971
-0.051028476
-0.0059102035
-0.05336538
-0.0067741611
-0.055845066
-0.0076824021
-0.058418858
-0.0086441639
-0.061121277
-0.0096579305
-0.063942278
-0.010729023
-0.066895879
-0.01185861
-0.069984303
-0.01305029
-0.073215948
-0.01430682
-0.076596879
-0.015630991
-0.080135263
-0.017025878
-0.08383853
-0.018494388
-0.087715469
-0.02003888
-0.091775172
-0.021662746
-0.096026672
-0.023367931
-0.10048112
-0.025157468
-0.10514858
-0.027033317
-0.11004111
-0.028997612
-0.11517132
-0.031052423
-0.12055184
-0.033199214
-0.12619734
-0.035439379
-0.13212219
-0.037774029
-0.13834285
-0.040204027
-0.14487557
-0.042729471
-0.15173885
-0.045350858
-0.15895073
-0.048067821
-0.16653205
-0.05087987
-0.17450338
-0.0537862
-0.18288723
-0.056785673
-0.19170676
-0.05987681
-0.20098695
-0.063057723
-0.2107542
-0.066326464
-0.22103533
-0.069680508
-0.23185963
-0.073117044
-0.24325776
-0.076633278
-0.25526133
-0.080225265
-0.2679047
-0.083889383
-0.28122327
-0.087621246
-0.2952546
-0.091416084
-0.31003868
-0.095268636
-0.32561725
-0.099172244
-0.34203526
-0.10312044
-0.3593391
-0.10710556
-0.37757889
-0.1111186
-0.39680744
-0.11514986
-0.41708047
-0.11918793
-0.43845763
-0.12322
-0.46100178
-0.12723186
-0.48477976
-0.13120712
-0.50986276
-0.13512695
-0.53632706
-0.13897064
-0.56425229
-0.14271361
-0.5937247
-0.14632968
-0.62483425
-0.14978759
-0.65767855
-0.15305335
-0.69235996
-0.15608799
-0.72898886
-0.15884762
-0.76768182
-0.16128259
-0.80856291
-0.16333811
-0.85176001
-0.16495065
-0.89741125
-0.16604659
-0.94566055
-0.16655057
-0.99665094
-0.16637177
-1.0505388
-0.16541116
-1.1074816
-0.16357217
-1.1676689
-0.16069996
-1.2312485
-0.15676185
-1.2985363
-0.15137651
-1.3692929
-0.14476379
-1.4446045
-0.13602916
-1.5216787
-0.12602289
-1.6066525
-1.6898447
-0.00043985233
-0.035353928
-0.0010119501
-0.038737037
-0.0015690194
-0.039901169
-0.002195815
-0.042083981
-0.0028288986
-0.043835515
-0.0035224422
-0.045953038
-0.0042391933
-0.048018223
-0.0050102518
-0.050257417
-0.0058180197
-0.052557612
-0.006678749
-0.054984336
-0.0075859773
-0.05751163
-0.0085484772
-0.060158778
-0.009565164
-0.062925591
-0.010641295
-0.065819748
-0.011778909
-0.068846689
-0.012981344
-0.072013514
-0.014251254
-0.075326969
-0.01559228
-0.078794237
-0.017006703
-0.082424106
-0.018498031
-0.086224142
-0.020068911
-0.090204292
-0.021721919
-0.094373664
-0.023460137
-0.098742904
-0.025285421
-0.1033233
-0.027200044
-0.10812649
-0.029206372
-0.11316499
-0.031305825
-0.11845238
-0.033500023
-0.12400314
-0.035789832
-0.12983239
-0.038176293
-0.13595639
-0.040660048
-0.14239181
-0.043241401
-0.1491575
-0.045920098
-0.15627203
-0.048696165
-0.16375598
-0.051568731
-0.17163081
-0.05453715
-0.17991882
-0.057600413
-0.1886435
-0.060756787
-0.19783058
-0.064005497
-0.20750549
-0.067344226
-0.2176966
-0.070771377
-0.22843248
-0.074284879
-0.23974426
-0.077882106
-0.2516641
-0.08156088
-0.26422592
-0.085318289
-0.27746586
-0.089151097
-0.2914218
-0.093055736
-0.30613404
-0.097028289
-0.3216447
-0.10106471
-0.33799884
-0.10515959
-0.35524422
-0.10930738
-0.3734311
-0.11350134
-0.39261348
-0.11773424
-0.41284758
-0.12199745
-0.43419441
-0.12628098
-0.45671826
-0.13057375
-0.48048699
-0.13486247
-0.50557405
-0.1391328
-0.53205673
-0.14336735
-0.56001774
-0.14754743
-0.58954462
-0.15165031
-0.62073136
-0.15565148
-0.65367738
-0.15952217
-0.68848927
-0.16323057
-0.72528046
-0.16674034
-0.76417204
-0.1700105
-0.80529275
-0.17299246
-0.84877806
-0.17563344
-0.89477027
-0.17787589
-0.9434181
-0.17965065
-0.99487618
-0.18088281
-1.0493067
-0.18148635
-1.1068781
-0.18137714
-1.1677781
-0.1804315
-1.2321941
-0.17859636
-1.3003714
-0.17559214
-1.3722972
-0.17154801
-1.4486487
-0.16572844
-1.5274983
-0.15883255
-1.6135484
-1.6988883
-0.0004313702
-0.034922558
-0.00099993714
-0.038168471
-0.0015502507
-0.039350856
-0.0021754606
-0.041458771
-0.0028061027
-0.043204873
-0.0035001853
-0.045258955
-0.0042189464
-0.047299462
-0.0049942485
-0.049482115
-0.0058087842
-0.051743077
-0.0066785016
-0.054114619
-0.0075979728
-0.056592159
-0.0085752368
-0.059181514
-0.009610498
-0.06189033
-0.01070867
-0.064721576
-0.011871664
-0.067683696
-0.013103579
-0.070781599
-0.014407098
-0.074023449
-0.015785413
-0.077415922
-0.017241926
-0.080967593
-0.018779189
-0.084686879
-0.020400491
-0.08858299
-0.02210827
-0.092665885
-0.023905057
-0.096946116
-0.025793407
-0.10143495
-0.027775172
-0.10614472
-0.029851973
-0.11108819
-0.032025486
-0.11627887
-0.034296778
-0.12173185
-0.03666702
-0.12746214
-0.039136637
-0.13348677
-0.041706007
-0.13982244
-0.04437518
-0.14648832
-0.04714411
-0.1535031
-0.050012144
-0.16088795
-0.052979092
-0.16866386
-0.056044226
-0.17685368
-0.059206089
-0.18548164
-0.062464429
-0.19457224
-0.065817764
-0.20415215
-0.069265214
-0.21424915
-0.072805141
-0.22489255
-0.076436698
-0.2361127
-0.080158507
-0.24794229
-0.083969034
-0.26041539
-0.087866591
-0.27356831
-0.091849342
-0.28743905
-0.095915825
-0.30206756
-0.10006359
-0.31749693
-0.10428972
-0.33377271
-0.10859167
-0.35094227
-0.11296571
-0.36905706
-0.1174078
-0.3881714
-0.12191302
-0.40834235
-0.12647545
-0.42963198
-0.13108879
-0.45210492
-0.13574427
-0.47583151
-0.14043329
-0.50088502
-0.14514469
-0.52734533
-0.14986611
-0.55529631
-0.15458254
-0.58482819
-0.15927769
-0.61603622
-0.16393172
-0.64902335
-0.16852267
-0.68389832
-0.17302521
-0.72077792
-0.17741038
-0.75978687
-0.18164552
-0.80105761
-0.18569229
-0.84473128
-0.18950879
-0.89095377
-0.19304396
-0.93988294
-0.1962448
-0.99167534
-0.19904642
-1.046505
-0.20137858
-1.1045459
-0.20317178
-1.1659849
-0.20433043
-1.2310355
-0.20479153
-1.2999103
-0.20435314
-1.3727356
-0.20307843
-1.4499234
-0.2003651
-1.5302116
-0.19678923
-1.6171243
-1.7042648
-0.00042883446
-0.034493723
-0.0010026374
-0.037594668
-0.001554629
-0.038798864
-0.0021871096
-0.040826291
-0.0028253391
-0.042566644
-0.0035303953
-0.044553899
-0.0042629494
-0.046566908
-0.0050545818
-0.048690483
-0.0058895183
-0.05090814
-0.0067826336
-0.053221504
-0.0077299114
-0.055644881
-0.0087388986
-0.058172526
-0.0098104667
-0.060818761
-0.010949351
-0.063582691
-0.01215816
-0.066474887
-0.013440904
-0.069498855
-0.014800449
-0.072663905
-0.016240334
-0.075976037
-0.017763441
-0.079444486
-0.01937308
-0.083077239
-0.02107197
-0.0868841
-0.022862711
-0.090875144
-0.024747516
-0.095061312
-0.026728441
-0.099454024
-0.028807649
-0.10406551
-0.030986337
-0.1089095
-0.033265643
-0.11399956
-0.035646653
-0.11935084
-0.038129839
-0.12497896
-0.040715848
-0.13090076
-0.043404247
-0.13713404
-0.046195469
-0.1436971
-0.049088797
-0.15060977
-0.052084214
-0.15789253
-0.055181244
-0.16556683
-0.058378888
-0.17365604
-0.061677354
-0.18218317
-0.065075671
-0.19117392
-0.068573353
-0.20065447
-0.072170187
-0.21065232
-0.075866123
-0.22119661
-0.079660471
-0.23231835
-0.083553076
-0.24404968
-0.087544
-0.25642447
-0.091633364
-0.26947894
-0.095820671
-0.28325174
-0.10010581
-0.29778242
-0.1044884
-0.31311434
-0.10896808
-0.32929303
-0.11354384
-0.34636651
-0.11821471
-0.36438619
-0.12297919
-0.38340692
-0.12783493
-0.40348661
-0.13277939
-0.42468752
-0.13780864
-0.44707568
-0.14291884
-0.47072131
-0.14810388
-0.49569998
-0.15335746
-0.52209175
-0.15867131
-0.54998246
-0.16403581
-0.57946369
-0.16943921
-0.61063282
-0.1748683
-0.64359426
-0.18030741
-0.67845921
-0.18573784
-0.71534749
-0.19113893
-0.75438578
-0.1964858
-0.79571075
-0.20175109
-0.83946599
-0.2068992
-0.88580566
-0.21189611
-0.93488603
-0.21669434
-0.98687711
-0.22124636
-1.041953
-0.22549826
-1.100294
-0.22938703
-1.1620961
-0.23284644
-1.2275761
-0.23581823
-1.2969385
-0.23815485
-1.3703989
-0.23987509
-1.4482031
-0.24049132
-1.5295954
-0.2404616
-1.617154
-1.7057428
-0.00043307814
-0.034060645
-0.001020892
-0.037006854
-0.0015841239
-0.038235633
-0.0022340941
-0.040176321
-0.0028914541
-0.041909284
-0.0036194211
-0.043825932
-0.004379184
-0.045807145
-0.0052013886
-0.047868278
-0.0060721887
-0.05003734
-0.0070053506
-0.052288342
-0.0079983032
-0.054651929
-0.0090580588
-0.057112771
-0.010186427
-0.059690393
-0.01138793
-0.062381189
-0.012665901
-0.065196915
-0.014023804
-0.068140952
-0.015465271
-0.071222438
-0.01699351
-0.074447798
-0.0186119
-0.077826096
-0.020323126
-0.081366014
-0.022129716
-0.08507751
-0.024034335
-0.088970525
-0.026039021
-0.093056626
-0.028145615
-0.09734743
-0.030355157
-0.10185597
-0.032669186
-0.10659547
-0.035088492
-0.11158026
-0.03761353
-0.1168258
-0.040244242
-0.12234825
-0.042981122
-0.12816388
-0.045823928
-0.13429124
-0.048772437
-0.14074859
-0.051826274
-0.14755594
-0.054985537
-0.15473327
-0.058249472
-0.1623029
-0.061618549
-0.17028696
-0.065092341
-0.17870938
-0.068671073
-0.18759519
-0.072355645
-0.1969699
-0.076146175
-0.20686179
-0.080043349
-0.21729944
-0.084048762
-0.22831294
-0.088163269
-0.23993518
-0.092388479
-0.25219926
-0.096725583
-0.26514184
-0.10117686
-0.27880046
-0.10574347
-0.29321581
-0.11042764
-0.30843017
-0.1152308
-0.32448987
-0.12015456
-0.34144275
-0.12520053
-0.35934022
-0.13036965
-0.3782378
-0.135663
-0.39819327
-0.14108059
-0.41926992
-0.14662292
-0.44153335
-0.15228869
-0.46505554
-0.15807655
-0.48991213
-0.16398422
-0.51618407
-0.17000819
-0.5439585
-0.17614373
-0.57332815
-0.18238537
-0.60439118
-0.18872535
-0.63725428
-0.19515425
-0.6720303
-0.20166164
-0.70884011
-0.20823386
-0.74781356
-0.21485541
-0.7890892
-0.22150627
-0.83281513
-0.2281669
-0.87914503
-0.23480708
-0.92824585
-0.24139874
-0.98028545
-0.24790485
-1.0354469
-0.25428355
-1.0939153
-0.26048831
-1.1558914
-0.26647485
-1.2215895
-0.27218898
-1.2912244
-0.27754202
-1.3650459
-0.28251284
-1.4432323
-0.28671347
-1.5253948
-0.29050275
-1.6133647
-1.7030454
-0.00044549925
-0.033615146
-0.0010576063
-0.036394747
-0.0016432463
-0.037649993
-0.0023221163
-0.039497451
-0.0030116529
-0.041219747
-0.0037761152
-0.04306147
-0.0045783322
-0.045004928
-0.0054473267
-0.046999284
-0.0063717606
-0.049112906
-0.0073639694
-0.051296133
-0.0084232178
-0.05359268
-0.0095557671
-0.055980222
-0.010764433
-0.058481728
-0.012053668
-0.061091953
-0.013426884
-0.0638237
-0.014888026
-0.06667981
-0.016440646
-0.069669818
-0.018087836
-0.072800609
-0.019832682
-0.07608125
-0.021677852
-0.079520844
-0.023626001
-0.083129361
-0.025678784
-0.086917742
-0.027838052
-0.090897358
-0.0301049
-0.095080582
-0.03248063
-0.099480243
-0.034965775
-0.10411033
-0.037560508
-0.10898553
-0.040264986
-0.11412132
-0.043079415
-0.11953382
-0.046003136
-0.12524016
-0.049036484
-0.13125789
-0.052178743
-0.13760633
-0.055430329
-0.14430435
-0.058790893
-0.1513727
-0.062261028
-0.15883276
-0.065840834
-0.16670716
-0.069531606
-0.17501861
-0.073334228
-0.18379257
-0.077250183
-0.19305395
-0.081281408
-0.20283056
-0.085430297
-0.21315055
-0.089698878
-0.22404436
-0.094090799
-0.23554326
-0.098608491
-0.24768157
-0.10325598
-0.26049435
-0.10803655
-0.2740199
-0.11295453
-0.28829782
-0.11801349
-0.30337122
-0.12321782
-0.31928554
-0.12857179
-0.33608878
-0.13407946
-0.35383255
-0.13974488
-0.37257238
-0.14557206
-0.39236609
-0.15156494
-0.41327704
-0.15772656
-0.43537172
-0.1640604
-0.4587217
-0.17056933
-0.4834032
-0.17725497
-0.50949844
-0.18411937
-0.5370941
-0.19116326
-0.56628426
-0.19838591
-0.59716853
-0.20578686
-0.62985334
-0.2133637
-0.66445346
-0.22111263
-0.70109118
-0.22902861
-0.73989757
-0.23710514
-0.78101266
-0.24533372
-0.82458656
-0.25370146
-0.87077729
-0.26219468
-0.91975262
-0.2707918
-0.97168833
-0.27947321
-1.0267655
-0.28821226
-1.0851763
-0.29697935
-1.1471243
-0.30574416
-1.2128247
-0.3144673
-1.2825013
-0.32309673
-1.3564165
-0.33160598
-1.4347231
-0.33968144
-1.5173193
-0.34759581
-1.6054503
-1.6958487
-0.00046587617
-0.03314927
-0.0011126468
-0.035747976
-0.0017322258
-0.037030414
-0.0024525029
-0.038777174
-0.0031887499
-0.0404835
-0.0040050094
-0.04224521
-0.0048670635
-0.044142874
-0.005801456
-0.046064891
-0.00679995
-0.048114412
-0.0078732559
-0.050222827
-0.0090224688
-0.052443467
-0.010253335
-0.054749355
-0.01156942
-0.057165643
-0.01297507
-0.059686303
-0.01447418
-0.06232459
-0.016070322
-0.065083668
-0.01776708
-0.06797306
-0.019567363
-0.071000326
-0.021473926
-0.074174687
-0.023489104
-0.077505666
-0.02561476
-0.081003705
-0.027852373
-0.084680129
-0.030203228
-0.088546503
-0.032667807
-0.092616003
-0.035246455
-0.096901595
-0.037939274
-0.10141751
-0.040746192
-0.10617861
-0.043666891
-0.11120063
-0.046701176
-0.11649953
-0.049848764
-0.12209257
-0.05310919
-0.12799746
-0.056482856
-0.13423267
-0.059969972
-0.14081724
-0.063570944
-0.14777173
-0.067287071
-0.15511664
-0.071119776
-0.16287445
-0.075070963
-0.17106742
-0.079143201
-0.17972033
-0.083338909
-0.18885824
-0.087662
-0.19850747
-0.092116071
-0.20869648
-0.096705864
-0.21945456
-0.10143544
-0.23081368
-0.10631062
-0.24280639
-0.11133668
-0.25546829
-0.11651962
-0.26883696
-0.12186564
-0.2829518
-0.12738116
-0.2978557
-0.13307308
-0.31359361
-0.1389483
-0.33021356
-0.14501369
-0.34776716
-0.1512769
-0.36630917
-0.15774484
-0.38589814
-0.16442507
-0.40659681
-0.17132485
-0.42847194
-0.17845138
-0.45159516
-0.18581178
-0.4760428
-0.19341325
-0.50189698
-0.20126188
-0.52924546
-0.20936471
-0.55818143
-0.21772744
-0.5888058
-0.22635539
-0.62122538
-0.23525366
-0.65555519
-0.24442648
-0.69191836
-0.25387739
-0.73044666
-0.26360851
-0.77128153
-0.27362146
-0.81457361
-0.28391595
-0.86048281
-0.29448804
-0.90918053
-0.30533259
-0.96084378
-0.31644037
-1.0156577
-0.32780155
-1.0738151
-0.33939993
-1.1355259
-0.3512211
-1.2010036
-0.36324644
-1.2704759
-0.37545396
-1.3442089
-0.38781807
-1.422359
-0.40010191
-1.5050354
-0.4124953
-1.5930569
-1.6838
-0.00049657992
-0.03265269
-0.0011907712
-0.035053785
-0.0018586938
-0.036362491
-0.0026352497
-0.038000618
-0.0034354956
-0.039683254
-0.004321813
-0.041358893
-0.0052641158
-0.043200571
-0.0062860234
-0.045042984
-0.0073825546
-0.047017881
-0.0085628997
-0.049042482
-0.0098299097
-0.051176457
-0.011188674
-0.053390591
-0.012643627
-0.05571069
-0.014198767
-0.058131163
-0.015858134
-0.060665223
-0.017625159
-0.063316642
-0.019502754
-0.066095465
-0.021493956
-0.069009124
-0.023600703
-0.07206794
-0.025824715
-0.075281654
-0.028166963
-0.078661456
-0.030628308
-0.082218785
-0.033209071
-0.08596574
-0.035909253
-0.089915822
-0.038728445
-0.094082403
-0.041666233
-0.09847972
-0.044721993
-0.10312285
-0.047895436
-0.10802718
-0.051185781
-0.11320919
-0.054593099
-0.11868525
-0.058117781
-0.12447278
-0.061760126
-0.13059032
-0.065521204
-0.13705616
-0.069402585
-0.14389035
-0.073406533
-0.15111269
-0.077536043
-0.15874494
-0.081793862
-0.1668096
-0.086184606
-0.17532959
-0.090712635
-0.18433021
-0.095383014
-0.19383709
-0.10020181
-0.20387768
-0.1051751
-0.21448127
-0.11030991
-0.22567887
-0.1156137
-0.2375026
-0.12109417
-0.24998782
-0.12675988
-0.26317125
-0.13261927
-0.27709241
-0.13868159
-0.29179338
-0.14495657
-0.30731863
-0.15145373
-0.3237164
-0.15818355
-0.34103735
-0.16515642
-0.35933629
-0.1723832
-0.37867137
-0.17987495
-0.39910506
-0.1876432
-0.42070369
-0.19569954
-0.44353882
-0.20405562
-0.46768672
-0.21272355
-0.49322905
-0.22171552
-0.52025349
-0.23104363
-0.54885332
-0.24072057
-0.57912885
-0.25075846
-0.6111875
-0.26116987
-0.64514377
-0.27196689
-0.68112134
-0.28316214
-0.71925142
-0.29476756
-0.75967611
-0.30679517
-0.802546
-0.31925535
-0.84802263
-0.33215691
-0.89627896
-0.34551205
-0.94748865
-0.35932187
-1.0018479
-0.37358812
-1.0595488
-0.38831647
-1.1207976
-0.40351109
-1.1858089
-0.41916574
-1.2548213
-0.43528487
-1.3280898
-0.45184817
-1.4057957
-0.46870882
-1.4881748
-0.48598356
-1.5757822
-1.6665028
-0.00053819018
-0.0321145
-0.0012939915
-0.034297984
-0.0020264258
-0.035630057
-0.0028762993
-0.037150744
-0.0037604196
-0.038799134
-0.0047379211
-0.040381391
-0.0057842887
-0.042154204
-0.0069195138
-0.043907759
-0.0081421154
-0.045795279
-0.009459686
-0.047724912
-0.010876699
-0.049759444
-0.012397707
-0.051869583
-0.01402755
-0.054080847
-0.015769902
-0.056388812
-0.017628585
-0.05880654
-0.01960642
-0.061338807
-0.021706086
-0.063995799
-0.02392916
-0.066786049
-0.026277022
-0.069720079
-0.028750447
-0.072808228
-0.031349543
-0.07606236
-0.03407428
-0.079494048
-0.036923673
-0.083116347
-0.039897277
-0.086942218
-0.04299391
-0.09098577
-0.046212848
-0.095260782
-0.049553018
-0.099782676
-0.053014053
-0.10456615
-0.056596083
-0.10962716
-0.060299199
-0.11498214
-0.064124311
-0.12064767
-0.068072905
-0.12664173
-0.072147382
-0.13298168
-0.07635079
-0.13968694
-0.080686496
-0.14677698
-0.085158827
-0.15427261
-0.08977354
-0.16219489
-0.094535867
-0.17056726
-0.099452906
-0.17941317
-0.10453165
-0.18875835
-0.10978007
-0.19862926
-0.11520677
-0.20905457
-0.12082113
-0.22006452
-0.12663257
-0.23169116
-0.13265155
-0.24396884
-0.13888888
-0.25693392
-0.145356
-0.27062529
-0.15206514
-0.28508424
-0.15902832
-0.30035546
-0.16625899
-0.31648573
-0.1737702
-0.33352614
-0.18157641
-0.35153008
-0.18969216
-0.37055562
-0.19813243
-0.3906648
-0.20691273
-0.41192339
-0.21604955
-0.434402
-0.2255596
-0.45817666
-0.23546021
-0.48332845
-0.24576946
-0.50994424
-0.25650557
-0.53811721
-0.26768801
-0.56794641
-0.2793362
-0.5995393
-0.29147057
-0.63300941
-0.30411204
-0.66847988
-0.31728176
-0.7060817
-0.33100265
-0.74595521
-0.34529677
-0.78825188
-0.36018702
-0.83313238
-0.37569726
-0.88076872
-0.39184729
-0.93133863
-0.40865763
-0.98503754
-0.42615044
-1.042056
-0.44434065
-1.1026073
-0.46324846
-1.1669011
-0.4828915
-1.2351783
-0.5032969
-1.3076844
-0.52445579
-1.3846368
-0.54629061
-1.46634
-0.56887928
-1.5531935
-1.6434989
-0.00059147636
-0.031523023
-0.0014244466
-0.033465013
-0.002240224
-0.034814279
-0.003183242
-0.036207726
-0.0041748753
-0.037807501
-0.0052690539
-0.039287213
-0.0064479846
-0.040975273
-0.0077269183
-0.042628825
-0.0091086086
-0.044413589
-0.01059893
-0.046234591
-0.012203706
-0.048154668
-0.013926761
-0.050146528
-0.015772887
-0.052234721
-0.017745118
-0.05441658
-0.019846567
-0.05670509
-0.022079171
-0.059106204
-0.024444386
-0.061630585
-0.02694281
-0.064287626
-0.029574564
-0.067088325
-0.032338939
-0.070043853
-0.03523517
-0.073166129
-0.038261554
-0.076467664
-0.041416975
-0.079960926
-0.044699651
-0.083659542
-0.048108524
-0.087576897
-0.051642172
-0.091727135
-0.055300322
-0.096124527
-0.059082877
-0.10078359
-0.062990028
-0.10572001
-0.067023693
-0.11094847
-0.071185415
-0.11648595
-0.075478869
-0.12234828
-0.079907374
-0.12855318
-0.084475922
-0.13511839
-0.089189897
-0.14206301
-0.094056154
-0.14940635
-0.099081547
-0.1571695
-0.10427432