/*--------------------------------*- C++ -*----------------------------------*\
  =========                 |
  \\      /  F ield         | OpenFOAM: The Open Source CFD Toolbox
   \\    /   O peration     | Website:  https://openfoam.org
    \\  /    A nd           | Version:  6
     \\/     M anipulation  |
\*---------------------------------------------------------------------------*/
FoamFile
{
    version     2.0;
    format      ascii;
    class       volScalarField;
    location    "800";
    object      rho;
}
// * * * * * * * * * * * * * * * * * * * * * * * * * * * * * * * * * * * * * //

dimensions      [1 -3 0 0 0 0 0];

internalField   nonuniform List<scalar> 
16000
(
1.1567716
1.1619605
1.1603932
1.161677
1.1612594
1.1619702
1.1619474
1.162449
1.1626071
1.1630207
1.1632758
1.1636546
1.163966
1.164337
1.1646833
1.1650589
1.1654287
1.1658138
1.1662003
1.1665956
1.1669941
1.1673979
1.1678044
1.1682136
1.1686239
1.1690346
1.1694444
1.169852
1.1702563
1.1706559
1.1710496
1.171436
1.1718137
1.1721816
1.1725382
1.1728825
1.1732131
1.1735291
1.1738294
1.1741131
1.1743794
1.1746276
1.1748572
1.1750676
1.1752586
1.17543
1.1755816
1.1757135
1.1758259
1.1759188
1.1759926
1.1760477
1.1760845
1.1761034
1.176105
1.1760898
1.1760585
1.1760115
1.1759494
1.1758728
1.1757821
1.1756782
1.1755608
1.1754318
1.1752881
1.1751361
1.1749635
1.1747926
1.1745807
1.1744051
1.1741222
1.1739875
1.1735525
1.1736063
1.1727414
1.173341
1.1713742
1.1734868
1.1692078
1.1739138
1.157274
1.1624723
1.1608367
1.1621849
1.1617503
1.1625095
1.1624869
1.1630241
1.1631935
1.1636356
1.1639085
1.1643122
1.1646446
1.1650387
1.1654069
1.1658048
1.1661962
1.1666026
1.1670096
1.1674247
1.1678421
1.1682637
1.1686867
1.1691109
1.1695347
1.1699571
1.1703765
1.1707917
1.1712012
1.1716037
1.1719978
1.1723819
1.1727547
1.1731149
1.1734612
1.1737924
1.1741074
1.1744051
1.1746847
1.1749455
1.1751867
1.175408
1.175609
1.1757895
1.1759494
1.1760889
1.1762079
1.176307
1.1763864
1.1764466
1.1764882
1.1765117
1.1765178
1.176507
1.1764801
1.1764378
1.1763806
1.1763094
1.1762246
1.1761269
1.1760167
1.1758946
1.175761
1.1756164
1.1754603
1.1752943
1.1751143
1.174928
1.1747185
1.1745166
1.1742595
1.174066
1.1737023
1.1736224
1.1729563
1.1732743
1.1716832
1.1733219
1.1694933
1.1738385
1.1579418
1.1631418
1.161467
1.162878
1.1624354
1.1632369
1.163223
1.163792
1.1639789
1.1644474
1.1647421
1.1651697
1.1655253
1.1659423
1.1663336
1.1667535
1.1671669
1.1675941
1.1680214
1.1684554
1.1688906
1.1693284
1.1697661
1.1702032
1.1706378
1.1710688
1.1714944
1.1719134
1.172324
1.1727247
1.1731141
1.1734906
1.1738529
1.1741995
1.1745293
1.174841
1.1751337
1.1754066
1.1756589
1.17589
1.1760997
1.1762876
1.1764537
1.1765981
1.176721
1.1768228
1.176904
1.1769651
1.1770068
1.1770299
1.177035
1.177023
1.1769947
1.1769509
1.1768924
1.1768199
1.1767344
1.1766364
1.1765266
1.1764055
1.1762737
1.1761317
1.1759798
1.1758184
1.1756473
1.175467
1.1752758
1.175076
1.1748607
1.1746419
1.1743918
1.1741641
1.1738407
1.1736673
1.1731301
1.1732568
1.1719339
1.1731865
1.169745
1.1737153
1.1587977
1.1639849
1.1622927
1.1637681
1.1633199
1.1641669
1.164164
1.1647677
1.164975
1.1654724
1.1657918
1.1662459
1.1666273
1.1670694
1.1674859
1.1679296
1.1683665
1.1688157
1.1692641
1.1697174
1.1701704
1.1706239
1.1710752
1.1715235
1.1719668
1.1724036
1.1728322
1.1732508
1.1736579
1.1740518
1.1744308
1.1747935
1.1751384
1.1754642
1.1757698
1.1760542
1.1763165
1.1765561
1.1767725
1.1769654
1.1771348
1.1772808
1.1774036
1.1775037
1.1775816
1.177638
1.1776739
1.1776899
1.1776872
1.1776666
1.1776293
1.1775761
1.1775082
1.1774265
1.1773319
1.1772252
1.1771074
1.1769792
1.1768413
1.1766942
1.1765383
1.1763743
1.1762023
1.1760226
1.1758352
1.1756401
1.1754363
1.1752243
1.1750008
1.1747699
1.1745194
1.1742717
1.1739701
1.1737421
1.1732813
1.1732732
1.1721637
1.1731081
1.1700091
1.1737302
1.1598371
1.1649927
1.1633116
1.1648545
1.1644064
1.1653015
1.1653152
1.1659557
1.1661881
1.1667166
1.1670645
1.1675469
1.167957
1.1684258
1.1688695
1.1693382
1.1697996
1.1702711
1.1707405
1.1712126
1.1716822
1.1721498
1.1726125
1.1730691
1.1735174
1.1739559
1.1743826
1.1747955
1.1751931
1.1755734
1.1759349
1.1762761
1.1765956
1.1768923
1.1771651
1.1774132
1.1776361
1.1778334
1.178005
1.1781509
1.1782715
1.1783672
1.1784386
1.1784868
1.1785124
1.1785168
1.1785009
1.178466
1.1784134
1.1783442
1.1782599
1.1781614
1.1780502
1.1779271
1.1777933
1.1776497
1.1774972
1.1773366
1.1771685
1.1769936
1.1768121
1.1766246
1.1764313
1.1762323
1.1760276
1.1758169
1.1755997
1.1753754
1.1751423
1.174901
1.1746461
1.1743852
1.1740927
1.1738285
1.1734222
1.1733037
1.1723726
1.1730721
1.1702604
1.1737566
1.1610874
1.1662099
1.1645532
1.1661649
1.1657208
1.1666648
1.1666992
1.1673774
1.1676387
1.1681995
1.1685791
1.1690912
1.1695322
1.1700291
1.1705013
1.1709958
1.1714823
1.1719762
1.1724661
1.1729558
1.1734403
1.1739195
1.1743905
1.1748515
1.1753005
1.1757353
1.1761539
1.1765545
1.176935
1.1772937
1.177629
1.1779396
1.1782242
1.1784818
1.1787117
1.1789135
1.1790868
1.1792317
1.1793485
1.1794378
1.1795002
1.1795367
1.1795485
1.1795367
1.1795027
1.179448
1.1793741
1.1792825
1.1791747
1.1790522
1.1789165
1.1787689
1.1786108
1.1784434
1.1782678
1.1780848
1.1778955
1.1777007
1.177501
1.1772968
1.1770886
1.1768766
1.1766612
1.1764423
1.1762198
1.1759933
1.1757623
1.175526
1.1752829
1.1750325
1.1747719
1.1745023
1.1742133
1.1739271
1.1735579
1.1733523
1.172573
1.1730675
1.1705188
1.1738171
1.1625547
1.1676845
1.1660231
1.1677053
1.1672697
1.168264
1.168324
1.1690414
1.1693361
1.1699308
1.1703456
1.1708893
1.1713638
1.1718903
1.1723924
1.1729134
1.1734252
1.1739409
1.1744502
1.1749556
1.1754524
1.1759397
1.1764144
1.1768746
1.1773179
1.177742
1.1781448
1.1785242
1.1788783
1.1792054
1.1795041
1.1797731
1.1800116
1.1802188
1.1803944
1.1805383
1.1806509
1.1807326
1.1807842
1.1808068
1.1808017
1.1807702
1.180714
1.1806348
1.1805343
1.1804144
1.1802769
1.1801236
1.1799563
1.1797767
1.1795864
1.1793869
1.1791797
1.1789658
1.1787466
1.1785229
1.1782957
1.1780657
1.1778335
1.1775995
1.177364
1.1771273
1.1768894
1.1766504
1.17641
1.1761678
1.1759231
1.175675
1.1754222
1.1751634
1.1748968
1.1746211
1.1743324
1.1740335
1.1736926
1.1734253
1.1727698
1.1730806
1.1707796
1.1739127
1.1642333
1.1693894
1.1677216
1.1694781
1.1690578
1.1701055
1.1701978
1.1709571
1.1712909
1.1719224
1.1723767
1.1729546
1.1734656
1.1740234
1.174557
1.175105
1.1756418
1.1761784
1.176705
1.1772231
1.177728
1.1782183
1.1786906
1.1791428
1.1795722
1.1799764
1.1803532
1.1807005
1.1810166
1.1813
1.1815494
1.1817641
1.1819433
1.1820871
1.1821956
1.1822693
1.182309
1.182316
1.1822915
1.1822373
1.1821552
1.1820471
1.1819152
1.1817615
1.1815884
1.1813978
1.1811921
1.1809731
1.180743
1.1805034
1.1802562
1.180003
1.179745
1.1794837
1.17922
1.178955
1.1786894
1.178424
1.1781592
1.1778955
1.1776329
1.1773716
1.1771116
1.1768528
1.1765949
1.1763374
1.1760795
1.1758202
1.1755581
1.175292
1.1750199
1.1747401
1.1744504
1.174146
1.1738235
1.1735138
1.1729662
1.1731128
1.1710602
1.1740378
1.1661321
1.1713303
1.1696604
1.1714962
1.1710988
1.1722034
1.1723357
1.1731402
1.1735195
1.1741909
1.1746894
1.1753041
1.1758541
1.1764449
1.1770106
1.1775855
1.178146
1.1787011
1.1792414
1.1797674
1.1802744
1.1807603
1.1812217
1.181656
1.1820605
1.1824329
1.1827708
1.1830725
1.1833364
1.1835613
1.1837466
1.1838919
1.1839972
1.1840631
1.1840905
1.1840805
1.1840348
1.1839552
1.1838438
1.1837029
1.1835349
1.1833424
1.1831278
1.1828938
1.182643
1.1823776
1.1821002
1.1818129
1.1815177
1.1812167
1.1809115
1.1806038
1.1802948
1.1799859
1.179678
1.179372
1.1790686
1.1787684
1.1784718
1.1781789
1.17789
1.177605
1.1773237
1.1770459
1.1767713
1.1764993
1.176229
1.1759594
1.1756891
1.1754166
1.1751399
1.1748576
1.1745671
1.1742622
1.173952
1.1736161
1.173161
1.1731632
1.171361
1.1741717
1.1682716
1.1735213
1.1718567
1.1737776
1.1734115
1.1745769
1.1747574
1.1756105
1.176042
1.1767564
1.1773035
1.1779574
1.1785487
1.1791732
1.1797709
1.180371
1.1809525
1.1815216
1.1820698
1.1825964
1.1830965
1.1835677
1.1840063
1.1844097
1.1847751
1.1851003
1.1853832
1.1856225
1.185817
1.1859662
1.1860701
1.1861291
1.1861441
1.1861164
1.1860478
1.1859404
1.1857966
1.185619
1.1854104
1.1851737
1.1849121
1.1846284
1.1843257
1.1840069
1.1836747
1.1833319
1.1829808
1.1826239
1.1822631
1.1819004
1.1815375
1.1811758
1.1808167
1.1804612
1.1801103
1.1797646
1.1794248
1.1790912
1.1787641
1.1784437
1.1781298
1.1778224
1.1775211
1.1772257
1.1769357
1.1766504
1.1763689
1.1760902
1.1758128
1.1755352
1.1752553
1.1749719
1.1746815
1.1743801
1.1740779
1.1737301
1.1733528
1.1732318
1.1716793
1.1743111
1.1706868
1.175982
1.1743294
1.1763414
1.176016
1.1772463
1.1774843
1.1783896
1.1788802
1.1796412
1.1802411
1.1809363
1.1815702
1.182228
1.1828559
1.1834778
1.1840747
1.1846508
1.1851978
1.1857141
1.1861947
1.1866368
1.1870368
1.1873919
1.1876998
1.1879584
1.1881665
1.1883231
1.188428
1.1884816
1.1884848
1.1884389
1.1883461
1.1882086
1.1880291
1.1878108
1.1875569
1.1872708
1.186956
1.1866161
1.1862547
1.185875
1.1854805
1.1850742
1.1846591
1.1842379
1.1838131
1.183387
1.1829615
1.1825384
1.1821194
1.1817057
1.1812985
1.1808987
1.1805069
1.1801238
1.1797498
1.179385
1.1790296
1.1786836
1.1783468
1.1780188
1.1776994
1.1773881
1.1770843
1.1767873
1.1764962
1.1762099
1.1759269
1.1756456
1.1753641
1.175081
1.1747923
1.1744973
1.1742005
1.1738526
1.1735378
1.1733149
1.1720002
1.1744367
1.1733836
1.178725
1.177094
1.179206
1.1789336
1.1802342
1.1805409
1.181503
1.1820605
1.1828715
1.1835278
1.1842656
1.1849417
1.1856305
1.1862839
1.1869209
1.1875243
1.1880961
1.1886283
1.1891186
1.189562
1.1899554
1.1902956
1.1905803
1.1908074
1.1909758
1.1910851
1.1911355
1.1911278
1.1910637
1.1909453
1.1907753
1.1905569
1.1902935
1.1899891
1.1896476
1.1892733
1.1888701
1.1884424
1.1879941
1.187529
1.1870509
1.1865633
1.1860692
1.1855717
1.1850734
1.1845766
1.1840836
1.183596
1.1831155
1.1826434
1.1821809
1.1817287
1.1812877
1.1808583
1.1804409
1.1800356
1.1796425
1.1792617
1.1788927
1.1785355
1.1781894
1.1778541
1.177529
1.1772134
1.1769067
1.1766078
1.1763156
1.1760287
1.1757454
1.175464
1.1751827
1.1748978
1.1746111
1.174319
1.1739807
1.1737138
1.1734076
1.172323
1.1745617
1.1763808
1.1817827
1.1801837
1.1824043
1.1821983
1.1835741
1.1839609
1.184984
1.1856149
1.1864786
1.187193
1.1879724
1.1886874
1.1894013
1.1900715
1.1907121
1.1913076
1.191858
1.1923558
1.1927979
1.1931799
1.1934988
1.1937521
1.1939382
1.1940563
1.1941064
1.1940894
1.1940071
1.1938619
1.1936568
1.1933956
1.1930824
1.1927217
1.1923183
1.1918769
1.1914026
1.1909002
1.1903744
1.1898299
1.1892708
1.1887014
1.1881253
1.1875459
1.1869663
1.1863892
1.1858172
1.1852524
1.1846964
1.1841511
1.1836175
1.1830967
1.1825897
1.1820969
1.1816189
1.1811558
1.1807079
1.1802751
1.1798573
1.1794542
1.1790655
1.1786907
1.1783294
1.1779808
1.1776444
1.1773194
1.177005
1.1767003
1.1764042
1.1761153
1.1758318
1.1755524
1.1752746
1.1749958
1.1747189
1.1744321
1.174112
1.1738824
1.1735093
1.1726401
1.174682
1.1797078
1.1851849
1.1836303
1.1859694
1.1858459
1.1873017
1.1877809
1.1888685
1.1895782
1.1904957
1.1912673
1.1920838
1.19283
1.1935578
1.1942298
1.1948558
1.1954215
1.1959256
1.1963611
1.196725
1.1970136
1.1972248
1.1973574
1.1974112
1.1973871
1.197287
1.1971136
1.1968706
1.1965623
1.1961936
1.1957698
1.1952966
1.1947797
1.1942251
1.1936384
1.1930253
1.1923911
1.191741
1.1910795
1.1904112
1.18974
1.1890693
1.1884025
1.1877423
1.187091
1.1864509
1.1858237
1.1852107
1.1846133
1.1840323
1.1834685
1.1829223
1.182394
1.1818839
1.181392
1.180918
1.1804619
1.1800233
1.1796017
1.1791968
1.1788078
1.1784342
1.1780753
1.1777302
1.1773983
1.1770787
1.1767705
1.1764726
1.1761836
1.175902
1.1756264
1.175354
1.1750835
1.1748173
1.174538
1.1742432
1.1740412
1.1736203
1.17295
1.1747929
1.1833965
1.1889661
1.187472
1.1899396
1.1899173
1.1914574
1.1920433
1.1932
1.1939906
1.1949592
1.1957822
1.1966253
1.1973873
1.1981098
1.1987596
1.1993428
1.1998469
1.2002696
1.2006052
1.2008514
1.2010061
1.2010689
1.2010406
1.2009234
1.2007205
1.2004361
1.2000755
1.1996445
1.1991496
1.1985974
1.1979949
1.1973491
1.196667
1.195955
1.1952196
1.1944667
1.1937019
1.1929301
1.192156
1.1913837
1.1906168
1.1898585
1.1891114
1.188378
1.1876601
1.1869594
1.1862772
1.1856145
1.1849721
1.1843504
1.18375
1.1831708
1.1826129
1.1820763
1.1815606
1.1810656
1.1805907
1.1801356
1.1796996
1.1792822
1.1788825
1.1785
1.1781337
1.1777829
1.1774468
1.1771244
1.176815
1.1765174
1.1762304
1.1759527
1.1756827
1.1754177
1.1751577
1.1749029
1.174634
1.1743684
1.1741827
1.1737363
1.1732488
1.1748858
1.1874921
1.1931719
1.1917573
1.1943604
1.1944593
1.1960867
1.196792
1.1980233
1.1988935
1.1999025
1.2007624
1.2016125
1.2023648
1.2030509
1.2036424
1.2041424
1.2045404
1.2048346
1.2050214
1.2051004
1.2050721
1.2049392
1.2047052
1.2043756
1.2039564
1.203455
1.202879
1.2022367
1.2015364
1.2007867
1.1999957
1.1991714
1.1983212
1.1974522
1.1965709
1.195683
1.1947939
1.1939083
1.1930301
1.192163
1.19131
1.1904737
1.1896561
1.1888591
1.188084
1.1873318
1.1866034
1.1858993
1.1852198
1.1845651
1.1839351
1.1833296
1.1827484
1.1821911
1.1816573
1.1811462
1.1806574
1.1801903
1.179744
1.1793179
1.1789112
1.178523
1.1781525
1.1777989
1.1774613
1.1771388
1.1768305
1.1765354
1.1762525
1.1759806
1.1757179
1.1754623
1.1752146
1.1749719
1.1747171
1.1744834
1.1743062
1.1738554
1.1735336
1.1749567
1.1920436
1.1978502
1.1965466
1.1992966
1.199553
1.2012762
1.202087
1.2033693
1.2043151
1.2053494
1.2062208
1.2070458
1.2077479
1.2083511
1.2088317
1.2091919
1.2094244
1.2095296
1.2095072
1.2093606
1.2090942
1.2087145
1.2082292
1.2076472
1.2069781
1.206232
1.2054193
1.2045501
1.2036344
1.2026817
1.2017009
1.2007004
1.1996875
1.1986692
1.1976514
1.1966393
1.1956377
1.1946503
1.1936806
1.1927313
1.1918047
1.1909025
1.1900262
1.1891769
1.1883553
1.1875618
1.1867969
1.1860604
1.1853523
1.1846724
1.1840203
1.1833955
1.1827974
1.1822254
1.1816788
1.181157
1.1806591
1.1801843
1.1797319
1.179301
1.1788908
1.1785003
1.1781287
1.1777752
1.1774387
1.1771185
1.1768137
1.1765233
1.1762464
1.175982
1.1757283
1.1754841
1.1752499
1.17502
1.1747831
1.1745812
1.1744055
1.1739691
1.1737973
1.1750051
1.1971238
1.2030625
1.2019249
1.2048195
1.2052552
1.2070451
1.2079814
1.2093141
1.2102976
1.2113216
1.2121575
1.2129019
1.2134905
1.2139417
1.2142381
1.2143832
1.214375
1.2142181
1.2139178
1.2134824
1.2129216
1.2122466
1.2114694
1.2106028
1.2096595
1.208652
1.2075925
1.2064924
1.2053624
1.2042123
1.2030507
1.2018855
1.2007236
1.1995709
1.1984324
1.1973124
1.1962145
1.1951416
1.1940961
1.1930798
1.192094
1.1911398
1.1902177
1.1893283
1.1884716
1.1876476
1.186856
1.1860965
1.1853685
1.1846714
1.1840045
1.1833671
1.1827585
1.1821777
1.1816239
1.1810963
1.1805939
1.1801159
1.1796613
1.1792293
1.178819
1.1784294
1.1780596
1.1777088
1.1773761
1.1770605
1.1767613
1.1764776
1.1762086
1.1759532
1.1757101
1.1754786
1.1752589
1.1750428
1.1748272
1.174654
1.1744741
1.1740714
1.1740278
1.1750258
1.2029639
1.2089985
1.208066
1.2110493
1.2116327
1.2134714
1.2145082
1.2158614
1.2168444
1.2177946
1.2185215
1.2191011
1.2194855
1.2196906
1.2197082
1.2195465
1.2192111
1.2187134
1.2180655
1.217282
1.2163782
1.2153703
1.2142742
1.2131055
1.2118792
1.210609
1.2093079
1.2079872
1.2066571
1.2053266
1.2040034
1.2026941
1.2014042
1.2001384
1.1989002
1.1976927
1.1965182
1.1953786
1.1942749
1.1932082
1.1921788
1.191187
1.1902327
1.1893157
1.1884355
1.1875916
1.1867832
1.1860096
1.18527
1.1845634
1.1838889
1.1832456
1.1826324
1.1820483
1.1814925
1.1809638
1.1804612
1.179984
1.179531
1.1791013
1.178694
1.1783082
1.177943
1.1775974
1.1772707
1.176962
1.1766704
1.1763951
1.1761355
1.1758906
1.1756592
1.1754415
1.1752365
1.1750358
1.1748432
1.1746928
1.1745099
1.1741595
1.1742134
1.1750154
1.2095315
1.2155967
1.2148445
1.2178704
1.2187751
1.2207399
1.2217736
1.2230431
1.2239233
1.2246875
1.225188
1.2254829
1.2255424
1.2253852
1.2250145
1.2244469
1.2236977
1.2227864
1.2217328
1.2205576
1.2192813
1.2179234
1.2165024
1.2150351
1.2135369
1.2120213
1.2105001
1.2089835
1.20748
1.2059969
1.20454
1.2031141
1.201723
1.2003695
1.199056
1.1977839
1.1965542
1.1953676
1.1942242
1.193124
1.1920667
1.1910517
1.1900784
1.1891458
1.1882532
1.1873994
1.1865835
1.1858044
1.185061
1.184352
1.1836764
1.1830331
1.1824209
1.1818387
1.1812854
1.1807599
1.1802612
1.1797883
1.1793402
1.178916
1.1785146
1.1781352
1.1777769
1.1774388
1.1771201
1.17682
1.1765377
1.1762725
1.1760237
1.1757903
1.1755717
1.1753683
1.1751783
1.1749942
1.1748247
1.1746955
1.1745216
1.174221
1.1743408
1.1749684
1.2168
1.2228813
1.2225619
1.225822
1.2266952
1.2285567
1.2296007
1.2306724
1.2313325
1.2317761
1.2319053
1.2317724
1.2313696
1.2307252
1.2298578
1.2287948
1.2275622
1.2261875
1.2246969
1.2231154
1.2214659
1.2197693
1.2180438
1.2163054
1.2145675
1.2128416
1.211137
1.2094615
1.2078212
1.2062207
1.2046638
1.2031531
1.2016905
1.2002772
1.1989137
1.1976004
1.196337
1.195123
1.1939578
1.1928405
1.1917701
1.1907454
1.1897652
1.1888283
1.1879333
1.1870791
1.1862641
1.1854871
1.1847468
1.1840419
1.1833711
1.1827332
1.1821268
1.1815509
1.1810043
1.1804859
1.1799945
1.1795292
1.1790889
1.1786728
1.1782797
1.177909
1.1775596
1.1772309
1.1769219
1.1766319
1.1763603
1.1761063
1.1758692
1.1756483
1.1754431
1.1752543
1.1750792
1.174912
1.1747659
1.1746579
1.1744958
1.174234
1.1744056
1.1748948
1.2252106
1.2313723
1.2312948
1.2344321
1.235453
1.2370994
1.2379206
1.2386153
1.2388383
1.2387611
1.2383276
1.2375984
1.2365899
1.2353443
1.2338949
1.2322795
1.230532
1.2286847
1.2267662
1.2248021
1.2228142
1.2208211
1.2188381
1.2168777
1.21495
1.2130629
1.2112224
1.209433
1.2076979
1.2060193
1.2043985
1.202836
1.2013319
1.199886
1.1984974
1.1971652
1.1958882
1.1946652
1.1934946
1.192375
1.1913048
1.1902825
1.1893064
1.188375
1.1874866
1.1866399
1.1858332
1.1850651
1.184334
1.1836387
1.1829777
1.1823498
1.1817535
1.1811878
1.1806514
1.1801432
1.1796621
1.1792071
1.1787771
1.1783713
1.1779886
1.1776283
1.1772896
1.1769715
1.1766735
1.1763948
1.1761347
1.1758927
1.1756681
1.1754601
1.1752687
1.1750942
1.1749333
1.1747828
1.1746579
1.1745654
1.1744172
1.1742099
1.1744001
1.1747705
1.2351069
1.2409093
1.2411249
1.2440036
1.2448303
1.2460076
1.2463333
1.2463851
1.2459255
1.2451119
1.2439357
1.2424709
1.2407577
1.2388504
1.236793
1.234628
1.2323916
1.2301151
1.2278244
1.2255409
1.2232816
1.22106
1.2188863
1.2167682
1.2147113
1.2127192
1.2107945
1.2089383
1.2071513
1.2054331
1.2037829
1.2021998
1.2006822
1.1992286
1.1978371
1.196506
1.1952333
1.194017
1.1928553
1.1917462
1.1906877
1.1896781
1.1887153
1.1877978
1.1869237
1.1860913
1.1852991
1.1845454
1.1838287
1.1831477
1.1825007
1.1818866
1.181304
1.1807517
1.1802284
1.1797331
1.1792647
1.1788221
1.1784045
1.1780108
1.1776401
1.1772917
1.1769648
1.1766586
1.1763725
1.1761057
1.1758578
1.1756282
1.1754162
1.1752212
1.1750436
1.1748829
1.1747359
1.1746019
1.1744954
1.1744137
1.1742824
1.1741305
1.1743195
1.1745806
1.2463023
1.251343
1.251551
1.2538598
1.2542236
1.2546149
1.2541407
1.2532784
1.2519064
1.2501839
1.2481478
1.2458852
1.2434519
1.2409064
1.2382939
1.2356531
1.2330145
1.2304022
1.2278345
1.225325
1.2228835
1.2205169
1.2182294
1.2160237
1.2139006
1.2118603
1.209902
1.2080242
1.2062252
1.2045028
1.2028548
1.2012788
1.1997724
1.1983329
1.196958
1.1956453
1.1943922
1.1931965
1.1920559
1.1909682
1.1899312
1.1889431
1.1880016
1.1871051
1.1862516
1.1854395
1.184667
1.1839326
1.1832346
1.1825718
1.1819425
1.1813455
1.1807795
1.1802433
1.1797357
1.1792556
1.1788019
1.1783736
1.1779699
1.1775898
1.1772324
1.176897
1.1765829
1.1762892
1.1760155
1.1757611
1.1755255
1.1753082
1.1751087
1.1749265
1.1747618
1.1746141
1.1744804
1.1743621
1.1742712
1.174198
1.1740858
1.1739834
1.1741554
1.1743273
1.2574587
1.261986
1.2620586
1.2633822
1.2628739
1.2620711
1.2604529
1.2584259
1.2559827
1.253282
1.2503894
1.2473892
1.2443359
1.2412774
1.2382477
1.2352728
1.232371
1.2295548
1.2268323
1.2242081
1.2216846
1.2192621
1.2169397
1.2147157
1.2125876
1.2105524
1.2086072
1.2067487
1.2049734
1.2032783
1.2016599
1.2001152
1.198641
1.1972343
1.1958923
1.1946123
1.1933916
1.1922277
1.1911182
1.1900608
1.1890534
1.1880937
1.1871799
1.1863101
1.1854824
1.184695
1.1839464
1.183235
1.1825591
1.1819174
1.1813086
1.1807312
1.1801841
1.179666
1.1791758
1.1787125
1.1782749
1.1778623
1.1774736
1.177108
1.1767647
1.1764429
1.176142
1.1758612
1.1756001
1.175358
1.1751344
1.174929
1.1747413
1.1745709
1.1744181
1.1742818
1.1741602
1.1740558
1.1739769
1.1739105
1.1738178
1.1737547
1.1739011
1.1740043
1.2694696
1.2728101
1.2721463
1.271618
1.2696664
1.2672862
1.2643236
1.2610871
1.2576368
1.2540996
1.2505362
1.2470055
1.2435421
1.2401725
1.2369127
1.2337724
1.2307564
1.2278661
1.2251006
1.2224574
1.2199333
1.2175242
1.2152257
1.2130334
1.2109426
1.2089487
1.2070472
1.2052339
1.2035047
1.2018557
1.2002831
1.1987835
1.1973535
1.19599
1.1946899
1.1934504
1.192269
1.1911429
1.1900699
1.1890476
1.1880738
1.1871466
1.1862639
1.1854238
1.1846247
1.1838647
1.1831423
1.182456
1.1818042
1.1811856
1.1805988
1.1800426
1.1795157
1.179017
1.1785454
1.1780999
1.1776795
1.1772832
1.1769103
1.1765599
1.1762311
1.1759233
1.1756358
1.1753681
1.1751194
1.1748894
1.1746776
1.1744835
1.1743067
1.1741472
1.1740048
1.1738786
1.1737675
1.1736746
1.1736047
1.1735439
1.1734695
1.1734358
1.1735527
1.1736057
1.2809782
1.2804525
1.2783323
1.275571
1.2720346
1.2681931
1.2641209
1.2600003
1.2558969
1.2518817
1.2479872
1.2442378
1.2406424
1.2372053
1.2339268
1.2308037
1.2278311
1.225003
1.2223128
1.2197539
1.2173196
1.2150035
1.2127989
1.2106999
1.2087007
1.2067961
1.2049813
1.2032516
1.2016029
1.2000311
1.1985325
1.1971038
1.1957414
1.1944425
1.1932041
1.1920234
1.1908979
1.189825
1.1888025
1.1878281
1.1868999
1.186016
1.1851744
1.1843733
1.1836113
1.1828866
1.1821977
1.1815431
1.1809216
1.1803318
1.1797723
1.1792421
1.17874
1.1782649
1.1778157
1.1773915
1.1769913
1.1766144
1.1762598
1.1759267
1.1756145
1.1753224
1.1750499
1.1747963
1.174561
1.1743437
1.1741438
1.173961
1.173795
1.1736455
1.1735125
1.1733949
1.1732925
1.1732082
1.1731436
1.1730862
1.1730257
1.1730131
1.1731081
1.1731176
1.2848109
1.2815743
1.2779799
1.2737632
1.2692972
1.2647752
1.2603037
1.2559602
1.2517766
1.2477745
1.2439584
1.2403289
1.2368816
1.2336095
1.2305029
1.2275524
1.2247487
1.2220833
1.2195478
1.2171345
1.2148361
1.2126464
1.21056
1.2085714
1.2066753
1.204867
1.203142
1.201496
1.1999253
1.1984262
1.1969954
1.1956297
1.1943262
1.193082
1.1918945
1.1907612
1.1896798
1.1886484
1.1876648
1.1867272
1.1858337
1.1849826
1.184172
1.1834004
1.1826662
1.1819679
1.1813041
1.1806733
1.1800744
1.179506
1.178967
1.1784562
1.1779725
1.1775149
1.1770824
1.1766741
1.176289
1.1759263
1.1755853
1.1752651
1.1749651
1.1746845
1.1744228
1.1741794
1.1739537
1.1737454
1.1735538
1.1733787
1.1732197
1.1730767
1.1729494
1.172837
1.1727396
1.1726591
1.1725955
1.1725411
1.172493
1.1724804
1.1725292
1.172536
1.2739784
1.2708382
1.2678558
1.2638747
1.2598774
1.2558129
1.2518443
1.2479941
1.2442924
1.240747
1.2373598
1.234128
1.2310462
1.2281089
1.2253096
1.2226416
1.2200983
1.2176732
1.2153602
1.2131534
1.2110471
1.2090358
1.2071149
1.2052805
1.2035286
1.2018555
1.2002575
1.1987313
1.1972738
1.1958817
1.1945523
1.1932829
1.1920709
1.1909139
1.1898096
1.1887561
1.1877511
1.1867927
1.1858788
1.1850077
1.1841775
1.1833867
1.1826336
1.1819167
1.1812347
1.1805862
1.1799699
1.1793844
1.1788287
1.1783015
1.1778017
1.1773284
1.1768804
1.1764569
1.1760567
1.1756792
1.1753234
1.1749886
1.1746739
1.1743787
1.1741022
1.1738438
1.173603
1.173379
1.1731716
1.17298
1.172804
1.1726431
1.172497
1.1723654
1.1722481
1.1721446
1.172055
1.17198
1.1719192
1.1718695
1.1718308
1.1718148
1.1718291
1.1718368
1.2342833
1.2437482
1.2449366
1.2453675
1.2441891
1.2424478
1.2402389
1.2378258
1.2352894
1.2327171
1.2301482
1.2276153
1.2251354
1.2227209
1.2203784
1.2181122
1.215924
1.2138144
1.211783
1.2098287
1.2079503
1.2061458
1.2044128
1.202749
1.201152
1.1996196
1.1981497
1.1967402
1.195389
1.1940941
1.1928536
1.1916655
1.1905282
1.1894398
1.1883987
1.1874033
1.1864518
1.1855422
1.1846732
1.1838433
1.1830511
1.1822952
1.1815744
1.1808874
1.180233
1.17961
1.1790173
1.1784537
1.1779182
1.1774099
1.1769276
1.1764704
1.1760374
1.1756277
1.1752405
1.1748748
1.1745299
1.1742051
1.1738995
1.1736126
1.1733436
1.1730919
1.1728569
1.1726381
1.1724348
1.1722467
1.1720732
1.1719139
1.1717686
1.1716368
1.1715182
1.1714126
1.1713198
1.1712399
1.1711724
1.1711168
1.1710733
1.1710438
1.1710298
1.1710277
1.2458795
1.2460712
1.2463037
1.2463688
1.2457045
1.2441613
1.2416966
1.2385192
1.234851
1.2308413
1.2268208
1.2227166
1.2186882
1.2147229
1.2109118
1.2073894
1.2041307
1.2012204
1.198623
1.1963043
1.1942773
1.1924738
1.1909047
1.1895199
1.1883143
1.1872317
1.1862516
1.1853449
1.1845319
1.1838412
1.1832221
1.1826468
1.1821119
1.1816096
1.181135
1.1806838
1.1802537
1.1798431
1.179451
1.179076
1.1787177
1.178376
1.1780498
1.1777393
1.1774441
1.1771636
1.1768974
1.1766449
1.1764055
1.1761788
1.1759639
1.1757607
1.1755678
1.1753856
1.1752113
1.1750474
1.174888
1.1747402
1.1745901
1.1744571
1.1743086
1.1741919
1.1740325
1.1739399
1.1737479
1.1736985
1.1734359
1.1734692
1.1730766
1.1732637
1.1726036
1.1730929
1.1720001
1.1729917
1.1711851
1.1730002
1.1700344
1.1731641
1.1683731
1.1736407
1.1027917
1.1074001
1.1140198
1.1215428
1.1297721
1.1380296
1.1449172
1.1505619
1.1555046
1.1597945
1.163453
1.1666352
1.1693985
1.1717951
1.1738856
1.1756708
1.1772321
1.1785098
1.1795899
1.1804254
1.1811156
1.1816013
1.1819694
1.182169
1.1822691
1.1822521
1.1821724
1.1820184
1.1818154
1.1815788
1.1813097
1.1810152
1.1806954
1.1803626
1.1800249
1.1796872
1.1793536
1.179027
1.1787095
1.1784019
1.178105
1.1778195
1.1775453
1.1772826
1.1770313
1.1767914
1.1765626
1.1763446
1.1761371
1.1759397
1.1757518
1.1755734
1.1754033
1.1752419
1.1750868
1.1749403
1.1747967
1.1746632
1.1745265
1.1744047
1.1742679
1.174159
1.1740109
1.1739217
1.1737428
1.1736906
1.1734454
1.1734665
1.1730999
1.1732651
1.1726509
1.1730937
1.1720598
1.1729964
1.1712442
1.1730131
1.1700708
1.1732088
1.1683793
1.1737073
1.2038565
1.204447
1.2065032
1.209195
1.2103143
1.2097005
1.2084386
1.206894
1.2051951
1.2034545
1.2017111
1.2000105
1.1983587
1.1967802
1.1952755
1.1938486
1.1925136
1.1912881
1.1901968
1.1891826
1.1882217
1.1873494
1.1865031
1.1857586
1.18508
1.1844591
1.1839354
1.1834334
1.1829932
1.1824382
1.1819226
1.1814451
1.1809959
1.1805737
1.1801744
1.1797954
1.1794344
1.1790897
1.1787603
1.1784442
1.1781421
1.1778532
1.1775767
1.177313
1.1770614
1.1768218
1.1765937
1.1763768
1.1761708
1.1759752
1.1757893
1.1756132
1.1754453
1.1752862
1.1751333
1.174989
1.1748474
1.1747156
1.1745805
1.1744597
1.174324
1.1742152
1.1740681
1.1739771
1.1737999
1.1737427
1.1735009
1.1735141
1.1731495
1.1733019
1.1727039
1.1731165
1.1721199
1.1730034
1.1713054
1.1730071
1.1701308
1.173204
1.1684225
1.1737175
1.1661971
1.1660984
1.1683126
1.1732693
1.1769425
1.1780563
1.178597
1.1790393
1.1794459
1.1799441
1.1804128
1.1808721
1.1812884
1.1816771
1.1819138
1.1822787
1.1822851
1.1826401
1.1825496
1.182787
1.182617
1.182752
1.1825547
1.1825468
1.1823121
1.1821405
1.1818071
1.1815774
1.1812939
1.1810078
1.1807117
1.1804117
1.1801087
1.1798047
1.1795021
1.1792028
1.1789084
1.1786203
1.1783391
1.1780662
1.1778024
1.1775481
1.1773034
1.1770684
1.1768432
1.1766279
1.1764222
1.1762262
1.1760394
1.1758617
1.1756924
1.1755315
1.1753778
1.1752318
1.1750908
1.1749575
1.1748259
1.1747032
1.1745762
1.1744629
1.1743334
1.1742307
1.1740878
1.174002
1.173827
1.1737745
1.1735331
1.1735508
1.1731851
1.1733415
1.1727376
1.1731576
1.1721463
1.1730436
1.1713338
1.1730479
1.1701543
1.1732373
1.1684417
1.1737454
1.1737299
1.1752107
1.1787174
1.1833819
1.1853369
1.1857896
1.1856225
1.1855039
1.1853801
1.1852777
1.1851318
1.1849993
1.1848338
1.1846759
1.184495
1.184304
1.1841081
1.1838794
1.183659
1.1833808
1.1831516
1.1828152
1.1825514
1.1822157
1.1819315
1.1816167
1.1813464
1.1810364
1.1807408
1.1804466
1.1801554
1.1798681
1.1795853
1.1793074
1.1790349
1.1787679
1.1785068
1.1782521
1.1780035
1.1777618
1.1775277
1.1773012
1.1770825
1.1768719
1.1766694
1.1764753
1.1762893
1.1761117
1.1759419
1.17578
1.1756254
1.1754782
1.1753369
1.1752024
1.1750721
1.1749483
1.1748254
1.1747104
1.1745904
1.1744829
1.1743589
1.1742602
1.1741215
1.1740379
1.1738662
1.1738137
1.1735755
1.1735911
1.1732287
1.1733788
1.1727837
1.1731913
1.1721952
1.1730722
1.1713783
1.1730691
1.1701949
1.1732573
1.1684703
1.1737642
1.1674367
1.168835
1.1725997
1.1773801
1.1798963
1.1804679
1.1803797
1.1804607
1.1805141
1.1805995
1.1806171
1.1806538
1.1806557
1.1806699
1.1806562
1.1806469
1.1806156
1.1805854
1.1805349
1.1804875
1.180413
1.1803518
1.1802589
1.1801681
1.1800507
1.1799266
1.1797788
1.1796272
1.1794625
1.1792892
1.1791075
1.1789195
1.1787262
1.178529
1.1783292
1.1781281
1.1779267
1.1777264
1.1775276
1.1773318
1.1771399
1.1769524
1.1767698
1.1765926
1.1764211
1.1762556
1.1760963
1.1759432
1.1757963
1.1756554
1.1755202
1.1753908
1.175266
1.1751464
1.1750297
1.1749182
1.1748065
1.1747014
1.1745903
1.1744904
1.1743735
1.1742801
1.174147
1.1740666
1.1738993
1.1738478
1.1736135
1.1736276
1.1732694
1.1734154
1.1728227
1.1732255
1.1722318
1.1731027
1.1714161
1.1730963
1.170228
1.173279
1.1684958
1.1737825
1.1665972
1.1683389
1.1725345
1.1771692
1.1791293
1.1795137
1.1794618
1.1794866
1.1794594
1.1794941
1.1794771
1.1795048
1.179489
1.1795006
1.1794828
1.1794715
1.1794381
1.1794088
1.1793639
1.1793148
1.1792559
1.1791866
1.1791104
1.1790243
1.1789318
1.178831
1.1787247
1.1786098
1.1784886
1.1783611
1.1782277
1.1780895
1.177947
1.1778008
1.1776517
1.1775005
1.1773478
1.1771946
1.1770408
1.1768881
1.1767372
1.1765883
1.1764422
1.1762992
1.1761597
1.1760242
1.1758928
1.1757657
1.1756428
1.1755243
1.1754097
1.1752992
1.1751918
1.1750881
1.1749858
1.1748873
1.1747875
1.1746926
1.174591
1.1744988
1.1743893
1.1743012
1.1741739
1.1740964
1.1739339
1.1738827
1.1736532
1.1736644
1.1733116
1.173451
1.1728666
1.1732585
1.1722775
1.1731313
1.1714578
1.1731199
1.1702649
1.1732984
1.1685226
1.1737985
1.1641561
1.1661633
1.1707441
1.1752622