/*--------------------------------*- C++ -*----------------------------------*\
  =========                 |
  \\      /  F ield         | OpenFOAM: The Open Source CFD Toolbox
   \\    /   O peration     | Website:  https://openfoam.org
    \\  /    A nd           | Version:  6
     \\/     M anipulation  |
\*---------------------------------------------------------------------------*/
FoamFile
{
    version     2.0;
    format      ascii;
    class       volScalarField;
    location    "800";
    object      T;
}
// * * * * * * * * * * * * * * * * * * * * * * * * * * * * * * * * * * * * * //

dimensions      [0 0 0 1 0 0 0];

internalField   nonuniform List<scalar> 
16000
(
297.76051
296.61693
297.02496
296.86669
297.00819
296.97979
297.04851
297.05996
297.10598
297.13193
297.17079
297.20299
297.24011
297.2754
297.31274
297.34988
297.38804
297.42648
297.46551
297.50489
297.54463
297.5846
297.62474
297.66494
297.70509
297.74509
297.78481
297.82413
297.86291
297.90103
297.93835
297.97473
298.01004
298.04413
298.07688
298.10817
298.13786
298.16586
298.19204
298.21633
298.23864
298.2589
298.27705
298.29305
298.30685
298.31846
298.32784
298.33502
298.34
298.34281
298.34348
298.34207
298.33863
298.33322
298.32592
298.31678
298.30588
298.29332
298.27917
298.26356
298.24656
298.22829
298.20881
298.18836
298.16687
298.14493
298.12194
298.09962
298.07539
298.05459
298.02802
298.01299
297.97968
297.98097
297.92733
297.9747
297.87537
298.0167
297.83953
298.07048
297.78482
296.65182
297.07689
296.91568
297.06238
297.03407
297.10583
297.11901
297.16732
297.1955
297.23646
297.27101
297.31023
297.34783
297.38729
297.42666
297.46692
297.50746
297.5485
297.58982
297.6314
297.6731
297.71484
297.75649
297.79793
297.83904
297.87967
297.91969
297.95896
297.99732
298.03463
298.07076
298.10554
298.13886
298.17057
298.20055
298.22869
298.25488
298.27904
298.30109
298.32097
298.33861
298.354
298.3671
298.37791
298.38644
298.3927
298.39672
298.39855
298.39823
298.39581
298.39137
298.38497
298.37671
298.36665
298.35489
298.34148
298.32653
298.31013
298.2924
298.27341
298.25327
298.23206
298.20995
298.18698
298.16347
298.13931
298.11531
298.09052
298.06736
298.04188
298.02226
297.99391
297.98467
297.94356
297.96934
297.89477
298.00353
297.86096
298.04792
297.83047
296.71292
297.14758
296.9849
297.13579
297.10929
297.18348
297.19932
297.24975
297.2807
297.32384
297.36106
297.40257
297.4427
297.48448
297.52624
297.56874
297.6115
297.65462
297.69793
297.74134
297.78474
297.82799
297.87097
297.91352
297.95551
297.99678
298.03716
298.07652
298.11468
298.15149
298.1868
298.22047
298.25235
298.28233
298.31028
298.3361
298.35971
298.38103
298.40001
298.4166
298.43079
298.44257
298.45194
298.45893
298.46358
298.46592
298.46603
298.46397
298.45981
298.45363
298.44552
298.43557
298.42388
298.41054
298.39565
298.37929
298.36154
298.34252
298.32233
298.30105
298.27879
298.25563
298.23168
298.20705
298.18194
298.15644
298.13093
298.10521
298.08035
298.05481
298.03246
298.00631
297.99138
297.95731
297.96907
297.91159
297.99639
297.87853
298.04583
297.89609
296.79889
297.23758
297.07462
297.22938
297.20527
297.2819
297.30077
297.3535
297.38746
297.433
297.47308
297.51707
297.55988
297.60411
297.64834
297.69317
297.73817
297.78338
297.82862
297.8738
297.91875
297.96333
298.00739
298.05077
298.09329
298.13478
298.17508
298.21401
298.25141
298.28711
298.32095
298.3528
298.38252
298.41
298.43514
298.45784
298.47805
298.49571
298.5108
298.52332
298.53327
298.54067
298.54557
298.54803
298.54812
298.54591
298.5415
298.53497
298.52644
298.51601
298.50378
298.48986
298.47435
298.45738
298.43904
298.41942
298.39861
298.37672
298.35385
298.33009
298.30552
298.28024
298.25433
298.22791
298.20113
298.17411
298.14714
298.12023
298.09395
298.06777
298.04353
298.01807
297.99931
297.97003
297.9711
297.9257
297.99268
297.89386
298.04313
297.98132
296.91151
297.34748
297.18566
297.34377
297.32304
297.40199
297.42453
297.47966
297.51706
297.5652
297.60844
297.65512
297.70082
297.74768
297.79453
297.84177
297.88906
297.93637
297.9835
298.03032
298.07666
298.12235
298.1672
298.21104
298.25366
298.2949
298.33454
298.37243
298.40838
298.44222
298.47382
298.50302
298.52971
298.5538
298.5752
298.59385
298.60973
298.62281
298.6331
298.64064
298.64548
298.64767
298.64729
298.64446
298.63926
298.63182
298.62225
298.61068
298.59724
298.58205
298.56524
298.54693
298.52723
298.50628
298.48418
298.46103
298.43691
298.41193
298.38619
298.35977
298.33276
298.30523
298.27726
298.24896
298.22045
298.19188
298.16344
298.13528
298.1077
298.08066
298.05503
298.02959
298.00834
297.98196
297.9755
297.93878
297.99131
297.90805
298.04577
298.08764
297.04841
297.47864
297.31948
297.48038
297.46398
297.54518
297.57192
297.62963
297.67081
297.72178
297.7684
297.81799
297.86673
297.91636
297.9659
298.01561
298.06517
298.11449
298.16337
298.21164
298.25909
298.30553
298.35076
298.39455
298.43671
298.47703
298.51532
298.55137
298.58503
298.61613
298.64453
298.67011
298.69277
298.71244
298.72908
298.74267
298.7532
298.76071
298.76525
298.7669
298.76574
298.76189
298.75547
298.74662
298.73548
298.72219
298.70692
298.6898
298.671
298.65065
298.62889
298.60587
298.58171
298.55653
298.53046
298.50358
298.47599
298.44778
298.41905
298.38987
298.36032
298.33048
298.3004
298.27017
298.23991
298.20974
298.17985
298.15039
298.12161
298.09359
298.06681
298.04097
298.01795
297.99344
297.98214
297.9512
297.9918
297.9208
298.0506
298.21692
297.20047
297.63247
297.47754
297.64065
297.6295
297.71287
297.74434
297.80481
297.85009
297.90414
297.95438
298.00708
298.05902
298.11153
298.16381
298.21598
298.26774
298.31893
298.36934
298.41874
298.46692
298.51364
298.55866
298.60176
298.64271
298.6813
298.71732
298.75058
298.78093
298.8082
298.83229
298.85311
298.87058
298.88469
298.89543
298.90282
298.90692
298.90781
298.9056
298.90041
298.89238
298.88167
298.86846
298.85291
298.8352
298.81552
298.79405
298.77095
298.7464
298.72057
298.69359
298.66562
298.63679
298.60722
298.57703
298.54631
298.51515
298.48364
298.45185
298.41987
298.38775
298.35557
298.32336
298.29121
298.25921
298.22746
298.19615
298.16542
298.13548
298.10649
298.07874
298.05236
298.02809
298.00437
297.98915
297.96346
297.99381
297.93326
298.05682
298.37005
297.37476
297.80922
297.66027
297.82517
297.82027
297.90593
297.94272
298.00628
298.05604
298.11351
298.16763
298.22368
298.27896
298.33446
298.38951
298.44408
298.49788
298.5507
298.60229
298.65238
298.70073
298.74706
298.79111
298.83265
298.87143
298.90724
298.93987
298.96915
298.99493
299.0171
299.03558
299.05032
299.06131
299.06857
299.07215
299.07215
299.06867
299.06187
299.0519
299.03895
299.02321
299.00489
298.98419
298.96134
298.93655
298.91003
298.88197
298.85257
298.82202
298.79048
298.75811
298.72505
298.69145
298.65741
298.62305
298.58847
298.55373
298.51891
298.48408
298.44931
298.41466
298.38017
298.34588
298.31184
298.27814
298.24488
298.21219
298.18025
298.14923
298.1193
298.09071
298.0637
298.03859
298.0154
297.99752
297.97555
297.99688
297.94558
298.06291
298.5473
297.57396
298.00978
297.86868
298.03509
298.03755
298.12574
298.16849
298.23556
298.29022
298.35149
298.40976
298.4694
298.52816
298.5867
298.64444
298.70125
298.75681
298.81085
298.86308
298.91321
298.96093
299.00596
299.04802
299.08686
299.12224
299.15393
299.18178
299.20563
299.22537
299.24094
299.25231
299.25949
299.26255
299.26157
299.25668
299.24804
299.23583
299.22027
299.20158
299.18
299.15578
299.12917
299.10043
299.06979
299.03751
299.00381
298.9689
298.93301
298.8963
298.85896
298.82114
298.78298
298.7446
298.70613
298.66764
298.62924
298.59099
298.55294
298.51516
298.47769
298.44058
298.40387
298.36758
298.33175
298.29645
298.26175
298.22778
298.1947
298.16268
298.1319
298.10257
298.07496
298.04926
298.02622
298.00653
297.98755
298.00082
297.95773
298.0702
298.7485
297.79975
298.23577
298.10451
298.27221
298.28314
298.37422
298.42354
298.49461
298.55457
298.62001
298.68267
298.74609
298.80834
298.86987
298.93009
298.98879
299.04562
299.10024
299.15232
299.20152
299.24752
299.29002
299.32873
299.3634
299.39379
299.41974
299.44111
299.4578
299.46976
299.47701
299.47959
299.4776
299.47118
299.46051
299.4458
299.42728
299.40523
299.37991
299.35162
299.32066
299.28732
299.2519
299.21467
299.17592
299.13589
299.09484
299.05299
299.01054
298.96767
298.92457
298.88136
298.83819
298.79516
298.75237
298.70991
298.66785
298.62623
298.5851
298.54451
298.50449
298.46507
298.42628
298.38812
298.35063
298.31385
298.27784
298.2427
298.2086
298.17569
298.14415
298.11419
298.08604
298.05996
298.03688
298.01609
297.99933
298.00547
297.9697
298.07632
298.97048
298.05394
298.48902
298.36964
298.53858
298.55909
298.65352
298.71003
298.78565
298.85128
298.92126
298.98847
299.05574
299.1214
299.18565
299.24793
299.30791
299.36521
299.41943
299.47019
299.51714
299.55993
299.59825
299.63183
299.66044
299.68391
299.70212
299.71498
299.7225
299.72472
299.72174
299.71371
299.70083
299.68335
299.66153
299.63569
299.60614
299.57323
299.5373
299.4987
299.45778
299.41486
299.37028
299.32434
299.27732
299.22949
299.18109
299.13234
299.08345
299.03457
298.98587
298.93748
298.88951
298.84206
298.79519
298.74898
298.70349
298.65873
298.61475
298.57156
298.5292
298.48767
298.44698
298.40714
298.36816
298.33006
298.29289
298.25675
298.22175
298.18808
298.1559
298.12542
298.09683
298.07051
298.04724
298.02592
298.01075
298.01056
297.98163
298.08275
299.21664
298.3384
298.77153
298.66621
298.83649
298.86775
298.96618
299.0305
299.11124
299.1829
299.25769
299.32949
299.40051
299.46923
299.53568
299.59924
299.65952
299.71606
299.76844
299.81624
299.85909
299.89665
299.92865
299.95484
299.97507
299.98925
299.99733
299.99937
299.99546
299.98577
299.97052
299.95
299.92452
299.89444
299.86012
299.82198
299.78042
299.73584
299.68866
299.63927
299.58804
299.53533
299.48149
299.42681
299.3716
299.3161
299.26055
299.20515
299.15009
299.0955
299.04153
298.98828
298.93584
298.88429
298.83367
298.78404
298.73542
298.68784
298.64129
298.59578
298.55133
298.50793
298.46558
298.42428
298.38401
298.3448
298.30666
298.26967
298.23395
298.19966
298.16698
298.1361
298.10718
298.08072
298.05719
298.03574
298.02169
298.01585
297.99248
298.08777
299.49169
298.6558
299.08598
298.99707
299.16898
299.21214
299.31531
299.38801
299.47443
299.55232
299.63202
299.70821
299.78256
299.85364
299.92131
299.98489
300.04393
300.09791
300.14639
300.18894
300.22522
300.25494
300.27788
300.29389
300.30294
300.30504
300.30032
300.28894
300.27117
300.24733
300.21778
300.18295
300.14328
300.09923
300.05129
299.99994
299.94565
299.8889
299.83012
299.76974
299.70815
299.64571
299.58277
299.51961
299.45651
299.3937
299.33139
299.26976
299.20896
299.14911
299.09031
299.03265
298.97618
298.92096
298.86701
298.81435
298.76299
298.71293
298.66415
298.61665
298.57042
298.52544
298.48171
298.43919
298.39788
298.35777
298.31887
298.28125
298.24498
298.21024
298.1772
298.14604
298.11694
298.09042
298.06663
298.04532
298.03198
298.02152
298.00281
298.09193
299.79794
299.00952
299.43577
299.36568
299.53966
299.59581
299.70458
299.78611
299.87858
299.9627
300.0471
300.12707
300.20385
300.276
300.34327
300.4049
300.46041
300.50925
300.55098
300.58524
300.61174
300.6303
300.64084
300.64336
300.63798
300.62492
300.60446
300.57698
300.54291
300.50275
300.45703
300.40629
300.35112
300.29208
300.22974
300.16464
300.0973
300.02823
299.95789
299.88668
299.81501
299.74322
299.67162
299.60048
299.53003
299.46048
299.392
299.32473
299.25878
299.19424
299.13118
299.06965
299.00969
298.9513
298.89449
298.83927
298.7856
298.73348
298.68287
298.63374
298.58607
298.53984
298.495
298.45155
298.40946
298.3687
298.32928
298.29123
298.25463
298.21961
298.18637
298.15506
298.12593
298.09941
298.07543
298.05446
298.04113
298.02703
298.01234
298.09499
300.13819
299.40328
299.8247
299.77595
299.95261
300.02278
300.1381
300.22873
300.32735
300.41726
300.50562
300.58814
300.66568
300.73681
300.80114
300.8579
300.9066
300.94673
300.97793
300.99995
301.01267
301.01608
301.01031
300.99558
300.97226
300.94078
300.90165
300.85548
300.8029
300.74456
300.68115
300.61336
300.54185
300.46727
300.39024
300.31134
300.2311
300.15002
300.06854
299.98706
299.90594
299.82548
299.74594
299.66757
299.59053
299.515
299.44109
299.36891
299.29853
299.22999
299.16333
299.09857
299.0357
298.97471
298.91559
298.8583
298.8028
298.74906
298.69703
298.64667
298.59793
298.55078
298.50518
298.46109
298.41848
298.37734
298.33764
298.29939
298.26266
298.22757
298.19429
298.16298
298.13394
298.10749
298.08342
298.06298
298.04941
298.03253
298.02158
298.09642
300.51568
299.84179
300.25754
300.23263
300.41279
300.49781
300.62063
300.72
300.82437
300.91893
301.00966
301.09251
301.16807
301.23489
301.29254
301.34027
301.37768
301.40439
301.42023
301.42518
301.41936
301.40306
301.37669
301.34078
301.29597
301.24296
301.18254
301.1155
301.04267
300.96487
300.88289
300.79751
300.70946
300.61942
300.52801
300.4358
300.34331
300.25099
300.15924
300.06841
299.97879
299.89063
299.80415
299.7195
299.63682
299.55622
299.47778
299.40153
299.32751
299.25574
299.1862
299.11888
299.05375
298.99077
298.9299
298.87107
298.81425
298.75936
298.70635
298.65515
298.60572
298.55801
298.51197
298.46755
298.42472
298.38345
298.34371
298.30552
298.26889
298.23392
298.20077
298.16961
298.14078
298.11446
298.09043
298.07052
298.05644
298.03801
298.03007
298.09584
300.93359
300.33091
300.74031
300.74177
300.92644
301.02684
301.15822
301.26378
301.37267
301.46971
301.55991
301.63951
301.70882
301.76649
301.81213
301.84519
301.86545
301.87283
301.8675
301.84977
301.82017
301.77934
301.72807
301.66724
301.5978
301.52073
301.43705
301.34773
301.25375
301.15602
301.05541
300.95272
300.84868
300.74394
300.6391
300.53466
300.43109
300.32875
300.22798
300.12904
300.03216
299.93752
299.84525
299.75545
299.66821
299.58357
299.50155
299.42215
299.34536
299.27116
299.19949
299.13033
299.0636
298.99924
298.93719
298.87738
298.81973
298.76416
298.7106
298.65899
298.60925
298.56133
298.51518
298.47074
298.42797
298.38684
298.34732
298.3094
298.2731
298.23847
298.20563
298.17478
298.14625
298.12012
298.09634
298.0769
298.0619
298.04301
298.03752
298.09345
301.39408
300.87906
301.28088
301.31105
301.50014
301.6154
301.7511
301.864
301.97437
302.07003
302.15485
302.22553
302.28223
302.32389
302.35036
302.36144
302.35735
302.33847
302.30546
302.25913
302.20048
302.13061
302.05071
301.962
301.86572
301.76308
301.65526
301.54335
301.42838
301.31131
301.19297
301.07412
300.95543
300.83748
300.72076
300.6057
300.49264
300.38187
300.27363
300.16809
300.06539
299.96563
299.86888
299.77516
299.68451
299.5969
299.5123
299.43069
299.35201
299.27619
299.20317
299.13286
299.06519
299.00007
298.93742
298.87714
298.81915
298.76336
298.70969
298.65806
298.60839
298.56062
298.51467
298.47051
298.42808
298.38735
298.34829
298.31088
298.27511
298.24103
298.2087
298.17832
298.15017
298.12429
298.10093
298.0819
298.06575
298.04714
298.04346
298.08955
301.91121
301.50032
301.88869
301.95006
302.13949
302.26688
302.40812
302.52291
302.6291
302.71674
302.78851
302.84184
302.87704
302.89359
302.89186
302.87229
302.83573
302.78324
302.71609
302.63569
302.54355
302.44121
302.33022
302.21207
302.08821
301.95995
301.82853
301.69505
301.56051
301.42576
301.29156
301.15855
301.02727
300.89818
300.77164
300.64796
300.52735
300.41
300.29604
300.18555
300.07858
299.97515
299.87526
299.77889
299.68598
299.59648
299.51032
299.42742
299.3477
299.27106
299.1974
299.12664
299.05865
298.99336
298.93064
298.8704
298.81255
298.75698
298.70361
298.65234
298.60309
298.55579
298.51038
298.46679
298.42497
298.38488
298.3465
298.3098
298.27477
298.24144
298.20982
298.18008
298.15243
298.12687
298.10398
298.08523
298.06818
298.05043
298.04794
298.08393
302.49154
302.19447
302.56453
302.65256
302.84217
302.99155
303.12885
303.23773
303.33057
303.39962
303.44729
303.47183
303.47419
303.45469
303.41457
303.35516
303.27816
303.18539
303.07881
302.9604
302.8321
302.6958
302.55325
302.40607
302.25573
302.10353
301.95061
301.79796
301.64641
301.49666
301.34931
301.20481
301.06356
300.92583
300.79185
300.66179
300.53574
300.41378
300.29592
300.18217
300.0725
299.96684
299.86514
299.76732
299.67328
299.58293
299.49615
299.41284
299.33289
299.25617
299.18257
299.11197
299.04427
298.97933
298.91706
298.85733
298.80005
298.74511
298.69241
298.64186
298.59337
298.54686
298.50226
298.45951
298.41856
298.37935
298.34186
298.30607
298.27197
298.23955
298.20884
298.17994
298.15295
298.12785
298.10538
298.08676
298.06944
298.053
298.05041
298.07666
303.14282
302.96357
303.30793
303.4437
303.65026
303.78046
303.90512
303.99527
304.06155
304.09787
304.10722
304.08917
304.04579
303.97868
303.89023
303.78283
303.65909
303.52157
303.37278
303.21509
303.05068
302.88154
302.7094
302.53581
302.36207
302.18928
302.01837
301.8501
301.68506
301.52374
301.36651
301.21362
301.06529
300.92164
300.78273
300.64861
300.51925
300.39462
300.27466
300.15928
300.04839
299.94187
299.83961
299.74148
299.64735
299.55709
299.47056
299.38764
299.30819
299.23206
299.15914
299.0893
299.0224
298.95832
298.89695
298.83816
298.78185
298.72791
298.67623
298.62672
298.57929
298.53386
298.49034
298.44869
298.40883
298.37072
298.33433
298.29963
298.26661
298.23527
298.20562
298.17774
298.15162
298.12722
298.10533
298.08682
298.06904
298.05303
298.05156
298.06856
303.87372
303.83144
304.18569
304.32404
304.50656
304.62241
304.71916
304.7723
304.79376
304.77929
304.73351
304.65787
304.55605
304.43118
304.28685
304.12642
303.95318
303.77016
303.58008
303.38537
303.18812
302.9901
302.79282
302.59748
302.40508
302.21641
302.03206
301.8525
301.67805
301.50895
301.34535
301.18731
301.03485
300.88797
300.74658
300.61062
300.47997
300.3545
300.23409
300.11858
300.00783
299.90168
299.79997
299.70255
299.60925
299.51994
299.43444
299.35261
299.27431
299.19938
299.12769
299.0591
298.99348
298.9307
298.87063
298.81316
298.75817
298.70556
298.65521
298.60703
298.56094
298.51684
298.47466
298.43433
298.39579
298.35899
298.32388
298.29044
298.25866
298.22852
298.20006
298.17332
298.14824
298.12481
298.10377
298.08539
298.06698
298.05102
298.05114
298.05993
304.70738
304.82264
305.13229
305.26657
305.41776
305.49261
305.5354
305.52754
305.48143
305.39647
305.27914
305.13325
304.96402
304.7759
304.57332
304.36014
304.13982
303.91533
303.68915
303.46334
303.23955
303.01911
302.80303
302.59209
302.38685
302.18772
301.99495
301.8087
301.62904
301.45596
301.28941
301.1293
300.97551
300.82788
300.68626
300.55047
300.42032
300.29564
300.17624
300.06191
299.95249
299.84777
299.74759
299.65176
299.56011
299.47246
299.38866
299.30854
299.23195
299.15874
299.08876
299.02187
298.95793
298.89683
298.83842
298.7826
298.72925
298.67825
298.62951
298.58293
298.53842
298.49589
298.45526
298.41646
298.37944
298.34413
298.31049
298.27848
298.24809
298.2193
298.19214
298.16662
298.14267
298.12037
298.10036
298.08245
298.06426
298.04876
298.04799
298.05026
305.64015
305.88779
306.14151
306.24115
306.32645
306.33014
306.28996
306.19558
306.06105
305.88986
305.69048
305.46869
305.23069
304.98148
304.72552
304.46639
304.20704
303.9498
303.69646
303.44837
303.20653
302.97164
302.74416
302.52437
302.31243
302.10837
301.91213
301.72362
301.54268
301.36913
301.20276
301.04336
300.89068
300.74451
300.6046
300.47071
300.34263
300.22013
300.10297
299.99096
299.88387
299.78151
299.68368
299.59019
299.50085
299.41551
299.33397
299.25609
299.18169
299.11064
299.04278
298.97797
298.91609
298.85699
298.80056
298.74668
298.69524
298.64613
298.59925
298.55449
298.51178
298.47102
298.43215
298.39508
298.35976
298.32612
298.29412
298.26372
298.23488
298.20759
298.18187
298.15769
298.135
298.11392
298.09496
298.07764
298.0601
298.04546
298.04328
298.04056
306.64299
306.98257
307.14885
307.17436
307.15575
307.0531
306.90103
306.69896
306.4627
306.19935
305.91825
305.62582
305.32787
305.0287
304.73173
304.43947
304.15376
303.87587
303.60667
303.34666
303.09613
302.85517
302.62374
302.40172
302.18889
301.98501
301.78981
301.60298
301.42423
301.25325
301.08973
300.93338
300.78391
300.64102
300.50445
300.37392
300.24919
300.13001
300.01614
299.90735
299.80343
299.70417
299.60937
299.51884
299.4324
299.34987
299.27108
299.19586
299.12407
299.05556
298.99017
298.92778
298.86825
298.81145
298.75727
298.70559
298.6563
298.6093
298.56449
298.52177
298.48106
298.44227
298.40533
298.37017
298.33671
298.30491
298.27472
298.24608
298.21895
298.19333
298.1692
298.14652
298.12524
298.10553
298.08771
298.07118
298.05471
298.04135
298.03743
298.0308
307.87975
308.03285
308.05926
307.95644
307.78923
307.54979
307.26882
306.95441
306.62147
306.27797
305.93158
305.58726
305.24883
304.91877
304.59879
304.28989
303.99265
303.70726
303.43371
303.17181
302.92129
302.68178
302.45291
302.23424
302.02536
301.82585
301.63528
301.45328
301.27943
301.11339
300.95479
300.80331
300.65862
300.52042
300.38842
300.26234
300.14194
300.02696
299.91715
299.8123
299.71219
299.61662
299.52539
299.43831
299.35521
299.27591
299.20025
299.12807
299.05922
298.99356
298.93095
298.87125
298.81435
298.76011
298.70842
298.65918
298.61227
298.5676
298.52507
298.48458
298.44606
298.40942
298.3746
298.34151
298.3101
298.28031
298.25208
298.22537
298.20014
298.17635
298.15399
298.133
298.11336
298.0952
298.07869
298.06322
298.04811
298.03606
298.03079
298.02206
308.73953
308.8053
308.63832
308.36959
308.04238
307.67279
307.28336
306.88474
306.4871
306.09596
305.7155
305.34798
304.99472
304.65636
304.33298
304.02434
303.73002
303.44948
303.18214
302.92739
302.68462
302.45324
302.23265
302.0223
301.82165
301.63021
301.44753
301.27316
301.10671
300.9478
300.79607
300.65119
300.51283
300.3807
300.25453
300.13404
300.01898
299.90912
299.80423
299.70409
299.6085
299.51727
299.43021
299.34715
299.2679
299.19232
299.12025
299.05153
298.98603
298.92361
298.86413
298.80748
298.75352
298.70215
298.65326
298.60673
298.56248
298.5204
298.4804
298.44239
298.40629
298.37204
298.33954
298.30875
298.27958
298.252
298.22593
298.20134
298.17818
298.15643
298.13605
298.11698
298.0992
298.08285
298.06793
298.05389
298.04052
298.03013
298.02431
298.01339
308.96786
308.88889
308.55968
308.16078
307.73436
307.29863
306.86653
306.44498
306.03831
305.64841
305.27612
304.92143
304.58397
304.26292
303.95751
303.66689
303.39025
303.1268
302.87578
302.6365
302.40829
302.19057
301.9828
301.78448
301.59515
301.41437
301.24173
301.07683
300.91932
300.76885
300.6251
300.48777
300.35658
300.23123
300.11148
299.99707
299.88779
299.7834
299.68373
299.58857
299.49775
299.41108
299.32839
299.24952
299.17431
299.10261
299.03428
298.96917
298.90715
298.84811
298.7919
298.73842
298.68754
298.63918
298.5932
298.54953
298.50806
298.4687
298.43137
298.39597
298.36244
298.3307
298.30067
298.2723
298.24553
298.22029
298.19653
298.1742
298.15327
298.1337
298.11545
298.09847
298.08276
298.06837
298.05527
298.04311
298.03189
298.02292
298.01673
298.00806
307.82731
307.89833
307.56603
307.24235
306.86654
306.48798
306.10967
305.74089
305.38364
305.03971
304.70946
304.39292
304.08978
303.79968
303.52218
303.25681
303.00307
302.76048
302.52854
302.30679
302.09475
301.89198
301.69809
301.51273
301.33553
301.16614
301.00422
300.84944
300.70149
300.56008
300.42494
300.29579
300.17239
300.0545
299.94191
299.83439
299.73174
299.63373
299.54016
299.45087
299.36566
299.28438
299.20686
299.13297
299.06255
298.99546
298.93158
298.87077
298.81291
298.75789
298.70559
298.6559
298.60871
298.56392
298.52145
298.48118
298.44304
298.40693
298.37278
298.34051
298.31003
298.28129
298.25422
298.22874
298.20481
298.18236
298.16135
298.14173
298.12345
298.10649
298.09079
298.07633
298.0631
298.0511
298.04029
298.03053
298.02186
298.01481
298.00948
298.00388
304.63426
305.20425
305.35311
305.39268
305.28624
305.12054
304.90988
304.67636
304.42947
304.17693
303.9234
303.67214
303.4253
303.18431
302.95011
302.72325
302.50406
302.2927
302.08919
301.89346
301.70541
301.52487
301.35161
301.18537
301.02593
300.87303
300.72645
300.58595
300.45132
300.32234
300.19881
300.08054
299.96732
299.85898
299.75535
299.65627
299.56155
299.47104
299.38458
299.30202
299.22322
299.14804
299.07634
299.008
298.9429
298.88091
298.82192
298.76582
298.7125
298.66185
298.61377
298.56817
298.52495
298.48401
298.44528
298.40866
298.37407
298.34143
298.31068
298.28173
298.25451
298.22896
298.20503
298.18264
298.16174
298.14228
298.12422
298.1075
298.09208
298.07794
298.06502
298.05331
298.04278
298.03342
298.0252
298.01807
298.01206
298.00726
298.00368
298.00101
308.04949
308.12145
307.73708
307.0254
306.18553
305.36291
304.64754
304.04349
303.53179
303.09201
302.68498
302.32099
301.99554
301.69958
301.42024
301.1609
300.9174
300.69574
300.48945
300.30295
300.13001
299.97651
299.83494
299.70813
299.59181
299.48959
299.39573
299.31198
299.23382
299.16378
299.10099
299.04314
298.98927
298.93854
298.89042
298.84451
298.80048
298.75812
298.71724
298.67784
298.63979
298.60297
298.56745
298.53312
298.49992
298.46782
298.4368
298.40682
298.37785
298.34983
298.32274
298.2965
298.27107
298.2464
298.22242
298.19911
298.17631
298.15411
298.1322
298.11098
298.08961
298.06935
298.04799
298.02899
298.00685
297.99015
297.96595
297.9536
297.9233
297.91987
297.88384
297.8945
297.84259
297.87926
297.80398
297.88039
297.78322
297.90397
297.80652
297.94185
306.19495
305.5532
304.9518
304.19837
303.36254
302.62262
302.0413
301.61597
301.31075
301.07705
300.88767
300.72626
300.58261
300.44985
300.32266
300.2045
300.08672
299.98243
299.87551
299.78182
299.68598
299.60354
299.52029
299.44769
299.37561
299.31127
299.24786
299.19142
299.13571
299.08295
299.03325
298.98574
298.93972
298.89505
298.85172
298.80967
298.76887
298.72929
298.69086
298.6537
298.61772
298.58286
298.54913
298.51652
298.48494
298.45439
298.42484
298.39626
298.3686
298.34183
298.31591
298.29078
298.26639
298.2427
298.21962
298.19715
298.17513
298.15364
298.13237
298.11173
298.09089
298.07106
298.05014
298.03141
298.00966
297.99304
297.96921
297.95685
297.92699
297.92325
297.88826
297.89791
297.84684
297.88281
297.8077
297.88429
297.78626
297.90987
297.80679
297.94975
300.59717
300.55711
300.0527
299.30493
298.85124
298.77137
298.81004
298.88559
298.97575
299.06524
299.14632
299.21571
299.27283
299.31682
299.34749
299.37121
299.37806
299.38136
299.3586
299.34406
299.3111
299.28819
299.24984
299.2199
299.18058
299.1458
299.10747
299.07248
299.03362
298.99419
298.95507
298.91611
298.87703
298.83824
298.80002
298.76249
298.72574
298.68984
298.65478
298.62082
298.58773
298.55554
298.52439
298.49408
298.46467
298.43617
298.40853
298.38174
298.35576
298.33058
298.30613
298.28238
298.25926
298.23678
298.2148
298.19338
298.17226
298.1517
298.13115
298.11133
298.09099
298.07194
298.05128
298.03335
298.01153
297.99588
297.9715
297.96032
297.92916
297.92748
297.88994
297.90259
297.84831
297.88803
297.80936
297.89026
297.78702
297.91593
297.80725
297.95557
302.96155
303.00073
302.47266
301.24835
300.33862
300.10752
300.02652
299.9776
299.93748
299.87392
299.81471
299.75507
299.69874
299.64207
299.60909
299.53943
299.54435
299.44949
299.45282
299.3629
299.36415
299.27956
299.26456
299.19598
299.1682
299.11286
299.08956
299.03672
298.99648
298.95652
298.91694
298.87844
298.84085
298.80413
298.76825
298.73317
298.69888
298.66536
298.63273
298.60089
298.56979
298.53949
298.50999
298.48133
298.45348
298.42644
298.40017
298.37467
298.34991
298.32587
298.30249
298.27974
298.25756
298.23595
298.21477
298.1941
298.17364
298.1537
298.13367
298.11435
298.09438
298.07572
298.05527
298.03766
298.01588
298.00048
297.97596
297.96506
297.93393
297.93216
297.89447
297.90725
297.85338
297.89238
297.81265
297.89441
297.79003
297.92059
297.80887
297.96025
302.15787
301.81482
300.94608
299.74282
299.22223
299.08446
299.10594
299.11458
299.11955
299.11697
299.11966
299.1186
299.11823
299.11484
299.1109
299.10405
299.09629
299.08551
299.07365
299.06337
299.04371
299.03711
299.017
299.00272
298.97935
298.95813
298.92972
298.90489
298.87787
298.8501
298.82181
298.7931
298.76407
298.73488
298.70567
298.67654
298.64761
298.61895
298.59074
298.56295
298.53558
298.50871
298.48241
298.45669
298.43156
298.40704
298.38312
298.35979
298.33703
298.31485
298.29319
298.27204
298.25132
298.23106
298.21112
298.19157
298.17213
298.15311
298.13388
298.11532
298.09595
298.07791
298.05783
298.04075
298.0191
298.00423
297.97956
297.96921
297.93744
297.93668
297.89762
297.91193
297.85551
297.89726
297.81513
297.89944
297.79163
297.92576
297.80986
297.96503
302.23757
301.90572
300.97347
299.76774
299.12949
298.99315
299.03183
299.0304
299.02775
299.01934
299.01937
299.01491
299.01172
299.00571
298.99983
298.99164
298.98337
298.97283
298.96205
298.94814
298.93568
298.91795
298.90205
298.88304
298.86501
298.84509
298.826
298.80473
298.78302
298.76078
298.73804
298.71484
298.69129
298.66748
298.64349
298.6194
298.59527
298.57117
298.54728
298.52353
298.49994
298.47662
298.45362
298.43098
298.40873
298.38688
298.36544
298.34442
298.32381
298.30361
298.28378
298.26432
298.24516
298.22632
298.20767
298.1893
298.17092
298.15285
298.13446
298.11664
298.09789
298.08043
298.06076
298.04412
298.02269
298.00816
297.98351
297.97345
297.94168
297.94115
297.90222
297.91637
297.85926
297.90188
297.81806
297.90391
297.79396
297.9306
297.81108
297.9694
301.90592
301.49113
300.45044
299.27217
298.7726
298.68903
298.71493
298.72328
298.73746
298.74036
298.74759
298.74977
298.75391
298.75545
298.75737
298.75737
298.75686
298.75525
298.7527
298.74944
298.74464
298.73971
298.73304
298.72566
298.71665
298.7067
298.69518
298.68287
298.66945
298.65512
298.63993
298.62391
298.60718
298.58983
298.57194
298.5536
298.53491
298.51594
298.49689
298.47766
298.45834
298.43903
298.4198
298.40068
298.38173
298.36295
298.34438
298.32602
298.30789
298.28998
298.27226
298.25474
298.23737
298.22016
298.203
298.18597
298.16879
298.1518
298.13436
298.11739
298.09935
298.08252
298.06336
298.04718
298.02604
298.01187
297.98732
297.97753
297.9456
297.94548
297.90581
297.92062
297.86231
297.90641
297.82094
297.90835
297.79598
297.93534
297.81221
297.97357
301.76558
301.28209