/*--------------------------------*- C++ -*----------------------------------*\
  =========                 |
  \\      /  F ield         | OpenFOAM: The Open Source CFD Toolbox
   \\    /   O peration     | Website:  https://openfoam.org
    \\  /    A nd           | Version:  6
     \\/     M anipulation  |
\*---------------------------------------------------------------------------*/
FoamFile
{
    version     2.0;
    format      ascii;
    class       volVectorField;
    location    "800";
    object      U;
}
// * * * * * * * * * * * * * * * * * * * * * * * * * * * * * * * * * * * * * //

dimensions      [0 1 -1 0 0 0 0];

internalField   nonuniform List<vector> 
16000
(
(150.35792 1.2879979e-15 -17.324054)
(158.50314 -1.149552e-15 -11.296999)
(155.4006 4.4457464e-18 -16.358831)
(156.83645 4.0207694e-18 -12.273785)
(155.63762 0 -15.274189)
(156.04452 -9.1850204e-16 -12.949248)
(155.45737 8.6937488e-16 -14.509744)
(155.49624 0 -13.293455)
(155.13419 -1.8960324e-19 -14.006517)
(155.02176 1.7932564e-19 -13.394665)
(154.74602 3.3970091e-19 -13.662137)
(154.56557 -6.5890707e-16 -13.343455)
(154.3199 6.2464614e-16 -13.394356)
(154.10728 4.9191607e-18 -13.201746)
(153.86845 5.6182205e-16 -13.151441)
(153.63892 -5.3318553e-16 -13.003978)
(153.39817 -1.0131115e-15 -12.90488)
(153.1585 9.6126346e-16 -12.76646)
(152.91341 0 -12.640128)
(152.66715 8.6813665e-16 -12.49564)
(152.41806 -8.2533229e-16 -12.350026)
(152.16783 -7.856223e-16 -12.193409)
(151.9164 -7.2562441e-19 -12.03109)
(151.66474 -3.4466418e-19 -11.860013)
(151.41334 6.6554482e-16 -11.681764)
(151.16303 0 -11.495497)
(150.91452 6.1381421e-16 -11.301748)
(150.66864 -5.746523e-16 -11.100418)
(150.42622 -5.4301811e-19 -10.891834)
(150.18811 -5.1742946e-19 -10.676208)
(149.95521 -5.0531715e-16 -10.453918)
(149.72838 4.8101883e-16 -10.225367)
(149.50851 -1.4357912e-17 -9.9910558)
(149.29648 -1.2837398e-17 -9.7515459)
(149.09315 8.3552787e-16 -9.507475)
(148.89932 -1.5946412e-15 -9.2595413)
(148.7158 7.6026742e-16 -9.0085055)
(148.5433 1.1345027e-17 -8.7551788)
(148.38251 1.0828718e-17 -8.5004159)
(148.23403 0 -8.2451045)
(148.09841 -1.2327272e-18 -7.9901541)
(147.97612 1.1772495e-18 -7.7364833)
(147.86753 -5.7487315e-16 -7.4850081)
(147.77295 5.5119877e-16 -7.2366282)
(147.6926 5.2470485e-16 -6.9922151)
(147.62661 -5.0230594e-16 -6.752599)
(147.57505 -9.3747314e-19 -6.518558)
(147.5379 0 -6.2908067)
(147.51505 4.3884672e-16 -6.0699882)
(147.50634 -4.1961375e-16 -5.8566644)
(147.51154 0 -5.6513123)
(147.53034 0 -5.454315)
(147.56238 2.2964307e-17 -5.2659709)
(147.60719 -1.3729577e-18 -5.0864877)
(147.66434 2.1038526e-17 -4.9159695)
(147.73338 0 -4.754432)
(147.81376 0 -4.60181)
(147.90487 0 -4.457962)
(148.00601 0 -4.322663)
(148.11645 -3.6060177e-17 -4.1956413)
(148.23558 -3.2536315e-17 -4.0765267)
(148.36249 0 -3.9649977)
(148.49679 2.9927672e-17 -3.8604854)
(148.63694 0 -3.7628128)
(148.78345 -3.1008659e-17 -3.6709241)
(148.93227 -4.2670207e-16 -3.5854311)
(149.08747 4.0680178e-16 -3.5036688)
(149.23682 -3.0537874e-18 -3.4292066)
(149.3975 3.757973e-16 -3.3538519)
(149.53196 -3.8140792e-16 -3.291632)
(149.70223 0 -3.2146388)
(149.79167 -3.3516435e-16 -3.1723367)
(150.00341 6.4585312e-16 -3.0676407)
(149.97506 -3.1171379e-16 -3.0873854)
(150.31919 4.6932696e-18 -2.8801058)
(149.97957 0 -3.1220378)
(150.6339 -1.4024204e-16 -2.5119654)
(149.64303 1.7196637e-17 -3.5016929)
(150.8409 1.3152203e-16 -1.613483)
(149.16852 -3.2075228e-17 -4.6838106)
(150.00142 -1.2981423e-15 -18.999311)
(158.16268 1.1606321e-15 -12.705042)
(154.87885 -4.387164e-18 -18.002397)
(156.39921 1.0527429e-15 -13.685801)
(155.1203 -1.0032303e-15 -16.843932)
(155.56459 7.3220316e-18 -14.372659)
(154.93372 0 -16.011008)
(154.981 0 -14.713124)
(154.59405 7.8098511e-16 -15.450318)
(154.47667 -7.6205665e-16 -14.793413)
(154.18447 7.0007749e-16 -15.056357)
(153.99372 -6.7348748e-16 -14.70836)
(153.73476 0 -14.741577)
(153.5103 6.0111049e-16 -14.524144)
(153.25931 -5.7457992e-16 -14.450363)
(153.01794 0 -14.277708)
(152.76576 0 -14.152069)
(152.51493 0 -13.986446)
(152.25929 -9.2045647e-16 -13.831253)
(152.00299 8.8828437e-16 -13.657168)
(151.74462 0 -13.480501)
(151.48586 8.0350874e-16 -13.291922)
(151.22684 -7.5199737e-16 -13.096399)
(150.96859 -7.2724291e-16 -12.891152)
(150.71173 3.2099062e-17 -12.677668)
(150.45717 6.3793425e-16 -12.455255)
(150.20575 6.46945e-16 -12.224468)
(149.95837 -1.203919e-15 -11.985325)
(149.71595 1.1379086e-15 -11.738236)
(149.47943 -5.2498794e-16 -11.483528)
(149.24974 5.1666367e-16 -11.221697)
(149.02782 -9.846378e-16 -10.953275)
(148.81457 9.5328274e-16 -10.678901)
(148.61088 -8.8094101e-16 -10.399279)
(148.4176 4.2661079e-16 -10.115194)
(148.23551 0 -9.8274959)
(148.06534 2.4278181e-17 -9.5370947)
(147.90777 -1.1568123e-17 -9.2449497)
(147.76336 -7.1795726e-16 -8.9520592)
(147.63262 7.1663419e-16 -8.6594473)
(147.51596 0 -8.3681526)
(147.4137 -6.1471658e-16 -8.0792105)
(147.32606 3.6575344e-17 -7.7936441)
(147.2532 1.1207956e-15 -7.5124454)
(147.19514 -5.3517383e-16 -7.2365657)
(147.15186 -5.1127527e-16 -6.9669002)
(147.12323 5.1892531e-16 -6.7042785)
(147.10907 -4.0833434e-16 -6.4494519)
(147.10912 8.3616671e-16 -6.2030879)
(147.12305 -4.2623598e-16 -5.9657595)
(147.15049 0 -5.7379436)
(147.19101 0 -5.5200145)
(147.24413 -2.3275125e-17 -5.3122443)
(147.30931 -7.1249817e-16 -5.1148165)
(147.386 6.6035416e-16 -4.9278069)
(147.47368 6.1141556e-16 -4.7511837)
(147.5718 -6.4578267e-20 -4.5848319)
(147.6797 -6.722235e-16 -4.4285602)
(147.7967 0 -4.2820938)
(147.92207 3.423184e-17 -4.1450899)
(148.05516 -3.2808281e-17 -4.0171357)
(148.1952 -6.2844474e-17 -3.897797)
(148.34159 -4.5155091e-16 -3.786527)
(148.49335 9.4428274e-20 -3.682889)
(148.6501 4.1509531e-16 -3.5861118)
(148.80978 0 -3.4960419)
(148.97306 -4.0733387e-16 -3.4112195)
(149.13419 3.9103662e-16 -3.3327768)
(149.29895 -4.6926869e-17 -3.2566972)
(149.45001 3.8305977e-16 -3.1892023)
(149.61405 -6.9294725e-16 -3.1160433)
(149.73433 3.7484447e-16 -3.0640647)
(149.91259 3.2035202e-16 -2.9751481)
(149.9566 -1.2200278e-19 -2.9666414)
(150.2145 -3.20111e-16 -2.7960037)
(150.0174 2.6850659e-16 -2.9698308)
(150.50589 -2.7156192e-16 -2.4620764)
(149.73834 -1.6727812e-17 -3.3082344)
(150.69886 1.6052055e-17 -1.6103448)
(149.31486 3.1260068e-17 -4.3977512)
(149.4852 1.3129378e-15 -20.704902)
(157.63499 -8.4695904e-21 -14.172827)
(154.21627 -1.143771e-15 -19.648722)
(155.81071 1.0594006e-15 -15.167572)
(154.46033 7.9211076e-18 -18.416365)
(154.92799 9.477592e-16 -15.857168)
(154.26067 -1.8095085e-15 -17.520668)
(154.30775 1.2988516e-17 -16.18058)
(153.89946 8.0933773e-16 -16.907932)
(153.77222 1.1965889e-17 -16.227655)
(153.46454 -7.3757388e-16 -16.466563)
(153.26074 6.8785988e-16 -16.098759)
(152.98824 0 -16.103512)
(152.75034 0 -15.863765)
(152.48664 -5.8740458e-16 -15.760074)
(152.23254 5.5731479e-16 -15.561199)
(151.96849 0 -15.404379)
(151.70614 1.5725218e-17 -15.208848)
(151.43989 -1.4921435e-17 -15.020715)
(151.1737 8.8002057e-16 -14.813538)
(150.90648 4.4761379e-19 -14.601808)
(150.6399 -7.9518454e-16 -14.377384)
(150.3743 7.6900834e-16 -14.144586)
(150.11078 -7.4286661e-16 -13.901111)
(149.85013 -7.293788e-16 -13.648286)
(149.59334 6.9390433e-16 -13.385649)
(149.34137 2.0070403e-17 -13.113788)
(149.09522 3.8165996e-17 -12.832883)
(148.8559 3.6348903e-17 -12.543458)
(148.62441 -5.7094966e-16 -12.246001)
(148.40174 4.9426428e-16 -11.94116)
(148.18886 5.3406546e-16 -11.629637)
(147.98668 -4.788293e-16 -11.312245)
(147.79608 -4.5659896e-16 -10.989864)
(147.61787 8.7041644e-16 -10.66346)
(147.45276 -8.2992386e-16 -10.334058)
(147.30142 -3.7112281e-16 -10.002739)
(147.16439 7.5471761e-16 -9.6706275)
(147.04212 0 -9.3388745)
(146.93495 -6.8694767e-16 -9.0086427)
(146.84313 6.1435839e-16 -8.6810958)
(146.76679 0 -8.3573762)
(146.70597 -3.7290232e-17 -8.0385965)
(146.66061 0 -7.7258187)
(146.63053 6.8031359e-17 -7.4200461)
(146.6155 0 -7.1222065)
(146.61521 -3.0984287e-17 -6.8331448)
(146.62926 4.9243785e-20 -6.5536113)
(146.65721 1.1310673e-16 -6.2842569)
(146.69857 0 -6.0256257)
(146.7528 0 -5.7781536)
(146.81934 0 -5.5421655)
(146.8976 0 -5.3178761)
(146.98695 0 -5.1053957)
(147.08673 8.6158997e-17 -4.904742)
(147.19633 4.1172146e-17 -4.7158217)
(147.31519 6.3011001e-16 -4.5384375)
(147.44264 -6.0282942e-16 -4.3723245)
(147.57798 -7.2093922e-17 -4.2171388)
(147.72049 0 -4.0724605)
(147.8695 6.5994194e-17 -3.9378108)
(148.02433 5.6855088e-16 -3.8126682)
(148.18433 -5.4442193e-16 -3.6964484)
(148.34875 0 -3.5885712)
(148.51695 -5.5495048e-17 -3.4883399)
(148.68764 -1.0630553e-16 -3.395233)
(148.86024 4.0737866e-16 -3.3082927)
(149.03173 -3.9058449e-16 -3.2274545)
(149.20303 4.6801454e-17 -3.1507597)
(149.366 -3.5909457e-16 -3.0802369)
(149.53046 9.8223898e-20 -3.0094145)
(149.66976 2.8947095e-16 -2.9501755)
(149.8324 0 -2.8733806)
(149.91531 0 -2.8436283)
(150.12626 1.8318336e-17 -2.7074231)
(150.02323 1.7643266e-17 -2.8143831)
(150.39454 2.9652442e-17 -2.4032655)
(149.79335 -1.1450737e-16 -3.0949863)
(150.58514 1.1408332e-16 -1.5940544)
(149.34725 -6.0395419e-17 -4.1711067)
(148.81478 3.1745727e-17 -22.4507)
(156.92928 9.4586237e-18 -15.668968)
(153.40177 1.1816937e-15 -21.329331)
(155.06993 4.6958608e-19 -16.679075)
(153.64596 -1.0327279e-15 -20.01623)
(154.13625 -9.7328033e-16 -17.36922)
(153.43108 9.2180452e-16 -19.052271)
(153.47642 -1.3608163e-17 -17.671593)
(153.04583 8.3855738e-16 -18.383096)
(152.90721 -7.5689383e-16 -17.68003)
(152.58325 -7.4093576e-16 -17.889975)
(152.36526 1.3822098e-15 -17.501291)
(152.07854 -6.6570217e-16 -17.473649)
(151.82652 1.9756661e-17 -17.209268)
(151.54968 0 -17.072192)
(151.28259 0 -16.844044)
(151.00667 -5.4058589e-16 -16.652614)
(150.73303 4.9720244e-16 -16.423724)
(150.45667 0 -16.199094)
(150.18138 9.5643588e-16 -15.955156)
(149.90641 -9.0882706e-16 -15.704663)
(149.63345 4.4678818e-20 -15.440623)
(149.36306 0 -15.16678)
(149.09642 -4.7446836e-17 -14.881306)
(148.83447 -7.2183201e-16 -14.585419)
(148.57832 6.4364674e-16 -14.278907)
(148.32905 -6.9472335e-16 -13.962434)
(148.08774 5.8336355e-16 -13.636374)
(147.85548 -3.7011001e-17 -13.301406)
(147.63333 -3.5308331e-17 -12.958211)
(147.4223 -5.0413618e-16 -12.607625)
(147.22336 4.8005037e-16 -12.250555)
(147.03742 0 -11.888013)
(146.8653 0 -11.521086)
(146.70772 0 -11.150936)
(146.5653 -5.2845964e-17 -10.778779)
(146.43857 -5.0301693e-17 -10.405881)
(146.3279 8.1599949e-16 -10.033528)
(146.23359 -9.1429243e-17 -9.6630215)
(146.15576 -6.5447957e-16 -9.2956559)
(146.09446 4.1600829e-17 -8.9327011)
(146.04959 6.3535718e-16 -8.5753862)
(146.02096 -5.3025531e-16 -8.2248867)
(146.00827 -5.7832577e-16 -7.8823047)
(146.01112 -6.8978414e-17 -7.5486614)
(146.02906 9.8744465e-16 -7.2248817)
(146.06155 -3.7694279e-16 -6.9117886)
(146.10799 -5.9955605e-17 -6.6100936)
(146.16776 4.0085845e-16 -6.320394)
(146.24019 -5.4681068e-16 -6.0431686)
(146.3246 -4.176634e-16 -5.7787784)
(146.42029 3.989111e-16 -5.5274666)
(146.52655 0 -5.2893621)
(146.64269 7.2782295e-16 -5.0644826)
(146.76797 -7.8232934e-16 -4.8527521)
(146.9017 0 -4.6539952)
(147.04329 6.3498013e-16 -4.4679304)
(147.1921 -9.8634053e-16 -4.2941977)
(147.34741 5.077407e-16 -4.1323748)
(147.50853 5.5472157e-16 -3.9819622)
(147.67481 -1.3276104e-16 -3.8424039)
(147.8456 -5.0740147e-16 -3.7131022)
(148.0203 -4.8522024e-16 -3.5934099)
(148.19825 5.8037719e-16 -3.4826578)
(148.37881 -4.4416638e-16 -3.3801248)
(148.561 1.0637192e-16 -3.2851292)
(148.74393 4.069368e-16 -3.1968393)
(148.92559 -3.8948148e-16 -3.1147255)
(149.10517 5.5958445e-16 -3.0375675)
(149.27817 0 -2.9656562)
(149.44728 0 -2.8958931)
(149.59972 0 -2.8329671)
(149.75764 0 -2.7626218)
(149.86714 1.5083072e-16 -2.7193703)
(150.04584 -2.8926647e-16 -2.6093714)
(150.0135 3.4737425e-16 -2.6634934)
(150.30214 -3.6651258e-16 -2.3331946)
(149.82578 4.9732214e-16 -2.8868544)
(150.48868 -3.7327598e-16 -1.5633065)
(149.37301 -9.9223752e-20 -3.9048305)
(147.99299 1.3748699e-15 -24.229444)
(156.02865 5.256031e-19 -17.19468)
(152.4294 -1.2196347e-15 -23.033714)
(154.16745 0 -18.226053)
(152.67094 -1.6437418e-17 -21.633542)
(153.17834 -3.0997817e-17 -18.912953)
(152.43666 0 -20.597581)
(152.47573 -8.6031594e-16 -19.18693)
(152.02328 8.4099368e-16 -19.869065)
(151.87014 -8.2170609e-16 -19.148119)
(151.52958 7.5488466e-16 -19.320153)
(151.29542 -3.8663088e-20 -18.910966)
(150.99389 0 -18.844816)
(150.7266 6.242164e-16 -18.553495)
(150.43618 -6.1118904e-16 -18.378167)
(150.15567 0 -18.11709)
(149.86785 5.5131278e-16 -17.886517)
(149.58316 -5.5614942e-16 -17.619989)
(149.29731 4.975734e-16 -17.354304)
(149.01389 4.4356257e-16 -17.069048)
(148.73253 -8.7045885e-16 -16.775164)
(148.45496 -2.6680738e-17 -16.466862)
(148.18195 5.0847252e-17 -16.147357)
(147.91482 -9.6816235e-20 -15.815318)
(147.65466 0 -15.471908)
(147.40268 -8.761995e-20 -15.117197)
(147.16007 0 -14.751977)
(146.928 3.9657396e-17 -14.376859)
(146.70761 0 -13.992721)
(146.49999 3.5874141e-17 -13.60048)
(146.30615 0 -13.201201)
(146.12702 0 -12.796028)
(145.96345 6.2094707e-17 -12.386207)
(145.81615 0 -11.973052)
(145.68572 -4.504736e-16 -11.557942)
(145.57261 4.8272241e-16 -11.142296)
(145.47716 0 -10.72756)
(145.39953 -4.8689485e-17 -10.315184)
(145.33977 -6.5035972e-16 -9.9066031)
(145.29777 6.1987848e-16 -9.503222)
(145.27331 -6.7545356e-16 -9.1063912)
(145.26603 7.2455667e-16 -8.7173938)
(145.27546 -7.6771523e-16 -8.3374298)
(145.30105 5.857296e-16 -7.967601)
(145.34216 -1.3975782e-16 -7.6089025)
(145.39806 6.658513e-17 -7.262212)
(145.46801 -1.2705224e-16 -6.9282849)
(145.55121 1.2134331e-16 -6.6077499)
(145.64682 -4.6290293e-16 -6.3011078)
(145.75404 9.9395753e-16 -6.0087314)
(145.87203 -5.6185286e-20 -5.7308694)
(145.99997 -5.0313692e-16 -5.4676485)
(146.13706 1.9215584e-16 -5.2190806)
(146.28253 0 -4.9850681)
(146.43561 0 -4.7654136)
(146.59556 0 -4.5598384)
(146.76174 -6.3864821e-16 -4.3679638)
(146.93355 4.5766514e-16 -4.1893266)
(147.11029 1.4566995e-16 -4.0234107)
(147.2913 -1.3922103e-16 -3.8696353)
(147.47595 1.3297405e-16 -3.7273629)
(147.66366 -7.6249292e-16 -3.5959217)
(147.85387 9.7162004e-16 -3.4745988)
(148.04601 -1.0447161e-15 -3.3626541)
(148.23948 9.9863111e-16 -3.2593174)
(148.43349 -2.1229787e-16 -3.1638164)
(148.62712 -6.0862895e-16 -3.0753248)
(148.81882 0 -2.9931086)
(149.00717 -1.8551057e-16 -2.9161941)
(149.18921 1.7748822e-16 -2.8441382)
(149.36454 0 -2.775287)
(149.52679 0 -2.7108483)
(149.68457 -1.5555855e-16 -2.6445738)
(149.81117 -2.9789379e-16 -2.5918668)
(149.97106 -2.8521377e-16 -2.5021371)
(149.98938 6.8372176e-17 -2.5140223)
(150.21787 -6.5539225e-17 -2.2499899)
(149.83821 2.5165043e-16 -2.6802024)
(150.39946 -6.0155398e-17 -1.5235492)
(149.36426 2.273005e-16 -3.6562338)
(147.00892 1.3732149e-15 -26.038833)
(154.94604 -1.2532169e-15 -18.751902)
(151.28529 1.8774988e-17 -24.762706)
(153.08929 0 -19.807628)
(151.52189 1.6696586e-17 -23.266297)
(152.04122 1.0406023e-15 -20.485186)
(151.26459 -9.2575323e-16 -22.152639)
(151.2933 -5.6517373e-17 -20.72093)
(150.81955 0 -21.36005)
(150.64924 -8.1160929e-16 -20.624238)
(150.29192 7.171759e-17 -20.749373)
(150.04008 2.2352048e-17 -20.318389)
(149.72338 6.4816634e-16 -20.207373)
(149.44018 0 -19.88547)
(149.13609 6.2294263e-16 -19.66653)
(148.84223 -1.1454046e-15 -19.367816)
(148.54301 1.1227766e-15 -19.092924)
(148.24811 -4.9976423e-16 -18.783603)
(147.954 0 -18.471622)
(147.66414 3.0054972e-17 -18.139737)
(147.37853 -9.1528838e-16 -17.797181)
(147.09898 1.7397128e-15 -17.439344)
(146.82649 -1.7057739e-15 -17.069007)
(146.56249 8.8463894e-16 -16.685343)
(146.30825 -7.4828508e-16 -16.289545)
(146.06507 7.1137033e-16 -15.881999)
(145.83425 0 -15.463688)
(145.617 -6.0403081e-16 -15.035506)
(145.41448 6.1304062e-16 -14.598583)
(145.22777 7.3039898e-17 -14.154117)
(145.05783 6.952851e-17 -13.703442)
(144.90551 -5.952389e-16 -13.247974)
(144.77151 9.444239e-16 -12.789218)
(144.65638 1.3204835e-19 -12.328732)
(144.56051 -9.1360712e-16 -11.868119)
(144.48413 5.4395101e-16 -11.408998)
(144.4273 0 -10.952986)
(144.38992 3.9492444e-16 -10.501673)
(144.37174 -4.7039721e-16 -10.056602)
(144.37236 0 -9.6192495)
(144.39122 -6.8343984e-16 -9.1910057)
(144.42768 8.1595587e-17 -8.7731595)
(144.48096 5.4315167e-16 -8.3668855)
(144.55024 0 -7.973233)
(144.6346 1.4100822e-16 -7.5931179)
(144.73307 6.7270221e-16 -7.2273185)
(144.84469 -5.1317876e-16 -6.8764727)
(144.96845 1.211199e-19 -6.5410781)
(145.10335 -4.6671605e-16 -6.2214952)
(145.24843 8.9042328e-16 -5.9179509)
(145.40274 -8.1897463e-20 -5.6305451)
(145.56536 -1.0129367e-16 -5.3592571)
(145.73542 -1.9321285e-16 -5.1039546)
(145.91211 1.8447196e-16 -4.8644014)
(146.09462 1.7601959e-16 -4.6402661)
(146.28222 6.7161593e-16 -4.4311429)
(146.47424 -6.4116848e-16 -4.2365448)
(146.67011 0 -4.0559078)
(146.8692 0 -3.8886108)
(147.07088 1.3939383e-16 -3.7339906)
(147.27457 5.3236259e-16 -3.59133)
(147.47976 -2.5429747e-16 -3.4598855)
(147.68594 -4.8535927e-16 -3.3388813)
(147.89262 -2.316709e-16 -3.2275166)
(148.0993 2.2138838e-16 -3.1249704)
(148.30531 4.2280761e-16 -3.0304085)
(148.5098 8.0763621e-16 -2.9429752)
(148.71147 -3.8583265e-16 -2.8618355)
(148.90878 3.6848819e-16 -2.7860716)
(149.09939 -7.0430728e-16 -2.7149412)
(149.28169 -3.3643136e-16 -2.6472943)
(149.45205 3.2164019e-16 -2.5828462)
(149.61266 1.5368606e-16 -2.5191179)
(149.75147 1.469399e-16 -2.4608311)
(149.89894 -2.8101632e-16 -2.3851156)
(149.95314 1.3442656e-16 -2.3653096)
(150.13848 1.2860641e-16 -2.1575675)
(149.84057 -4.9281585e-16 -2.4766666)
(150.31838 2.9447384e-16 -1.4734501)
(149.34169 0 -3.3987177)
(145.84522 2.2124975e-17 -27.879686)
(153.74904 -1.2353474e-15 -20.340411)
(149.95845 3.7664802e-17 -26.505158)
(151.82321 1.1452947e-15 -21.415296)
(150.18774 -1.0879821e-15 -24.902502)
(150.71275 1.0583574e-15 -22.076708)
(149.90338 -6.0780596e-17 -23.706501)
(149.91711 2.8726962e-17 -22.263338)
(149.4228 0 -22.845313)
(149.23247 8.2599884e-16 -22.09719)
(148.8582 -8.8032678e-16 -22.16632)
(148.58719 0 -21.711375)
(148.25497 7.4796637e-16 -21.548863)
(147.95535 -6.6750255e-16 -21.191818)
(147.63768 6.3382765e-16 -20.923372)
(147.33086 -6.3881731e-16 -20.581415)
(147.02109 4.9974371e-16 -20.256305)
(146.7173 -1.0846083e-15 -19.898168)
(146.41679 5.1496229e-16 -19.533854)
(146.12289 -4.8953761e-16 -19.149216)
(145.83599 5.2311619e-16 -18.751947)
(145.55802 -5.5325005e-17 -18.338587)
(145.29021 -5.2590034e-17 -17.911609)
(145.03412 -4.986978e-17 -17.470719)
(144.79114 0 -17.017226)
(144.5627 4.5096254e-17 -16.551887)
(144.35011 6.8723215e-16 -16.075952)
(144.15462 -7.3504943e-16 -15.59065)
(143.97736 5.4409758e-16 -15.097422)
(143.81931 -1.4771067e-16 -14.597793)
(143.68132 -6.3321608e-16 -14.093404)
(143.56406 -1.5264201e-19 -13.585971)
(143.46802 -5.1007226e-16 -13.077272)
(143.39348 4.8544043e-16 -12.569116)
(143.34057 1.156784e-16 -12.06332)
(143.30918 -1.0991718e-16 -11.561684)
(143.29905 0 -11.065967)
(143.30973 -3.9910422e-16 -10.577857)
(143.3406 4.7505468e-16 -10.098959)
(143.3909 -7.2413772e-16 -9.6307632)
(143.45974 8.6245803e-16 -9.1746426)
(143.54613 -1.6419005e-16 -8.7318286)
(143.64899 7.8264436e-16 -8.303407)
(143.76718 -1.3427633e-15 -7.890311)
(143.89953 -1.4217737e-16 -7.4933165)
(144.04484 4.0663286e-16 -7.1130441)
(144.20192 0 -6.7499606)
(144.3696 1.2330533e-16 -6.4043838)
(144.54674 0 -6.0764901)
(144.73224 -2.2389801e-16 -5.7663224)
(144.92508 0 -5.4737996)
(145.12427 -4.0692914e-16 -5.1987263)
(145.3289 1.9408395e-16 -4.9408039)
(145.53815 -3.7004023e-16 -4.6996399)
(145.75121 -1.7639769e-16 -4.474759)
(145.96738 0 -4.2656155)
(146.186 0 -4.0716093)
(146.40654 0 -3.8920714)
(146.62845 -5.8417166e-16 -3.7262806)
(146.85116 2.789157e-16 -3.5734891)
(147.07417 1.6451046e-19 -3.4329068)
(147.29703 5.0743739e-16 -3.303723)
(147.51929 0 -3.1851065)
(147.74057 6.9271952e-16 -3.0762049)
(147.96042 -6.6110165e-16 -2.9761524)
(148.17834 -2.1011189e-16 -2.8840696)
(148.39356 -2.0049905e-16 -2.7990655)
(148.60497 7.6589508e-16 -2.7202478)
(148.81107 -3.6551669e-16 -2.646693)
(149.00979 -5.2308539e-16 -2.5775368)
(149.19912 2.1754159e-19 -2.5117461)
(149.37643 2.1084813e-19 -2.4485332)
(149.54098 1.5168127e-15 -2.3867776)
(149.68834 -5.7936819e-16 -2.3258926)
(149.8294 5.5308467e-16 -2.2592837)
(149.90957 0 -2.216531)
(150.06088 5.0450954e-16 -2.0561648)
(149.8329 -4.8275437e-16 -2.2768507)
(150.23806 0 -1.4138513)
(149.30516 2.1399522e-16 -3.1496867)
(144.49201 1.4133848e-15 -29.750302)
(152.37108 -2.592961e-15 -21.952116)
(148.44354 -3.9403003e-17 -28.252328)
(150.36157 -7.0460896e-19 -23.044154)
(148.6607 1.1053586e-15 -26.534742)
(149.18361 -1.0442596e-15 -23.680647)
(148.34332 2.0083386e-15 -25.251335)
(148.33653 -9.3539519e-16 -23.805389)
(147.82187 0 -24.31583)
(147.60826 0 -23.55633)
(147.21647 9.9480852e-17 -23.56009)
(146.92466 -7.5464773e-16 -23.077365)
(146.57651 7.5994754e-16 -22.856127)
(146.2601 0 -22.457906)
(145.92917 0 -22.133154)
(145.61019 6.1123331e-16 -21.741056)
(145.29131 -5.0742465e-16 -21.358782)
(144.98073 0 -20.944662)
(144.67656 5.231086e-16 -20.520958)
(144.38207 -4.9654292e-16 -20.076457)
(144.09807 -5.8901836e-17 -19.617562)
(143.82658 5.5963156e-17 -19.141923)
(143.56907 5.3179359e-17 -18.651863)
(143.32721 0 -18.147658)
(143.1025 0 -17.630842)
(142.89639 0 -17.102605)
(142.71021 0 -16.564543)
(142.54513 0 -16.018282)
(142.40217 7.0771219e-16 -15.46563)
(142.28213 -5.2352127e-16 -14.908475)
(142.18564 0 -14.348796)
(142.11308 6.0907919e-16 -13.78862)
(142.06462 9.1063912e-20 -13.229995)
(142.04021 6.5809833e-20 -12.674963)
(142.03955 -9.326526e-16 -12.125525)
(142.06217 4.4393314e-16 -11.583618)
(142.10735 5.2832127e-16 -11.051085)
(142.17424 -4.0226645e-16 -10.529649)
(142.26181 -3.8295897e-16 -10.020903)
(142.36889 -3.6458989e-16 -9.5262813)
(142.49422 -1.7338645e-16 -9.0470555)
(142.63646 6.6141034e-16 -8.5843251)
(142.79421 -1.5758852e-16 -8.1390111)
(142.96604 -4.5002127e-16 -7.7118587)
(143.15054 1.4293196e-16 -7.3034382)
(143.34629 6.8076818e-16 -6.9141519)
(143.55193 -2.5952587e-16 -6.5442419)
(143.76615 2.4720083e-16 -6.1938001)
(143.9877 -2.354667e-16 -5.8627798)
(144.21542 2.2432714e-16 -5.5510078)
(144.44822 0 -5.2581959)
(144.68512 -1.4824935e-19 -4.9839546)
(144.92519 -1.9420989e-16 -4.7278043)
(145.16763 1.8511286e-16 -4.4891872)
(145.41169 -3.5309168e-16 -4.2674778)
(145.65671 0 -4.0619925)
(145.90208 -3.2080574e-16 -3.8720136)
(146.14733 3.056e-16 -3.6967679)
(146.39201 -1.1660414e-15 -3.5354492)
(146.63564 5.5603743e-16 -3.3872249)
(146.87779 5.2985137e-16 -3.2512425)
(147.11809 -2.5267538e-16 -3.1266329)
(147.35619 4.8162602e-16 -3.0125184)
(147.59177 -9.185256e-16 -2.9080063)
(147.82451 -4.3776122e-16 -2.8121958)
(148.05398 8.3502408e-16 -2.7241751)
(148.27957 9.9916348e-20 -2.6430246)
(148.50032 3.7951502e-16 -2.5678166)
(148.71483 3.617947e-16 -2.4976109)
(148.92119 0 -2.4314804)
(149.11731 9.8630974e-16 -2.3683891)
(149.30081 -1.8813926e-15 -2.3074595)
(149.46986 1.0499761e-19 -2.2477449)
(149.62316 8.5517659e-16 -2.1869124)
(149.761 -1.3592747e-15 -2.1260654)
(149.86001 2.2284041e-19 -2.0674292)
(149.98506 2.4737183e-16 -1.9453129)
(149.81831 -4.7200616e-16 -2.0806237)
(150.15982 1.1258185e-15 -1.3490867)
(149.26949 -2.0782284e-16 -2.9020806)
(142.94061 0 -31.647973)
(150.79264 -1.3191301e-15 -23.584872)
(146.72811 1.2617894e-15 -30.003179)
(148.69087 3.7088773e-17 -24.692278)
(146.92731 1.1590639e-15 -28.158997)
(147.43923 -3.2406516e-17 -25.292055)
(146.56974 -1.0044831e-15 -26.780874)
(146.53642 8.9178476e-16 -25.338798)
(146.00136 -9.0025385e-16 -25.762726)
(145.76114 -9.0675411e-16 -24.990351)
(145.35119 -3.9354195e-19 -24.918721)
(145.0372 7.6586513e-16 -24.402185)
(144.67292 1.3845681e-19 -24.113964)
(144.33987 -6.890381e-16 -23.666684)
(143.99664 6.5312593e-16 -23.277534)
(143.66715 7.7615486e-17 -22.826823)
(143.34159 6.620478e-16 -22.379118)
(143.02748 -5.5808874e-16 -21.900503)
(142.72376 -5.3011779e-16 -21.409165)
(142.43368 4.3999791e-16 -20.896616)
(142.15844 -4.7792448e-16 -20.368263)
(141.90017 4.5363654e-16 -19.822846)
(141.66051 -4.3111943e-16 -19.262714)
(141.44122 3.0681359e-16 -18.688766)
(141.24382 0 -18.102886)
(141.06974 7.3945379e-16 -17.506762)
(140.92019 -7.0245645e-16 -16.902421)
(140.79617 -6.6787871e-16 -16.291937)
(140.69845 -1.7543622e-19 -15.677531)
(140.62755 6.0337632e-16 -15.061479)
(140.58371 5.7379754e-16 -14.446102)
(140.56692 -5.4553383e-16 -13.833724)
(140.5769 1.2987886e-16 -13.226632)
(140.61312 -4.9348431e-16 -12.627051)
(140.6748 8.2158571e-16 -12.037102)
(140.76095 -4.4656977e-16 -11.458781)
(140.87039 -7.4362935e-16 -10.893929)
(141.00176 4.0431271e-16 -10.344214)
(141.15358 0 -9.8111192)
(141.32428 -1.8325054e-16 -9.2959246)
(141.5122 -6.970109e-16 -8.7997104)
(141.71565 6.636811e-16 -8.3233515)
(141.93295 7.8950864e-16 -7.8675227)
(142.16241 -7.5209868e-16 -7.4327055)
(142.4024 -2.8611891e-16 -7.0191977)
(142.65136 6.8213902e-16 -6.627126)
(142.90778 2.5959186e-16 -6.2564601)
(143.17029 2.4749417e-16 -5.9070271)
(143.43757 2.3564056e-16 -5.5785262)
(143.70844 -1.7193719e-19 -5.2705448)
(143.98183 -6.415435e-16 -4.9825727)
(144.25676 6.1083751e-16 -4.7140158)
(144.53239 3.8781128e-16 -4.4642092)
(144.80794 -7.3949217e-16 -4.2324287)
(145.08276 3.5208366e-16 -4.0179018)
(145.35626 -6.7091236e-16 -3.819816)
(145.62794 1.59819e-15 -3.6373372)
(145.89739 -3.0473931e-16 -3.4696018)
(146.16428 -2.9023486e-16 -3.3157296)
(146.42823 -2.7644137e-16 -3.1748138)
(146.68891 0 -3.0459509)
(146.94603 -7.5301681e-16 -2.928226)
(147.19935 -4.7804777e-16 -2.8207269)
(147.44863 1.3670669e-15 -2.7225329)
(147.69363 4.3401751e-16 -2.6327204)
(147.93405 -4.1350492e-16 -2.5503582)
(148.16939 -1.5756615e-15 -2.4745085)
(148.39886 -3.7503783e-16 -2.4042244)
(148.62119 3.5760963e-16 -2.3385542)
(148.8346 0 -2.2765303)
(149.03701 9.7278126e-16 -2.2171119)
(149.22601 -6.1789498e-16 -2.1594342)
(149.39958 8.8266458e-16 -2.1022528)
(149.55705 -8.405905e-16 -2.0433983)
(149.69396 1.8528983e-19 -1.9862464)
(149.80577 5.0860827e-16 -1.9183929)
(149.91067 2.4214789e-16 -1.826075)
(149.7983 0 -1.8894407)
(150.08167 -2.1968137e-16 -1.2808689)
(149.23074 0 -2.6596762)
(141.17562 -1.4780081e-15 -33.571208)
(148.99798 -4.1901472e-17 -25.236752)
(144.79479 -4.0130416e-17 -31.752854)
(146.79244 -3.7618801e-17 -26.355678)
(144.96949 -3.5622486e-17 -29.768377)
(145.46067 -1.0792566e-15 -26.903258)
(144.56383 1.0842644e-15 -28.286231)
(144.49784 6.0293637e-17 -26.852216)
(143.94233 9.7197671e-16 -27.174171)
(143.67247 -7.5739616e-16 -26.384589)
(143.24393 -1.0254303e-16 -26.226778)
(142.90698 8.2615701e-16 -25.667924)
(142.52702 -7.822513e-16 -25.303178)
(142.17842 0 -24.796901)
(141.82489 0 -24.333726)
(141.4879 -7.0637678e-16 -23.814194)
(141.15963 4.4638365e-16 -23.291295)
(140.84703 0 -22.738245)
(140.54985 -6.0329316e-16 -22.169797)
(140.27133 1.0170551e-15 -21.579962)
(140.01302 2.7368157e-19 -20.973504)
(139.77713 -8.0170455e-16 -20.350243)
(139.56542 4.3492491e-16 -19.712757)
(139.37961 -7.2318667e-16 -19.062632)
(139.22116 8.8254011e-16 -18.40223)
(139.09131 -9.3288913e-17 -17.733808)
(138.99103 0 -17.059891)
(138.92099 0 -16.383042)
(138.88155 4.7879774e-16 -15.705913)
(138.87275 8.2161944e-20 -15.031157)
(138.89432 1.4442876e-16 -14.361409)
(138.94569 -1.0961896e-15 -13.699231)
(139.026 5.213302e-16 -13.04708)
(139.13411 -4.9527045e-16 -12.407266)
(139.26866 5.8881255e-16 -11.781929)
(139.42807 -4.4776014e-16 -11.173008)
(139.61061 6.3862772e-16 -10.582224)
(139.81443 0 -10.011066)
(140.03756 0 -9.4607908)
(140.27803 3.6657992e-16 -8.9324108)
(140.53382 -1.7453516e-16 -8.4267091)
(140.80293 -8.2975266e-16 -7.9442418)
(141.08343 -1.5779396e-16 -7.4853523)
(141.37344 1.052393e-15 -7.0501874)
(141.67119 2.8620023e-16 -6.6387126)
(141.97502 -1.0896599e-15 -6.2507315)
(142.28337 0 -5.885904)
(142.59483 -7.4039731e-16 -5.5437654)
(142.90813 4.7020799e-16 -5.2237438)
(143.22211 2.2388699e-16 -4.9251774)
(143.53576 4.2595298e-16 -4.6473301)
(143.8482 -8.1167044e-16 -4.3894056)
(144.15865 7.7270145e-16 -4.15056)
(144.46646 -1.1042318e-15 -3.9299125)
(144.77109 3.5049715e-16 -3.7265555)
(145.07206 3.3374735e-16 -3.5395619)
(145.36898 0 -3.3679972)
(145.66155 0 -3.2109226)
(145.94957 5.7625111e-16 -3.0673941)
(146.23278 5.4864418e-16 -2.9364534)
(146.51094 -5.2281636e-16 -2.8171572)
(146.78388 4.9729685e-16 -2.7085613)
(147.05145 -4.7373181e-16 -2.6097324)
(147.31348 4.5084114e-16 -2.5197359)
(147.56985 -1.2883584e-15 -2.4376387)
(147.82034 -8.1742851e-16 -2.3625038)
(148.0646 1.1674778e-15 -2.2933876)
(148.30197 3.7034746e-16 -2.229339)
(148.53133 0 -2.1694024)
(148.75106 6.7085363e-16 -2.1125865)
(148.95911 -6.3862987e-16 -2.0578772)
(149.153 0 -2.0043902)
(149.33079 -5.7826428e-16 -1.9505795)
(149.49115 -5.5023476e-16 -1.8952134)
(149.62861 0 -1.8406812)
(149.74838 0 -1.7694424)
(149.83853 0 -1.6996152)
(149.77441 -4.5127911e-16 -1.7044759)
(150.00783 0 -1.2099939)
(149.20069 -7.7522595e-16 -2.4197153)
(139.17747 -4.6985265e-17 -35.517823)
(146.96623 0 -26.904182)
(142.62345 -1.2635e-15 -33.49461)
(144.64472 1.2638722e-15 -28.028206)
(142.76623 0 -31.353786)
(143.22603 -1.0968724e-15 -28.503634)
(142.30368 9.7151563e-16 -29.755772)
(142.19889 0 -28.330794)
(141.62281 8.7035814e-16 -28.534819)
(141.32081 -9.3286796e-16 -27.720345)
(140.87365 5.1884345e-17 -27.464491)
(140.51385 7.387323e-16 -26.851999)
(140.11967 -9.286702e-17 -26.399523)
(139.75801 -6.1796776e-16 -25.821995)
(139.39787 5.860856e-16 -25.273332)
(139.05834 7.9967295e-17 -24.672859)
(138.73357 -5.2642553e-16 -24.063359)
(138.43002 0 -23.424473)
(138.14819 6.7495979e-17 -22.768247)
(137.89132 1.9252935e-16 -22.091007)
(137.66119 -1.2189551e-16 -21.397236)
(137.46003 -2.3082162e-16 -20.687866)
(137.28954 0 -19.965909)
(137.15129 1.0408497e-16 -19.233721)
(137.04648 -9.8420169e-17 -18.494249)
(136.97599 9.3416532e-17 -17.750376)
(136.9403 0 -17.005165)
(136.93957 -1.6893864e-16 -16.261667)
(136.97352 -4.8067872e-16 -15.522935)
(137.04155 4.5598386e-16 -14.79194)
(137.14268 -1.4423955e-16 -14.071544)
(137.27562 0 -13.364436)
(137.43878 3.911978e-16 -12.673111)
(137.63033 -6.1953954e-16 -11.999826)
(137.84823 1.181284e-16 -11.346585)