/*--------------------------------*- C++ -*----------------------------------*\
  =========                 |
  \\      /  F ield         | OpenFOAM: The Open Source CFD Toolbox
   \\    /   O peration     | Website:  https://openfoam.org
    \\  /    A nd           | Version:  6
     \\/     M anipulation  |
\*---------------------------------------------------------------------------*/
FoamFile
{
    version     2.0;
    format      ascii;
    class       volVectorField;
    location    "5000";
    object      U;
}
// * * * * * * * * * * * * * * * * * * * * * * * * * * * * * * * * * * * * * //

dimensions      [0 1 -1 0 0 0 0];

internalField   nonuniform List<vector> 
9000
(
(0.981317 0.0170266 0)
(0.955089 0.0185823 0)
(0.93119 0.0134532 0)
(0.908141 0.00866906 0)
(0.888231 0.00533967 0)
(0.871983 0.00304312 0)
(0.85863 0.00142519 0)
(0.847173 0.000247753 0)
(0.837858 -0.000715428 0)
(0.829503 -0.000997059 0)
(0.82672 -0.00601504 0)
(0.824563 0.0103081 0)
(0.825593 0.0260628 0)
(0.823965 0.0164367 0)
(0.822222 0.00729884 0)
(0.821253 0.00150264 0)
(0.820233 -0.00190394 0)
(0.818544 -0.00375175 0)
(0.816113 -0.00459462 0)
(0.813052 -0.00483372 0)
(0.80947 -0.00473507 0)
(0.805468 -0.00445611 0)
(0.801144 -0.00408869 0)
(0.796585 -0.00368723 0)
(0.791867 -0.00328363 0)
(0.787047 -0.00289548 0)
(0.78217 -0.00253148 0)
(0.777273 -0.00219561 0)
(0.772386 -0.00188872 0)
(0.767533 -0.00161062 0)
(0.762734 -0.00135958 0)
(0.758004 -0.00113448 0)
(0.753359 -0.000932703 0)
(0.748808 -0.000753447 0)
(0.744365 -0.000593533 0)
(0.740035 -0.000453091 0)
(0.73583 -0.00032819 0)
(0.731752 -0.000220359 0)
(0.727812 -0.000124447 0)
(0.72401 -4.37583e-05 0)
(0.720353 2.80234e-05 0)
(0.716844 8.72909e-05 0)
(0.713478 0.000141581 0)
(0.710262 0.000183881 0)
(0.707179 0.000227244 0)
(0.70425 0.000266811 0)
(0.70132 0.000319861 0)
(0.698816 0.000429427 0)
(0.694593 0.000581846 0)
(0.696824 0.00106991 0)
(1.00709 0.00789924 0)
(1.02355 0.0149389 0)
(1.03408 0.0158993 0)
(1.03791 0.0154099 0)
(1.03798 0.0148055 0)
(1.03632 0.0139878 0)
(1.03343 0.0129242 0)
(1.02967 0.0117663 0)
(1.02507 0.0105655 0)
(1.02051 0.00901661 0)
(1.0133 0.00717605 0)
(1.00583 0.00237626 0)
(0.993937 -0.00317747 0)
(0.984046 -0.00508825 0)
(0.975489 -0.00344975 0)
(0.967794 -0.000849166 0)
(0.960914 0.0013685 0)
(0.954861 0.00305928 0)
(0.949613 0.00433151 0)
(0.945086 0.00524564 0)
(0.941153 0.00585716 0)
(0.937678 0.00623543 0)
(0.934551 0.00644493 0)
(0.931682 0.00653457 0)
(0.929001 0.00653859 0)
(0.926452 0.0064821 0)
(0.923995 0.00638351 0)
(0.921599 0.0062561 0)
(0.919242 0.00610898 0)
(0.916908 0.00594868 0)
(0.914586 0.00577946 0)
(0.912268 0.0056046 0)
(0.909947 0.0054259 0)
(0.907622 0.00524514 0)
(0.90529 0.00506286 0)
(0.902951 0.00488031 0)
(0.900604 0.0046973 0)
(0.898252 0.00451507 0)
(0.895895 0.00433292 0)
(0.893537 0.0041522 0)
(0.891179 0.00397325 0)
(0.888824 0.00379565 0)
(0.886481 0.00362094 0)
(0.884146 0.00345261 0)
(0.881829 0.00328976 0)
(0.879539 0.00314937 0)
(0.877241 0.00301103 0)
(0.875141 0.00305042 0)
(0.872742 0.00285611 0)
(0.87195 0.00426147 0)
(1.0009 0.004757 0)
(1.00601 0.00919769 0)
(1.0118 0.00972148 0)
(1.01623 0.0094035 0)
(1.01956 0.00921183 0)
(1.0224 0.00892566 0)
(1.0248 0.00844149 0)
(1.02667 0.00786333 0)
(1.0279 0.00719703 0)
(1.02864 0.00652188 0)
(1.0283 0.00534306 0)
(1.02742 0.0054557 0)
(1.02734 0.0075263 0)
(1.02757 0.00925705 0)
(1.02661 0.00996612 0)
(1.02452 0.00975749 0)
(1.022 0.00901064 0)
(1.0194 0.00812055 0)
(1.01677 0.00730269 0)
(1.01412 0.00661316 0)
(1.01148 0.00604981 0)
(1.00888 0.00560261 0)
(1.00632 0.00525786 0)
(1.0038 0.00499724 0)
(1.00135 0.00480232 0)
(0.998952 0.00465739 0)
(0.996616 0.00454984 0)
(0.99434 0.00446953 0)
(0.992123 0.00440846 0)
(0.989961 0.00436036 0)
(0.987851 0.00432049 0)
(0.985789 0.00428521 0)
(0.983772 0.00425185 0)
(0.981795 0.00421829 0)
(0.979853 0.00418313 0)
(0.977944 0.0041451 0)
(0.976063 0.00410358 0)
(0.974208 0.00405772 0)
(0.972375 0.00400753 0)
(0.970564 0.00395258 0)
(0.96877 0.0038925 0)
(0.966995 0.0038286 0)
(0.965236 0.00376052 0)
(0.963496 0.00369081 0)
(0.961769 0.00361976 0)
(0.96007 0.00355973 0)
(0.958381 0.00350382 0)
(0.956775 0.003531 0)
(0.955194 0.00350689 0)
(0.95394 0.00390873 0)
(1.00035 0.00280571 0)
(1.00282 0.0064688 0)
(1.0062 0.0078286 0)
(1.00903 0.00822315 0)
(1.01109 0.00842623 0)
(1.01286 0.00845293 0)
(1.01452 0.00825378 0)
(1.01602 0.00791363 0)
(1.01727 0.00748842 0)
(1.01828 0.00706018 0)
(1.01898 0.00661122 0)
(1.0195 0.0069165 0)
(1.02036 0.00764372 0)
(1.02145 0.00736948 0)
(1.02224 0.00647831 0)
(1.02274 0.00576621 0)
(1.02322 0.00544561 0)
(1.02372 0.00541343 0)
(1.02417 0.00554775 0)
(1.02451 0.00576049 0)
(1.02473 0.00599092 0)
(1.02484 0.00620356 0)
(1.02486 0.00638195 0)
(1.02476 0.00652035 0)
(1.02458 0.00661846 0)
(1.0243 0.00667909 0)
(1.02395 0.00670665 0)
(1.02352 0.00670601 0)
(1.02302 0.00668181 0)
(1.02246 0.00663821 0)
(1.02185 0.00657874 0)
(1.02118 0.00650639 0)
(1.02047 0.00642354 0)
(1.01972 0.00633211 0)
(1.01894 0.00623358 0)
(1.01812 0.00612911 0)
(1.01728 0.00601955 0)
(1.01641 0.00590554 0)
(1.01552 0.00578758 0)
(1.01461 0.00566605 0)
(1.01369 0.00554155 0)
(1.01276 0.00541425 0)
(1.01182 0.00528481 0)
(1.01087 0.00515481 0)
(1.00992 0.00502548 0)
(1.00898 0.00490444 0)
(1.00805 0.00478904 0)
(1.00717 0.0047151 0)
(1.00635 0.00461646 0)
(1.00571 0.0046363 0)
(1.0002 0.00192058 0)
(1.00176 0.00500545 0)
(1.00419 0.00660798 0)
(1.00644 0.00719145 0)
(1.00816 0.0074023 0)
(1.00956 0.00742899 0)
(1.01085 0.00726581 0)
(1.01201 0.00696403 0)
(1.01297 0.00659388 0)
(1.01376 0.00623724 0)
(1.01436 0.0059367 0)
(1.01485 0.0058964 0)
(1.01545 0.00601224 0)
(1.01628 0.00590443 0)
(1.01715 0.00575201 0)
(1.01791 0.00580975 0)
(1.01862 0.0060069 0)
(1.01932 0.00618474 0)
(1.02002 0.00628912 0)
(1.02069 0.0063345 0)
(1.02136 0.00634027 0)
(1.02203 0.00631876 0)
(1.0227 0.00628044 0)
(1.02336 0.00623418 0)
(1.024 0.00618575 0)
(1.02462 0.00613813 0)
(1.02523 0.00609262 0)
(1.0258 0.0060495 0)
(1.02635 0.00600839 0)
(1.02687 0.00596854 0)
(1.02735 0.00592899 0)
(1.0278 0.00588878 0)
(1.02822 0.00584697 0)
(1.0286 0.00580273 0)
(1.02894 0.00575532 0)
(1.02925 0.0057041 0)
(1.02952 0.00564853 0)
(1.02976 0.00558817 0)
(1.02997 0.0055227 0)
(1.03014 0.00545189 0)
(1.03028 0.00537549 0)
(1.0304 0.00529354 0)
(1.03049 0.00520615 0)
(1.03056 0.00511445 0)
(1.03061 0.00501907 0)
(1.03065 0.00492334 0)
(1.03068 0.00482586 0)
(1.03074 0.00473675 0)
(1.03085 0.00462036 0)
(1.03105 0.00449487 0)
(1.00013 0.00141771 0)
(1.00117 0.0038804 0)
(1.00292 0.0053949 0)
(1.00475 0.00608198 0)
(1.00628 0.00639083 0)
(1.00757 0.00652987 0)
(1.00875 0.00651066 0)
(1.00981 0.00635808 0)
(1.01072 0.00613387 0)
(1.01147 0.0059071 0)
(1.01208 0.00571906 0)
(1.01261 0.00565696 0)
(1.01319 0.00574421 0)
(1.01392 0.00581485 0)
(1.01467 0.00579281 0)
(1.01534 0.00573921 0)
(1.01593 0.00568046 0)
(1.01652 0.00560831 0)
(1.01714 0.00553681 0)
(1.01778 0.00548914 0)
(1.01843 0.0054718 0)
(1.0191 0.00547771 0)
(1.01979 0.00549813 0)
(1.02048 0.00552658 0)
(1.02117 0.005558 0)
(1.02187 0.00558821 0)
(1.02258 0.0056142 0)
(1.02328 0.00563408 0)
(1.02397 0.00564675 0)
(1.02467 0.00565169 0)
(1.02536 0.00564873 0)
(1.02605 0.00563791 0)
(1.02673 0.00561943 0)
(1.0274 0.00559352 0)
(1.02807 0.00556043 0)
(1.02873 0.00552038 0)
(1.02938 0.00547354 0)
(1.03002 0.00542003 0)
(1.03066 0.00535994 0)
(1.03128 0.0052933 0)
(1.0319 0.00522008 0)
(1.03251 0.00514034 0)
(1.03311 0.00505413 0)
(1.03371 0.00496176 0)
(1.0343 0.00486315 0)
(1.0349 0.00475897 0)
(1.03551 0.00464651 0)
(1.03615 0.00452426 0)
(1.03683 0.00436756 0)
(1.03758 0.0041594 0)
(1.00009 0.00108861 0)
(1.00081 0.00305585 0)
(1.00211 0.00443295 0)
(1.00359 0.00519328 0)
(1.00494 0.00559203 0)
(1.00612 0.00580317 0)
(1.0072 0.0058617 0)
(1.00819 0.00579041 0)
(1.00906 0.00564211 0)
(1.0098 0.0054765 0)
(1.01045 0.00533687 0)
(1.01103 0.00527409 0)
(1.01163 0.00530418 0)
(1.0123 0.00532771 0)
(1.013 0.00526894 0)
(1.01364 0.00517823 0)
(1.01424 0.00512073 0)
(1.01484 0.0051058 0)
(1.01546 0.00511878 0)
(1.01609 0.00514845 0)
(1.01672 0.00518578 0)
(1.01736 0.00522191 0)
(1.01801 0.00525102 0)
(1.01866 0.00527111 0)
(1.01932 0.00528221 0)
(1.01998 0.00528491 0)
(1.02065 0.00528007 0)
(1.02132 0.00526862 0)
(1.022 0.00525145 0)
(1.02268 0.00522927 0)
(1.02336 0.00520258 0)
(1.02404 0.0051717 0)
(1.02472 0.00513678 0)
(1.02541 0.00509787 0)
(1.0261 0.00505487 0)
(1.02678 0.00500763 0)
(1.02747 0.00495591 0)
(1.02816 0.00489941 0)
(1.02886 0.00483782 0)
(1.02955 0.00477075 0)
(1.03025 0.00469779 0)
(1.03095 0.00461854 0)
(1.03165 0.00453249 0)
(1.03236 0.00443913 0)
(1.03308 0.0043375 0)
(1.03382 0.00422625 0)
(1.03457 0.00410128 0)
(1.03536 0.00395629 0)
(1.03619 0.00377188 0)
(1.03706 0.00352676 0)
(1.00006 0.000860325 0)
(1.00059 0.00245512 0)
(1.00157 0.00367353 0)
(1.00278 0.00443631 0)
(1.00396 0.00487322 0)
(1.00502 0.00511933 0)
(1.00601 0.00522575 0)
(1.00693 0.00521768 0)
(1.00777 0.00513669 0)
(1.00851 0.00503152 0)
(1.00917 0.00494038 0)
(1.00979 0.00489318 0)
(1.01041 0.00489604 0)
(1.01106 0.00490133 0)
(1.01173 0.00486836 0)
(1.01237 0.00482168 0)
(1.01298 0.00479785 0)
(1.01359 0.00479701 0)
(1.0142 0.00480242 0)
(1.01482 0.00480631 0)
(1.01545 0.00480909 0)
(1.01607 0.00481144 0)
(1.01671 0.00481298 0)
(1.01735 0.00481345 0)
(1.018 0.00481282 0)
(1.01865 0.00481077 0)
(1.01931 0.00480677 0)
(1.01997 0.00480023 0)
(1.02063 0.0047906 0)
(1.0213 0.00477742 0)
(1.02196 0.00476023 0)
(1.02263 0.00473868 0)
(1.0233 0.00471242 0)
(1.02397 0.00468118 0)
(1.02464 0.00464468 0)
(1.02532 0.00460267 0)
(1.02599 0.00455487 0)
(1.02667 0.00450099 0)
(1.02735 0.00444071 0)
(1.02804 0.00437365 0)
(1.02872 0.00429936 0)
(1.02942 0.00421729 0)
(1.03012 0.00412675 0)
(1.03083 0.00402679 0)
(1.03155 0.00391587 0)
(1.03229 0.00379154 0)
(1.03304 0.00364899 0)
(1.03383 0.00348047 0)
(1.03465 0.0032702 0)
(1.03549 0.00300008 0)
(1.00005 0.000694318 0)
(1.00045 0.00200255 0)
(1.00121 0.00306069 0)
(1.0022 0.00378407 0)
(1.00322 0.00423244 0)
(1.00419 0.00450228 0)
(1.0051 0.0046453 0)
(1.00596 0.00468673 0)
(1.00676 0.00465847 0)
(1.00749 0.00459913 0)
(1.00816 0.00454063 0)
(1.0088 0.00450403 0)
(1.00942 0.00449462 0)
(1.01007 0.00449152 0)
(1.01072 0.0044708 0)
(1.01136 0.00443785 0)
(1.01198 0.00441195 0)
(1.01258 0.00439839 0)
(1.0132 0.00439166 0)
(1.01381 0.00438897 0)
(1.01444 0.00439108 0)
(1.01506 0.00439752 0)
(1.0157 0.0044059 0)
(1.01634 0.00441379 0)
(1.01698 0.00441957 0)
(1.01763 0.00442212 0)
(1.01828 0.00442063 0)
(1.01893 0.00441456 0)
(1.01958 0.00440363 0)
(1.02024 0.00438772 0)
(1.0209 0.00436677 0)
(1.02156 0.00434076 0)
(1.02222 0.00430966 0)
(1.02288 0.00427341 0)
(1.02354 0.00423191 0)
(1.02421 0.004185 0)
(1.02487 0.00413244 0)
(1.02554 0.00407394 0)
(1.02621 0.0040091 0)
(1.02688 0.00393744 0)
(1.02756 0.00385835 0)
(1.02824 0.00377105 0)
(1.02893 0.00367453 0)
(1.02963 0.00356741 0)
(1.03034 0.00344763 0)
(1.03106 0.00331206 0)
(1.0318 0.00315555 0)
(1.03256 0.00297029 0)
(1.03334 0.00274325 0)
(1.03414 0.00246039 0)
(1.00004 0.000568173 0)
(1.00035 0.00165033 0)
(1.00096 0.00256061 0)
(1.00179 0.003225 0)
(1.00267 0.00366531 0)
(1.00354 0.00394517 0)
(1.00438 0.00410938 0)
(1.00519 0.00418258 0)
(1.00596 0.00419056 0)
(1.00667 0.00416399 0)
(1.00735 0.00412942 0)
(1.00799 0.00410384 0)
(1.00862 0.00409266 0)
(1.00926 0.00408642 0)
(1.0099 0.00407099 0)
(1.01054 0.00404638 0)
(1.01116 0.0040245 0)
(1.01177 0.00401233 0)
(1.01238 0.00400806 0)
(1.013 0.0040083 0)
(1.01363 0.00401144 0)
(1.01425 0.00401614 0)
(1.01488 0.00402053 0)
(1.01552 0.00402303 0)
(1.01615 0.00402278 0)
(1.0168 0.00401937 0)
(1.01744 0.00401252 0)
(1.01809 0.00400203 0)
(1.01874 0.00398772 0)
(1.01939 0.00396947 0)
(1.02004 0.00394712 0)
(1.02069 0.0039205 0)
(1.02135 0.00388939 0)
(1.02201 0.00385355 0)
(1.02266 0.00381269 0)
(1.02332 0.00376649 0)
(1.02398 0.00371455 0)
(1.02464 0.00365642 0)
(1.02531 0.00359158 0)
(1.02597 0.00351939 0)
(1.02664 0.00343909 0)
(1.02732 0.00334971 0)
(1.028 0.00325001 0)
(1.02868 0.00313833 0)
(1.02938 0.00301231 0)
(1.03008 0.00286854 0)
(1.0308 0.00270192 0)
(1.03154 0.00250528 0)
(1.03229 0.00226789 0)
(1.03304 0.00197937 0)
(1.00003 0.000468788 0)
(1.00028 0.00136852 0)
(1.00079 0.00214684 0)
(1.00148 0.00274323 0)
(1.00225 0.00316012 0)
(1.00304 0.00343732 0)
(1.00382 0.00361074 0)
(1.00458 0.00370333 0)
(1.00531 0.00373648 0)
(1.00601 0.00373437 0)
(1.00668 0.00371862 0)
(1.00733 0.00370343 0)
(1.00796 0.00369418 0)
(1.0086 0.00368712 0)
(1.00923 0.00367481 0)
(1.00986 0.00365659 0)
(1.01049 0.00363938 0)
(1.0111 0.00362851 0)
(1.01172 0.00362337 0)
(1.01234 0.00362127 0)
(1.01296 0.00362077 0)
(1.01358 0.00362125 0)
(1.01421 0.00362183 0)
(1.01484 0.00362147 0)
(1.01548 0.00361938 0)
(1.01612 0.003615 0)
(1.01676 0.00360783 0)
(1.0174 0.00359742 0)
(1.01805 0.00358339 0)
(1.01869 0.00356541 0)
(1.01934 0.00354323 0)
(1.01999 0.00351657 0)
(1.02064 0.00348519 0)
(1.02129 0.00344883 0)
(1.02195 0.00340718 0)
(1.0226 0.00335991 0)
(1.02325 0.00330662 0)
(1.02391 0.00324685 0)
(1.02457 0.00318003 0)
(1.02522 0.00310547 0)
(1.02589 0.00302233 0)
(1.02655 0.00292953 0)
(1.02722 0.00282568 0)
(1.0279 0.00270895 0)
(1.02858 0.00257683 0)
(1.02927 0.00242588 0)
(1.02997 0.00225127 0)
(1.03068 0.00204662 0)
(1.0314 0.00180318 0)
(1.03213 0.00151333 0)
(1.00002 0.00038808 0)
(1.00023 0.00113715 0)
(1.00066 0.00179852 0)
(1.00125 0.00232403 0)
(1.00193 0.00270729 0)
(1.00265 0.0029721 0)
(1.00337 0.0031457 0)
(1.00409 0.00324814 0)
(1.00479 0.00329718 0)
(1.00548 0.0033119 0)
(1.00614 0.00330973 0)
(1.00678 0.0033027 0)
(1.00742 0.00329626 0)
(1.00805 0.0032898 0)
(1.00868 0.00327993 0)
(1.00931 0.00326616 0)
(1.00993 0.0032524 0)
(1.01055 0.00324236 0)
(1.01117 0.00323638 0)
(1.01179 0.00323296 0)
(1.01241 0.00323101 0)
(1.01303 0.00322998 0)
(1.01366 0.00322909 0)
(1.01429 0.00322735 0)
(1.01492 0.00322388 0)
(1.01556 0.00321805 0)
(1.0162 0.00320936 0)
(1.01684 0.00319741 0)
(1.01748 0.00318188 0)
(1.01812 0.00316249 0)
(1.01876 0.00313902 0)
(1.01941 0.00311122 0)
(1.02006 0.00307885 0)
(1.0207 0.00304163 0)
(1.02135 0.00299922 0)
(1.022 0.00295126 0)
(1.02265 0.00289728 0)
(1.0233 0.00283675 0)
(1.02395 0.00276903 0)
(1.0246 0.00269333 0)
(1.02526 0.00260871 0)
(1.02592 0.00251397 0)
(1.02658 0.00240762 0)
(1.02724 0.00228771 0)
(1.02791 0.0021517 0)
(1.02859 0.00199622 0)
(1.02927 0.00181686 0)
(1.02996 0.00160806 0)
(1.03065 0.00136268 0)
(1.03135 0.00107518 0)
(1.00002 0.000320761 0)
(1.0002 0.000942551 0)
(1.00056 0.00149995 0)
(1.00108 0.00195516 0)
(1.00169 0.00229848 0)
(1.00234 0.00254347 0)
(1.00301 0.0027099 0)
(1.0037 0.00281442 0)
(1.00437 0.00287171 0)
(1.00504 0.00289691 0)
(1.00569 0.002904 0)
(1.00633 0.00290317 0)
(1.00697 0.00289971 0)
(1.0076 0.00289463 0)
(1.00823 0.0028868 0)
(1.00885 0.00287614 0)
(1.00948 0.00286496 0)
(1.0101 0.0028559 0)
(1.01071 0.00284968 0)
(1.01133 0.00284548 0)
(1.01195 0.00284239 0)
(1.01258 0.00283979 0)
(1.0132 0.00283704 0)
(1.01383 0.00283334 0)
(1.01446 0.00282798 0)
(1.01509 0.00282042 0)
(1.01573 0.00281025 0)
(1.01637 0.0027971 0)
(1.01701 0.00278064 0)
(1.01765 0.00276058 0)
(1.01829 0.00273664 0)
(1.01893 0.00270853 0)
(1.01957 0.00267594 0)
(1.02021 0.00263855 0)
(1.02086 0.00259596 0)
(1.0215 0.00254776 0)
(1.02214 0.00249343 0)
(1.02279 0.0024324 0)
(1.02344 0.00236396 0)
(1.02408 0.00228728 0)
(1.02473 0.00220135 0)
(1.02538 0.00210492 0)
(1.02603 0.00199645 0)
(1.02669 0.00187397 0)
(1.02735 0.00173499 0)
(1.02801 0.00157634 0)
(1.02868 0.00139404 0)
(1.02934 0.00118333 0)
(1.03001 0.000938374 0)
(1.03067 0.000655159 0)
(1.00002 0.000263215 0)
(1.00017 0.000775129 0)
(1.00049 0.00123932 0)
(1.00095 0.00162638 0)
(1.0015 0.00192611 0)
(1.0021 0.00214573 0)
(1.00273 0.00229914 0)
(1.00338 0.0023996 0)
(1.00404 0.00245913 0)
(1.00469 0.0024897 0)
(1.00533 0.00250246 0)
(1.00597 0.00250587 0)
(1.0066 0.00250486 0)
(1.00723 0.00250118 0)
(1.00785 0.00249494 0)
(1.00848 0.00248643 0)
(1.0091 0.00247719 0)
(1.00972 0.00246904 0)
(1.01034 0.00246272 0)
(1.01096 0.00245783 0)
(1.01158 0.00245368 0)
(1.0122 0.00244972 0)
(1.01283 0.00244544 0)
(1.01345 0.00244023 0)
(1.01408 0.00243349 0)
(1.01471 0.00242472 0)
(1.01535 0.00241351 0)
(1.01598 0.00239948 0)
(1.01662 0.00238229 0)
(1.01725 0.00236162 0)
(1.01789 0.00233717 0)
(1.01853 0.00230863 0)
(1.01917 0.00227568 0)
(1.01981 0.00223797 0)
(1.02045 0.00219509 0)
(1.02109 0.0021466 0)
(1.02173 0.00209195 0)
(1.02237 0.00203052 0)
(1.02301 0.0019616 0)
(1.02365 0.00188429 0)
(1.02429 0.00179756 0)
(1.02493 0.00170011 0)
(1.02557 0.00159038 0)
(1.02622 0.00146644 0)
(1.02687 0.0013259 0)
(1.02751 0.00116581 0)
(1.02816 0.000982616 0)
(1.02881 0.000772276 0)
(1.02946 0.000530005 0)
(1.0301 0.000252883 0)
(1.00002 0.000212885 0)
(1.00015 0.000627953 0)
(1.00044 0.0010076 0)
(1.00085 0.00132921 0)
(1.00135 0.00158342 0)
(1.00191 0.00177368 0)
(1.00251 0.00190953 0)
(1.00313 0.00200117 0)
(1.00377 0.00205818 0)
(1.0044 0.00208998 0)
(1.00504 0.00210533 0)
(1.00567 0.00211114 0)
(1.0063 0.00211175 0)
(1.00692 0.00210919 0)
(1.00755 0.00210415 0)
(1.00817 0.00209718 0)
(1.00879 0.00208937 0)
(1.00941 0.00208198 0)
(1.01003 0.00207566 0)
(1.01065 0.00207024 0)
(1.01127 0.00206524 0)
(1.01189 0.00206021 0)
(1.01252 0.0020547 0)
(1.01314 0.00204823 0)
(1.01377 0.00204027 0)
(1.0144 0.00203038 0)
(1.01503 0.00201815 0)
(1.01566 0.00200324 0)
(1.0163 0.00198532 0)
(1.01693 0.00196407 0)
(1.01757 0.00193919 0)
(1.0182 0.00191037 0)
(1.01884 0.00187724 0)
(1.01947 0.00183945 0)
(1.02011 0.00179657 0)
(1.02074 0.0017481 0)
(1.02138 0.00169348 0)
(1.02201 0.00163207 0)
(1.02265 0.0015631 0)
(1.02328 0.00148566 0)
(1.02392 0.00139867 0)
(1.02455 0.00130085 0)
(1.02519 0.00119064 0)
(1.02582 0.00106618 0)
(1.02646 0.000925189 0)
(1.02709 0.000764993 0)
(1.02773 0.000582441 0)
(1.02836 0.000374098 0)
(1.02898 0.000136027 0)
(1.0296 -0.000133894 0)
(1.00001 0.000167894 0)
(1.00014 0.000495866 0)
(1.0004 0.0007978 0)
(1.00077 0.00105664 0)
(1.00124 0.00126445 0)
(1.00177 0.00142259 0)
(1.00234 0.00153743 0)
(1.00294 0.00161653 0)
(1.00355 0.00166733 0)
(1.00418 0.00169706 0)
(1.0048 0.00171248 0)
(1.00543 0.00171905 0)
(1.00606 0.00172041 0)
(1.00668 0.00171854 0)
(1.0073 0.00171434 0)
(1.00793 0.00170844 0)
(1.00855 0.00170166 0)
(1.00917 0.00169486 0)
(1.00979 0.00168857 0)
(1.01041 0.00168275 0)
(1.01103 0.00167706 0)
(1.01165 0.00167112 0)
(1.01227 0.00166457 0)
(1.01289 0.001657 0)
(1.01352 0.00164797 0)
(1.01415 0.0016371 0)
(1.01478 0.00162401 0)
(1.01541 0.00160839 0)
(1.01604 0.00158991 0)
(1.01667 0.00156826 0)
(1.0173 0.00154313 0)
(1.01794 0.00151418 0)
(1.01857 0.00148105 0)
(1.0192 0.00144335 0)
(1.01983 0.00140063 0)
(1.02046 0.00135238 0)
(1.02109 0.00129801 0)
(1.02172 0.00123687 0)
(1.02235 0.00116815 0)
(1.02298 0.00109094 0)
(1.02361 0.00100416 0)
(1.02424 0.000906542 0)
(1.02486 0.00079656 0)
(1.02549 0.000672427 0)
(1.02611 0.000532035 0)
(1.02674 0.000372946 0)
(1.02735 0.000192387 0)
(1.02797 -1.25629e-05 0)
(1.02857 -0.000245168 0)
(1.02917 -0.000506967 0)
(1.00001 0.000126821 0)
(1.00013 0.000374905 0)
(1.00037 0.000604376 0)
(1.00072 0.000802803 0)
(1.00116 0.000963954 0)
(1.00166 0.0010881 0)
(1.00221 0.00117937 0)
(1.00279 0.00124313 0)
(1.00339 0.00128489 0)
(1.00401 0.00131 0)
(1.00463 0.00132347 0)
(1.00525 0.00132943 0)
(1.00587 0.00133074 0)
(1.00649 0.0013291 0)
(1.00711 0.00132539 0)
(1.00774 0.0013202 0)
(1.00836 0.00131413 0)
(1.00898 0.0013078 0)
(1.0096 0.00130156 0)
(1.01021 0.00129542 0)
(1.01083 0.00128916 0)
(1.01146 0.00128246 0)
(1.01208 0.00127502 0)
(1.0127 0.00126651 0)
(1.01333 0.00125658 0)
(1.01395 0.00124487 0)
(1.01458 0.00123107 0)
(1.01521 0.00121486 0)
(1.01584 0.00119594 0)
(1.01647 0.001174 0)
(1.0171 0.00114872 0)
(1.01773 0.00111977 0)
(1.01836 0.00108678 0)
(1.01898 0.00104932 0)
(1.01961 0.00100695 0)
(1.02024 0.000959142 0)
(1.02087 0.000905296 0)
(1.02149 0.000844725 0)
(1.02212 0.000776635 0)
(1.02274 0.000700104 0)
(1.02336 0.000614058 0)
(1.02398 0.000517247 0)
(1.0246 0.000408209 0)
(1.02522 0.000285251 0)
(1.02583 0.00014642 0)
(1.02644 -1.04861e-05 0)
(1.02704 -0.000187904 0)
(1.02764 -0.000388325 0)
(1.02823 -0.000614477 0)
(1.0288 -0.000867474 0)
(1.00001 8.85433e-05 0)
(1.00012 0.000261914 0)
(1.00035 0.000422793 0)
(1.00068 0.000562721 0)
(1.0011 0.00067724 0)
(1.00159 0.00076618 0)
(1.00212 0.000832061 0)
(1.00269 0.000878448 0)
(1.00328 0.000909095 0)
(1.00388 0.000927691 0)
(1.0045 0.000937676 0)
(1.00511 0.000941927 0)
(1.00573 0.000942506 0)
(1.00636 0.000940681 0)
(1.00698 0.000937165 0)
(1.0076 0.000932417 0)
(1.00822 0.000926855 0)
(1.00884 0.000920862 0)
(1.00945 0.000914674 0)
(1.01007 0.000908293 0)
(1.01069 0.000901551 0)
(1.01131 0.000894211 0)
(1.01193 0.000886024 0)
(1.01256 0.00087672 0)
(1.01318 0.000866007 0)
(1.01381 0.00085359 0)
(1.01443 0.000839182 0)
(1.01506 0.0008225 0)
(1.01569 0.000803257 0)
(1.01631 0.000781152 0)
(1.01694 0.00075587 0)
(1.01757 0.000727066 0)
(1.01819 0.000694365 0)
(1.01882 0.000657348 0)
(1.01945 0.000615543 0)
(1.02007 0.000568415 0)
(1.02069 0.000515358 0)
(1.02131 0.000455677 0)
(1.02193 0.000388575 0)
(1.02255 0.000313135 0)
(1.02316 0.000228304 0)
(1.02378 0.000132865 0)
(1.02439 2.5424e-05 0)
(1.02499 -9.56107e-05 0)
(1.0256 -0.000232035 0)
(1.02619 -0.000385834 0)
(1.02678 -0.000559147 0)
(1.02737 -0.00075411 0)
(1.02794 -0.000973021 0)
(1.0285 -0.00121668 0)
(1.00001 5.21399e-05 0)
(1.00012 0.000154283 0)
(1.00033 0.000249225 0)
(1.00066 0.000332046 0)
(1.00106 0.00040007 0)
(1.00154 0.000453058 0)
(1.00206 0.000492353 0)
(1.00262 0.000519974 0)
(1.0032 0.000538096 0)
(1.0038 0.000548869 0)
(1.00441 0.000554296 0)
(1.00503 0.000556063 0)
(1.00565 0.000555398 0)
(1.00626 0.000553072 0)
(1.00688 0.000549528 0)
(1.0075 0.000545042 0)
(1.00812 0.00053984 0)
(1.00874 0.000534118 0)
(1.00936 0.000527983 0)
(1.00998 0.00052141 0)
(1.0106 0.000514269 0)
(1.01122 0.000506382 0)
(1.01184 0.00049755 0)
(1.01246 0.000487561 0)
(1.01308 0.00047618 0)
(1.01371 0.000463165 0)
(1.01433 0.000448266 0)
(1.01496 0.000431227 0)
(1.01558 0.000411779 0)
(1.01621 0.000389633 0)
(1.01683 0.000364478 0)
(1.01746 0.000335969 0)
(1.01808 0.000303727 0)
(1.01871 0.000267328 0)
(1.01933 0.000226292 0)
(1.01995 0.00018008 0)
(1.02057 0.00012808 0)
(1.02118 6.9596e-05 0)
(1.0218 3.83618e-06 0)
(1.02241 -7.0102e-05 0)
(1.02302 -0.000153247 0)
(1.02362 -0.000246769 0)
(1.02422 -0.000351992 0)
(1.02482 -0.000470403 0)
(1.02541 -0.000603651 0)
(1.026 -0.000753519 0)
(1.02658 -0.000921894 0)
(1.02715 -0.00111061 0)
(1.02771 -0.00132163 0)
(1.02825 -0.00155553 0)
(1.00001 1.68168e-05 0)
(1.00011 4.97461e-05 0)
(1.00033 8.0304e-05 0)
(1.00064 0.000106863 0)
(1.00105 0.00012852 0)
(1.00151 0.000145159 0)
(1.00203 0.000157188 0)
(1.00258 0.000165244 0)
(1.00316 0.000170022 0)
(1.00376 0.000172209 0)
(1.00437 0.000172446 0)
(1.00498 0.000171263 0)
(1.0056 0.000169046 0)
(1.00622 0.000166027 0)
(1.00684 0.000162324 0)
(1.00746 0.000157998 0)
(1.00808 0.000153084 0)
(1.0087 0.000147599 0)
(1.00931 0.000141528 0)
(1.00993 0.000134807 0)
(1.01055 0.000127332 0)
(1.01117 0.00011897 0)
(1.01179 0.000109578 0)
(1.01241 9.89932e-05 0)
(1.01303 8.70393e-05 0)
(1.01365 7.35219e-05 0)
(1.01428 5.82314e-05 0)
(1.0149 4.09405e-05 0)
(1.01552 2.14001e-05 0)
(1.01615 -6.65255e-07 0)
(1.01677 -2.55607e-05 0)
(1.01739 -5.36267e-05 0)
(1.01802 -8.52438e-05 0)
(1.01864 -0.00012084 0)
(1.01926 -0.000160895 0)
(1.01987 -0.000205953 0)
(1.02049 -0.000256624 0)
(1.0211 -0.000313601 0)
(1.02171 -0.000377665 0)
(1.02232 -0.0004497 0)
(1.02292 -0.000530701 0)
(1.02352 -0.00062179 0)
(1.02411 -0.000724218 0)
(1.0247 -0.000839368 0)
(1.02528 -0.000968751 0)
(1.02586 -0.00111397 0)
(1.02643 -0.00127669 0)
(1.02698 -0.00145851 0)
(1.02753 -0.00166111 0)
(1.02805 -0.00188489 0)
(1.00001 -1.81508e-05 0)
(1.00011 -5.37717e-05 0)
(1.00033 -8.70816e-05 0)
(1.00064 -0.000116495 0)
(1.00105 -0.000141151 0)
(1.00151 -0.000160978 0)
(1.00203 -0.000176429 0)
(1.00258 -0.000188194 0)
(1.00316 -0.000197022 0)
(1.00376 -0.000203662 0)
(1.00437 -0.000208817 0)
(1.00498 -0.000213093 0)
(1.0056 -0.000216955 0)
(1.00622 -0.000220722 0)
(1.00684 -0.000224614 0)
(1.00746 -0.000228798 0)
(1.00807 -0.000233432 0)
(1.00869 -0.000238671 0)
(1.00931 -0.000244652 0)
(1.00993 -0.000251481 0)
(1.01055 -0.000259244 0)
(1.01116 -0.000268023 0)
(1.01178 -0.000277914 0)
(1.0124 -0.000289025 0)
(1.01302 -0.000301477 0)
(1.01365 -0.000315415 0)
(1.01427 -0.000331008 0)
(1.01489 -0.000348454 0)
(1.01551 -0.00036798 0)
(1.01614 -0.000389846 0)
(1.01676 -0.000414349 0)
(1.01738 -0.000441823 0)
(1.018 -0.000472649 0)
(1.01861 -0.000507254 0)
(1.01923 -0.000546117 0)
(1.01984 -0.000589782 0)
(1.02046 -0.000638855 0)
(1.02106 -0.000694021 0)
(1.02167 -0.000756046 0)
(1.02227 -0.000825791 0)
(1.02287 -0.000904215 0)
(1.02346 -0.000992386 0)
(1.02405 -0.00109148 0)
(1.02463 -0.00120279 0)
(1.0252 -0.00132769 0)
(1.02577 -0.00146763 0)
(1.02632 -0.00162408 0)
(1.02687 -0.00179844 0)
(1.0274 -0.00199216 0)
(1.02791 -0.00220553 0)
(1.00001 -5.34661e-05 0)
(1.00012 -0.000158285 0)
(1.00033 -0.000255964 0)
(1.00066 -0.000341622 0)
(1.00106 -0.000412628 0)
(1.00154 -0.000468785 0)
(1.00206 -0.000511483 0)
(1.00262 -0.000542791 0)
(1.0032 -0.000564941 0)
(1.0038 -0.00058014 0)
(1.00441 -0.000590458 0)
(1.00502 -0.000597652 0)
(1.00564 -0.000603031 0)
(1.00626 -0.000607454 0)
(1.00688 -0.000611461 0)
(1.0075 -0.000615437 0)
(1.00812 -0.000619731 0)
(1.00873 -0.000624674 0)
(1.00935 -0.000630523 0)
(1.00997 -0.000637426 0)
(1.01059 -0.000645441 0)
(1.0112 -0.000654601 0)
(1.01182 -0.000664949 0)
(1.01244 -0.000676537 0)
(1.01306 -0.000689431 0)
(1.01368 -0.000703724 0)
(1.0143 -0.000719543 0)
(1.01492 -0.000737055 0)
(1.01555 -0.000756465 0)
(1.01617 -0.000778017 0)
(1.01679 -0.000801996 0)
(1.01741 -0.000828732 0)
(1.01802 -0.000858601 0)
(1.01864 -0.000892027 0)
(1.01925 -0.000929489 0)
(1.01986 -0.000971524 0)
(1.02047 -0.00101873 0)
(1.02107 -0.00107179 0)
(1.02167 -0.00113144 0)
(1.02227 -0.00119852 0)
(1.02286 -0.00127395 0)
(1.02345 -0.00135875 0)
(1.02403 -0.00145402 0)
(1.0246 -0.00156095 0)
(1.02517 -0.00168081 0)
(1.02572 -0.0018149 0)
(1.02627 -0.00196455 0)
(1.0268 -0.00213096 0)
(1.02732 -0.00231542 0)
(1.02782 -0.00251813 0)
(1.00001 -8.9854e-05 0)
(1.00012 -0.00026587 0)
(1.00035 -0.000429453 0)
(1.00068 -0.000572186 0)
(1.0011 -0.000689652 0)
(1.00159 -0.000781723 0)
(1.00212 -0.000850968 0)
(1.00268 -0.000901 0)
(1.00327 -0.000935627 0)
(1.00388 -0.000958598 0)
(1.00449 -0.000973419 0)
(1.00511 -0.000983035 0)
(1.00573 -0.000989589 0)
(1.00635 -0.000994436 0)
(1.00697 -0.000998386 0)
(1.00759 -0.00100201 0)
(1.00821 -0.00100583 0)
(1.00882 -0.00101039 0)
(1.00944 -0.00101605 0)
(1.01006 -0.001023 0)
(1.01067 -0.00103125 0)
(1.01129 -0.00104077 0)
(1.01191 -0.00105155 0)
(1.01253 -0.00106359 0)
(1.01315 -0.00107689 0)
(1.01376 -0.00109149 0)
(1.01439 -0.00110747 0)
(1.01501 -0.00112497 0)
(1.01563 -0.00114417 0)
(1.01624 -0.00116529 0)
(1.01686 -0.00118862 0)
(1.01748 -0.00121447 0)
(1.0181 -0.00124322 0)
(1.01871 -0.00127528 0)
(1.01932 -0.00131113 0)
(1.01993 -0.0013513 0)
(1.02053 -0.00139639 0)
(1.02113 -0.00144705 0)
(1.02173 -0.001504 0)
(1.02232 -0.00156806 0)
(1.02291 -0.00164011 0)
(1.02349 -0.0017211 0)
(1.02406 -0.00181208 0)
(1.02463 -0.00191415 0)
(1.02518 -0.00202847 0)
(1.02573 -0.00215622 0)
(1.02627 -0.00229858 0)
(1.02679 -0.00245663 0)
(1.0273 -0.00263149 0)
(1.02779 -0.00282332 0)
(1.00001 -0.000128109 0)
(1.00013 -0.00037879 0)
(1.00037 -0.000610918 0)
(1.00072 -0.0008121 0)
(1.00116 -0.000976147 0)
(1.00166 -0.00110337 0)
(1.00221 -0.00119794 0)
(1.00279 -0.00126529 0)
(1.00339 -0.00131096 0)
(1.004 -0.00134037 0)
(1.00462 -0.00135859 0)
(1.00524 -0.00136982 0)
(1.00586 -0.001377 0)
(1.00648 -0.00138192 0)
(1.0071 -0.00138555 0)
(1.00772 -0.00138859 0)
(1.00834 -0.00139175 0)
(1.00896 -0.00139578 0)
(1.00957 -0.0014012 0)
(1.01019 -0.00140817 0)
(1.01081 -0.00141664 0)
(1.01142 -0.00142653 0)
(1.01204 -0.00143776 0)
(1.01266 -0.00145024 0)
(1.01328 -0.00146393 0)
(1.01389 -0.0014788 0)
(1.01451 -0.00149489 0)
(1.01513 -0.0015123 0)
(1.01575 -0.00153121 0)
(1.01637 -0.0015518 0)
(1.01699 -0.00157435 0)
(1.0176 -0.00159918 0)
(1.01822 -0.00162664 0)
(1.01883 -0.00165715 0)
(1.01944 -0.00169118 0)
(1.02004 -0.00172926 0)
(1.02065 -0.00177196 0)
(1.02124 -0.00181993 0)
(1.02183 -0.00187388 0)
(1.02242 -0.00193458 0)
(1.023 -0.00200286 0)
(1.02358 -0.00207965 0)
(1.02414 -0.00216592 0)
(1.0247 -0.00226268 0)
(1.02525 -0.00237101 0)
(1.02579 -0.00249198 0)
(1.02632 -0.00262664 0)
(1.02683 -0.00277596 0)
(1.02733 -0.00294094 0)
(1.02781 -0.00312169 0)
(1.00001 -0.000169151 0)
(1.00014 -0.00049966 0)
(1.00039 -0.000804187 0)
(1.00077 -0.00106571 0)
(1.00124 -0.00127636 0)
(1.00177 -0.0014375 0)
(1.00234 -0.00155556 0)
(1.00294 -0.00163816 0)
(1.00355 -0.00169278 0)
(1.00417 -0.00172671 0)
(1.0048 -0.00174677 0)
(1.00542 -0.00175849 0)
(1.00605 -0.00176559 0)
(1.00667 -0.00177013 0)
(1.00729 -0.0017731 0)
(1.00791 -0.00177523 0)
(1.00853 -0.00177747 0)
(1.00914 -0.00178081 0)
(1.00976 -0.00178592 0)
(1.01037 -0.00179291 0)
(1.01099 -0.00180163 0)
(1.0116 -0.00181191 0)
(1.01222 -0.0018236 0)
(1.01284 -0.00183656 0)
(1.01346 -0.00185064 0)
(1.01408 -0.00186575 0)
(1.01469 -0.00188191 0)
(1.01531 -0.00189918 0)
(1.01593 -0.0019177 0)
(1.01655 -0.00193767 0)
(1.01717 -0.00195933 0)
(1.01778 -0.00198298 0)
(1.01839 -0.002009 0)
(1.019 -0.00203779 0)
(1.01961 -0.00206981 0)
(1.02021 -0.00210557 0)
(1.02081 -0.00214565 0)
(1.02141 -0.00219066 0)
(1.02199 -0.0022413 0)
(1.02258 -0.00229831 0)
(1.02315 -0.00236248 0)
(1.02372 -0.00243469 0)
(1.02428 -0.00251583 0)
(1.02484 -0.00260688 0)
(1.02538 -0.0027088 0)
(1.02591 -0.00282257 0)
(1.02643 -0.00294915 0)
(1.02694 -0.00308941 0)
(1.02742 -0.00324425 0)
(1.0279 -0.00341374 0)
(1.00002 -0.000214104 0)
(1.00015 -0.000631632 0)
(1.00043 -0.00101379 0)
(1.00085 -0.00133801 0)
(1.00135 -0.00159496 0)