/*--------------------------------*- C++ -*----------------------------------*\
  =========                 |
  \\      /  F ield         | OpenFOAM: The Open Source CFD Toolbox
   \\    /   O peration     | Website:  https://openfoam.org
    \\  /    A nd           | Version:  6
     \\/     M anipulation  |
\*---------------------------------------------------------------------------*/
FoamFile
{
    version     2.0;
    format      ascii;
    class       volVectorField;
    location    "10000";
    object      U;
}
// * * * * * * * * * * * * * * * * * * * * * * * * * * * * * * * * * * * * * //

dimensions      [0 1 -1 0 0 0 0];

internalField   nonuniform List<vector> 
9000
(
(0.981317 0.0170266 0)
(0.955089 0.0185821 0)
(0.93119 0.0134529 0)
(0.908143 0.0086687 0)
(0.888234 0.0053392 0)
(0.871987 0.00304253 0)
(0.858636 0.00142447 0)
(0.84718 0.000246886 0)
(0.837868 -0.00071645 0)
(0.829516 -0.000998225 0)
(0.826736 -0.00601649 0)
(0.824582 0.0103068 0)
(0.825615 0.0260618 0)
(0.82399 0.0164356 0)
(0.822252 0.00729749 0)
(0.821288 0.00150091 0)
(0.820273 -0.00190613 0)
(0.81859 -0.00375447 0)
(0.816167 -0.00459791 0)
(0.813114 -0.00483767 0)
(0.809542 -0.00473972 0)
(0.805551 -0.00446156 0)
(0.801239 -0.00409499 0)
(0.796695 -0.00369452 0)
(0.791994 -0.00329197 0)
(0.787192 -0.00290505 0)
(0.782337 -0.00254239 0)
(0.777465 -0.0022081 0)
(0.772607 -0.00190295 0)
(0.767787 -0.0016269 0)
(0.763025 -0.00137816 0)
(0.758339 -0.00115579 0)
(0.753743 -0.000957126 0)
(0.749251 -0.000781552 0)
(0.744874 -0.000625927 0)
(0.740622 -0.000490579 0)
(0.736507 -0.000371745 0)
(0.732536 -0.000271171 0)
(0.728719 -0.000184141 0)
(0.725064 -0.000114224 0)
(0.721581 -5.58802e-05 0)
(0.718282 -1.36918e-05 0)
(0.71517 1.86114e-05 0)
(0.712268 3.19344e-05 0)
(0.709578 3.57101e-05 0)
(0.707152 1.94331e-05 0)
(0.70489 -2.03092e-05 0)
(0.703298 -1.65705e-05 0)
(0.700381 -0.000232989 0)
(0.704987 0.000411947 0)
(1.00709 0.00789914 0)
(1.02355 0.0149386 0)
(1.03408 0.0158988 0)
(1.03791 0.0154092 0)
(1.03799 0.0148046 0)
(1.03633 0.0139867 0)
(1.03343 0.0129228 0)
(1.02967 0.0117647 0)
(1.02507 0.0105637 0)
(1.02051 0.00901444 0)
(1.01331 0.00717359 0)
(1.00584 0.00237338 0)
(0.993947 -0.00318076 0)
(0.984058 -0.00509194 0)
(0.975505 -0.00345386 0)
(0.967813 -0.000853741 0)
(0.960937 0.00136339 0)
(0.954888 0.00305357 0)
(0.949645 0.0043251 0)
(0.945124 0.00523843 0)
(0.941196 0.005849 0)
(0.937729 0.00622616 0)
(0.93461 0.00643438 0)
(0.93175 0.00652252 0)
(0.929078 0.0065248 0)
(0.926541 0.00646629 0)
(0.924098 0.00636538 0)
(0.921717 0.00623526 0)
(0.919378 0.00608501 0)
(0.917064 0.00592107 0)
(0.914765 0.00574764 0)
(0.912473 0.00556784 0)
(0.910183 0.0053834 0)
(0.907893 0.00519586 0)
(0.905601 0.00500566 0)
(0.903308 0.00481363 0)
(0.901015 0.00461941 0)
(0.898725 0.00442361 0)
(0.896441 0.00422513 0)
(0.894167 0.00402426 0)
(0.89191 0.00382034 0)
(0.889673 0.00361129 0)
(0.887469 0.00339635 0)
(0.885302 0.00317511 0)
(0.883185 0.00294012 0)
(0.881141 0.00269975 0)
(0.879135 0.0024092 0)
(0.877409 0.00222411 0)
(0.875404 0.00160038 0)
(0.874957 0.00242 0)
(1.0009 0.00475688 0)
(1.00601 0.00919734 0)
(1.0118 0.00972089 0)
(1.01623 0.00940265 0)
(1.01956 0.0092107 0)
(1.0224 0.00892422 0)
(1.02481 0.00843972 0)
(1.02667 0.00786119 0)
(1.02791 0.0071945 0)
(1.02864 0.00651892 0)
(1.02831 0.00533962 0)
(1.02743 0.00545177 0)
(1.02735 0.00752188 0)
(1.02758 0.00925209 0)
(1.02662 0.00996052 0)
(1.02454 0.0097511 0)
(1.02203 0.00900332 0)
(1.01943 0.00811215 0)
(1.0168 0.00729304 0)
(1.01416 0.00660208 0)
(1.01153 0.00603709 0)
(1.00893 0.00558801 0)
(1.00638 0.00524113 0)
(1.00387 0.00497809 0)
(1.00143 0.00478041 0)
(0.999044 0.00463232 0)
(0.996722 0.00452117 0)
(0.994463 0.00443673 0)
(0.992263 0.00437091 0)
(0.990122 0.00431734 0)
(0.988036 0.00427116 0)
(0.986001 0.00422856 0)
(0.984014 0.00418671 0)
(0.982072 0.00414321 0)
(0.980171 0.00409643 0)
(0.978309 0.00404466 0)
(0.976483 0.00398689 0)
(0.97469 0.0039216 0)
(0.972931 0.00384794 0)
(0.971205 0.00376455 0)
(0.969512 0.00366968 0)
(0.967854 0.003562 0)
(0.966236 0.00343853 0)
(0.964664 0.00329719 0)
(0.96314 0.00313187 0)
(0.961686 0.00294261 0)
(0.960292 0.00270256 0)
(0.959046 0.00246321 0)
(0.957853 0.00200343 0)
(0.956986 0.00177751 0)
(1.00035 0.00280556 0)
(1.00282 0.00646834 0)
(1.0062 0.00782783 0)
(1.00903 0.00822205 0)
(1.01109 0.00842479 0)
(1.01286 0.00845111 0)
(1.01452 0.00825155 0)
(1.01602 0.00791096 0)
(1.01728 0.00748527 0)
(1.01829 0.0070565 0)
(1.01899 0.00660694 0)
(1.01951 0.00691156 0)
(1.02037 0.00763801 0)
(1.02146 0.00736287 0)
(1.02225 0.00647067 0)
(1.02275 0.00575741 0)
(1.02324 0.00543551 0)
(1.02375 0.00540189 0)
(1.0242 0.00553459 0)
(1.02454 0.0057455 0)
(1.02477 0.00597386 0)
(1.02489 0.00618417 0)
(1.02491 0.00635989 0)
(1.02482 0.00649525 0)
(1.02465 0.00658988 0)
(1.02438 0.00664653 0)
(1.02404 0.00666952 0)
(1.02363 0.00666362 0)
(1.02314 0.00663336 0)
(1.0226 0.00658276 0)
(1.02201 0.0065152 0)
(1.02137 0.00643344 0)
(1.02069 0.00633964 0)
(1.01997 0.00623542 0)
(1.01923 0.00612187 0)
(1.01845 0.0059997 0)
(1.01766 0.00586913 0)
(1.01685 0.00573007 0)
(1.01603 0.00558195 0)
(1.0152 0.00542387 0)
(1.01437 0.0052545 0)
(1.01354 0.00507157 0)
(1.01272 0.00487218 0)
(1.01192 0.00465257 0)
(1.01115 0.00440643 0)
(1.01041 0.00412949 0)
(1.00972 0.00379978 0)
(1.00911 0.00342824 0)
(1.00856 0.00289249 0)
(1.00814 0.00233499 0)
(1.0002 0.00192039 0)
(1.00176 0.00500488 0)
(1.00419 0.00660703 0)
(1.00645 0.00719008 0)
(1.00816 0.0074005 0)
(1.00956 0.00742673 0)
(1.01086 0.00726305 0)
(1.01201 0.00696073 0)
(1.01298 0.00658999 0)
(1.01376 0.0062327 0)
(1.01437 0.00593142 0)
(1.01486 0.00589032 0)
(1.01546 0.00600525 0)
(1.01629 0.00589644 0)
(1.01716 0.00574289 0)
(1.01793 0.00579935 0)
(1.01864 0.00599504 0)
(1.01935 0.0061712 0)
(1.02004 0.00627366 0)
(1.02073 0.00631683 0)
(1.0214 0.00632006 0)
(1.02208 0.00629566 0)
(1.02275 0.00625402 0)
(1.02341 0.00620396 0)
(1.02407 0.00615118 0)
(1.0247 0.00609859 0)
(1.02531 0.00604738 0)
(1.0259 0.00599773 0)
(1.02647 0.00594912 0)
(1.027 0.00590063 0)
(1.0275 0.00585111 0)
(1.02797 0.00579936 0)
(1.02841 0.00574417 0)
(1.02882 0.00568433 0)
(1.02919 0.00561868 0)
(1.02953 0.00554603 0)
(1.02985 0.00546515 0)
(1.03014 0.00537469 0)
(1.0304 0.00527316 0)
(1.03064 0.00515885 0)
(1.03085 0.0050295 0)
(1.03106 0.0048823 0)
(1.03125 0.00471361 0)
(1.03143 0.00451913 0)
(1.03161 0.00429196 0)
(1.0318 0.00402445 0)
(1.032 0.003699 0)
(1.03222 0.00330674 0)
(1.03247 0.0027808 0)
(1.03274 0.00214403 0)
(1.00013 0.00141749 0)
(1.00117 0.00387973 0)
(1.00292 0.00539376 0)
(1.00475 0.00608037 0)
(1.00628 0.0063887 0)
(1.00757 0.0065272 0)
(1.00875 0.00650741 0)
(1.00982 0.0063542 0)
(1.01072 0.00612928 0)
(1.01147 0.00590175 0)
(1.01209 0.00571287 0)
(1.01262 0.00564982 0)
(1.0132 0.00573602 0)
(1.01393 0.00580547 0)
(1.01469 0.00578208 0)
(1.01536 0.00572693 0)
(1.01595 0.00566643 0)
(1.01655 0.00559228 0)
(1.01717 0.00551851 0)
(1.01781 0.00546827 0)
(1.01847 0.00544801 0)
(1.01914 0.0054506 0)
(1.01983 0.00546725 0)
(1.02053 0.0054914 0)
(1.02124 0.00551792 0)
(1.02195 0.00554253 0)
(1.02266 0.00556211 0)
(1.02337 0.00557463 0)
(1.02408 0.00557885 0)
(1.02479 0.00557407 0)
(1.0255 0.00555987 0)
(1.02621 0.00553606 0)
(1.02691 0.00550249 0)
(1.02761 0.00545902 0)
(1.02831 0.0054054 0)
(1.029 0.00534126 0)
(1.02968 0.005266 0)
(1.03037 0.00517878 0)
(1.03105 0.00507846 0)
(1.03173 0.00496348 0)
(1.0324 0.0048317 0)
(1.03308 0.00468035 0)
(1.03376 0.00450573 0)
(1.03444 0.00430305 0)
(1.03513 0.00406532 0)
(1.03583 0.00378393 0)
(1.03654 0.00344384 0)
(1.03727 0.00303048 0)
(1.03799 0.00250337 0)
(1.0387 0.00185296 0)
(1.00009 0.00108835 0)
(1.00081 0.00305508 0)
(1.00211 0.00443164 0)
(1.00359 0.00519142 0)
(1.00494 0.00558959 0)
(1.00612 0.00580011 0)
(1.0072 0.00585797 0)
(1.00819 0.00578595 0)
(1.00906 0.00563685 0)
(1.00981 0.00547036 0)
(1.01045 0.00532975 0)
(1.01104 0.00526589 0)
(1.01164 0.00529477 0)
(1.01232 0.00531693 0)
(1.01301 0.00525661 0)
(1.01366 0.00516416 0)
(1.01426 0.00510468 0)
(1.01486 0.00508752 0)
(1.01548 0.00509797 0)
(1.01612 0.00512476 0)
(1.01676 0.00515883 0)
(1.0174 0.00519124 0)
(1.01806 0.00521611 0)
(1.01872 0.00523137 0)
(1.01938 0.00523695 0)
(1.02005 0.00523335 0)
(1.02073 0.0052213 0)
(1.02142 0.00520159 0)
(1.0221 0.00517494 0)
(1.0228 0.00514187 0)
(1.02349 0.00510263 0)
(1.02419 0.00505726 0)
(1.0249 0.00500558 0)
(1.02561 0.00494719 0)
(1.02632 0.00488152 0)
(1.02704 0.00480774 0)
(1.02776 0.00472485 0)
(1.02849 0.00463156 0)
(1.02922 0.00452626 0)
(1.02996 0.004407 0)
(1.03071 0.00427127 0)
(1.03147 0.00411595 0)
(1.03223 0.00393703 0)
(1.03301 0.00372939 0)
(1.03381 0.00348617 0)
(1.03461 0.00319863 0)
(1.03543 0.00285386 0)
(1.03626 0.00243735 0)
(1.03708 0.00192299 0)
(1.03787 0.00129889 0)
(1.00006 0.000860036 0)
(1.00059 0.00245425 0)
(1.00157 0.00367206 0)
(1.00278 0.00443422 0)
(1.00396 0.00487047 0)
(1.00503 0.00511589 0)
(1.00602 0.00522155 0)
(1.00694 0.00521266 0)
(1.00777 0.00513079 0)
(1.00852 0.00502464 0)
(1.00918 0.0049324 0)
(1.0098 0.00488398 0)
(1.01042 0.00488548 0)
(1.01107 0.00488925 0)
(1.01174 0.00485456 0)
(1.01239 0.00480593 0)
(1.013 0.00477991 0)
(1.01361 0.00477658 0)
(1.01423 0.00477917 0)
(1.01485 0.00477986 0)
(1.01548 0.00477899 0)
(1.01611 0.0047772 0)
(1.01675 0.00477404 0)
(1.0174 0.00476916 0)
(1.01806 0.00476244 0)
(1.01872 0.00475345 0)
(1.01938 0.00474152 0)
(1.02005 0.00472592 0)
(1.02073 0.00470592 0)
(1.02141 0.00468084 0)
(1.02209 0.00464998 0)
(1.02277 0.00461267 0)
(1.02346 0.00456823 0)
(1.02415 0.00451592 0)
(1.02485 0.00445495 0)
(1.02555 0.0043844 0)
(1.02626 0.0043032 0)
(1.02697 0.00421006 0)
(1.02769 0.00410341 0)
(1.02841 0.0039813 0)
(1.02915 0.00384129 0)
(1.02989 0.00368032 0)
(1.03064 0.00349452 0)
(1.03141 0.00327898 0)
(1.03218 0.00302731 0)
(1.03297 0.00273147 0)
(1.03376 0.00238066 0)
(1.03455 0.00196261 0)
(1.03534 0.00146006 0)
(1.03609 0.000864873 0)
(1.00005 0.000693999 0)
(1.00045 0.00200158 0)
(1.00122 0.00305907 0)
(1.00221 0.00378176 0)
(1.00322 0.00422941 0)
(1.00419 0.00449847 0)
(1.0051 0.00464067 0)
(1.00596 0.0046812 0)
(1.00676 0.00465196 0)
(1.0075 0.00459153 0)
(1.00817 0.00453183 0)
(1.0088 0.00449389 0)
(1.00943 0.00448298 0)
(1.01008 0.00447821 0)
(1.01073 0.00445559 0)
(1.01137 0.0044205 0)
(1.01199 0.0043922 0)
(1.0126 0.00437591 0)
(1.01322 0.00436609 0)
(1.01384 0.0043599 0)
(1.01447 0.00435805 0)
(1.0151 0.00435999 0)
(1.01574 0.00436326 0)
(1.01639 0.00436535 0)
(1.01704 0.00436452 0)
(1.01769 0.00435954 0)
(1.01835 0.00434947 0)
(1.01901 0.0043336 0)
(1.01967 0.00431146 0)
(1.02034 0.00428271 0)
(1.02101 0.00424703 0)
(1.02169 0.00420408 0)
(1.02237 0.00415347 0)
(1.02305 0.00409468 0)
(1.02373 0.00402708 0)
(1.02442 0.00394984 0)
(1.02511 0.00386193 0)
(1.02581 0.00376206 0)
(1.02652 0.00364864 0)
(1.02722 0.00351969 0)
(1.02794 0.00337274 0)
(1.02866 0.00320475 0)
(1.02939 0.00301191 0)
(1.03013 0.00278954 0)
(1.03088 0.00253173 0)
(1.03163 0.00223129 0)
(1.03238 0.00187927 0)
(1.03313 0.00146589 0)
(1.03386 0.000979527 0)
(1.03455 0.000415761 0)
(1.00004 0.000567825 0)
(1.00035 0.00164928 0)
(1.00096 0.00255885 0)
(1.00179 0.00322249 0)
(1.00267 0.00366201 0)
(1.00354 0.00394103 0)
(1.00438 0.00410434 0)
(1.00519 0.00417657 0)
(1.00596 0.00418347 0)
(1.00668 0.00415573 0)
(1.00735 0.00411985 0)
(1.008 0.00409282 0)
(1.00863 0.00408001 0)
(1.00927 0.00407195 0)
(1.00991 0.00405447 0)
(1.01055 0.00402755 0)
(1.01117 0.00400306 0)
(1.01179 0.00398795 0)
(1.01241 0.00398036 0)
(1.01303 0.00397682 0)
(1.01365 0.00397569 0)
(1.01429 0.00397555 0)
(1.01492 0.00397445 0)
(1.01556 0.00397071 0)
(1.01621 0.00396336 0)
(1.01685 0.00395187 0)
(1.01751 0.00393584 0)
(1.01816 0.00391486 0)
(1.01882 0.0038886 0)
(1.01948 0.00385667 0)
(1.02015 0.00381866 0)
(1.02082 0.00377408 0)
(1.02149 0.00372232 0)
(1.02216 0.00366271 0)
(1.02284 0.0035944 0)
(1.02352 0.00351642 0)
(1.0242 0.0034276 0)
(1.02489 0.00332653 0)
(1.02558 0.00321155 0)
(1.02627 0.00308061 0)
(1.02698 0.00293128 0)
(1.02768 0.00276057 0)
(1.02839 0.00256488 0)
(1.02911 0.00233984 0)
(1.02983 0.00208016 0)
(1.03055 0.00177962 0)
(1.03126 0.00143097 0)
(1.03197 0.00102672 0)
(1.03265 0.000559068 0)
(1.0333 2.6466e-05 0)
(1.00003 0.000468414 0)
(1.00028 0.00136739 0)
(1.00079 0.00214494 0)
(1.00148 0.00274052 0)
(1.00225 0.00315657 0)
(1.00304 0.00343287 0)
(1.00382 0.00360532 0)
(1.00458 0.00369686 0)
(1.00532 0.00372886 0)
(1.00602 0.00372549 0)
(1.00669 0.00370834 0)
(1.00733 0.00369159 0)
(1.00797 0.00368059 0)
(1.00861 0.00367158 0)
(1.00924 0.00365709 0)
(1.00988 0.00363639 0)
(1.0105 0.0036164 0)
(1.01112 0.00360238 0)
(1.01174 0.00359369 0)
(1.01236 0.00358756 0)
(1.01299 0.00358252 0)
(1.01361 0.00357784 0)
(1.01425 0.00357257 0)
(1.01488 0.00356559 0)
(1.01552 0.00355598 0)
(1.01617 0.00354304 0)
(1.01682 0.00352615 0)
(1.01747 0.00350466 0)
(1.01812 0.00347801 0)
(1.01878 0.00344563 0)
(1.01944 0.00340698 0)
(1.0201 0.00336149 0)
(1.02077 0.00330851 0)
(1.02143 0.00324734 0)
(1.0221 0.00317714 0)
(1.02277 0.00309694 0)
(1.02345 0.00300559 0)
(1.02412 0.00290173 0)
(1.0248 0.00278371 0)
(1.02549 0.00264957 0)
(1.02617 0.00249696 0)
(1.02686 0.00232306 0)
(1.02756 0.00212452 0)
(1.02825 0.00189736 0)
(1.02894 0.00163692 0)
(1.02964 0.00133792 0)
(1.03032 0.000994561 0)
(1.03099 0.00060124 0)
(1.03163 0.000152764 0)
(1.03224 -0.000350602 0)
(1.00002 0.000387682 0)
(1.00023 0.00113595 0)
(1.00066 0.0017965 0)
(1.00125 0.00232116 0)
(1.00193 0.00270351 0)
(1.00265 0.00296737 0)
(1.00337 0.00313994 0)
(1.00409 0.00324126 0)
(1.0048 0.00328909 0)
(1.00548 0.00330246 0)
(1.00614 0.0032988 0)
(1.00679 0.00329012 0)
(1.00742 0.00328183 0)
(1.00806 0.00327329 0)
(1.00869 0.00326109 0)
(1.00932 0.00324471 0)
(1.00995 0.003228 0)
(1.01057 0.00321463 0)
(1.01119 0.0032049 0)
(1.01181 0.00319723 0)
(1.01243 0.00319049 0)
(1.01306 0.00318402 0)
(1.01369 0.00317698 0)
(1.01433 0.00316826 0)
(1.01496 0.00315689 0)
(1.0156 0.00314208 0)
(1.01625 0.00312319 0)
(1.0169 0.00309965 0)
(1.01755 0.00307092 0)
(1.0182 0.00303651 0)
(1.01885 0.00299589 0)
(1.01951 0.00294852 0)
(1.02017 0.00289376 0)
(1.02083 0.0028309 0)
(1.02149 0.00275909 0)
(1.02215 0.00267734 0)
(1.02282 0.00258448 0)
(1.02348 0.00247913 0)
(1.02415 0.00235966 0)
(1.02483 0.00222414 0)
(1.0255 0.0020703 0)
(1.02617 0.00189548 0)
(1.02685 0.00169658 0)
(1.02752 0.00147 0)
(1.02819 0.0012117 0)
(1.02886 0.000917238 0)
(1.02952 0.000582016 0)
(1.03015 0.000201919 0)
(1.03076 -0.000226445 0)
(1.03134 -0.000701731 0)
(1.00002 0.000320341 0)
(1.0002 0.000941284 0)
(1.00056 0.00149782 0)
(1.00108 0.00195213 0)
(1.00169 0.0022945 0)
(1.00234 0.00253848 0)
(1.00302 0.00270383 0)
(1.0037 0.00280717 0)
(1.00438 0.00286318 0)
(1.00504 0.00288696 0)
(1.0057 0.00289248 0)
(1.00634 0.00288991 0)
(1.00697 0.0028845 0)
(1.0076 0.00287725 0)
(1.00824 0.00286698 0)
(1.00886 0.00285357 0)
(1.00949 0.0028393 0)
(1.01011 0.00282675 0)
(1.01073 0.00281659 0)
(1.01135 0.00280795 0)
(1.01197 0.00279984 0)
(1.0126 0.00279157 0)
(1.01323 0.00278239 0)
(1.01386 0.00277141 0)
(1.0145 0.00275781 0)
(1.01514 0.00274091 0)
(1.01578 0.00272013 0)
(1.01642 0.00269495 0)
(1.01707 0.00266482 0)
(1.01771 0.00262921 0)
(1.01836 0.00258757 0)
(1.01901 0.0025393 0)
(1.01967 0.00248372 0)
(1.02032 0.00242007 0)
(1.02097 0.00234746 0)
(1.02163 0.0022649 0)
(1.02229 0.00217119 0)
(1.02295 0.00206499 0)
(1.02361 0.00194469 0)
(1.02427 0.00180846 0)
(1.02493 0.00165413 0)
(1.02559 0.00147925 0)
(1.02625 0.00128098 0)
(1.0269 0.00105614 0)
(1.02755 0.000801236 0)
(1.02819 0.000512612 0)
(1.02882 0.000186648 0)
(1.02943 -0.000179628 0)
(1.03001 -0.000588365 0)
(1.03056 -0.00103765 0)
(1.00002 0.000262776 0)
(1.00017 0.000773804 0)
(1.00049 0.00123709 0)
(1.00095 0.00162321 0)
(1.0015 0.00192195 0)
(1.0021 0.00214051 0)
(1.00273 0.00229279 0)
(1.00338 0.00239203 0)
(1.00404 0.00245021 0)
(1.00469 0.0024793 0)
(1.00533 0.00249042 0)
(1.00597 0.00249202 0)
(1.0066 0.00248897 0)
(1.00723 0.00248303 0)
(1.00786 0.00247424 0)
(1.00849 0.00246287 0)
(1.00911 0.00245041 0)
(1.00973 0.00243863 0)
(1.01035 0.00242823 0)
(1.01097 0.00241872 0)
(1.0116 0.00240936 0)
(1.01222 0.00239951 0)
(1.01285 0.00238857 0)
(1.01348 0.00237583 0)
(1.01411 0.00236057 0)
(1.01475 0.00234215 0)
(1.01539 0.00232001 0)
(1.01603 0.00229358 0)
(1.01667 0.00226233 0)
(1.01731 0.0022257 0)
(1.01796 0.00218313 0)
(1.0186 0.00213399 0)
(1.01925 0.0020776 0)
(1.0199 0.00201319 0)
(1.02055 0.0019399 0)
(1.02119 0.00185672 0)
(1.02184 0.0017625 0)
(1.02249 0.00165591 0)
(1.02314 0.00153541 0)
(1.02379 0.00139925 0)
(1.02444 0.00124541 0)
(1.02509 0.00107161 0)
(1.02573 0.000875301 0)
(1.02637 0.000653668 0)
(1.027 0.000403727 0)
(1.02762 0.00012246 0)
(1.02822 -0.000192957 0)
(1.02881 -0.000544647 0)
(1.02937 -0.000933913 0)
(1.02989 -0.00135859 0)
(1.00002 0.000212429 0)
(1.00015 0.000626578 0)
(1.00044 0.00100528 0)
(1.00085 0.00132592 0)
(1.00135 0.0015791 0)
(1.00191 0.00176827 0)
(1.00251 0.00190294 0)
(1.00314 0.0019933 0)
(1.00377 0.00204892 0)
(1.0044 0.00207919 0)
(1.00504 0.00209285 0)
(1.00567 0.00209678 0)
(1.0063 0.00209528 0)
(1.00693 0.00209037 0)
(1.00755 0.0020827 0)
(1.00818 0.00207278 0)
(1.0088 0.00206164 0)
(1.00942 0.0020505 0)
(1.01004 0.00203996 0)
(1.01066 0.00202978 0)
(1.01129 0.00201941 0)
(1.01191 0.00200831 0)
(1.01254 0.00199596 0)
(1.01317 0.00198174 0)
(1.0138 0.00196504 0)
(1.01443 0.00194525 0)
(1.01506 0.00192182 0)
(1.0157 0.00189424 0)
(1.01634 0.00186196 0)
(1.01698 0.00182445 0)
(1.01762 0.00178114 0)
(1.01826 0.0017314 0)
(1.0189 0.00167455 0)
(1.01954 0.00160982 0)
(1.02019 0.00153634 0)
(1.02083 0.00145312 0)
(1.02147 0.00135901 0)
(1.02211 0.00125274 0)
(1.02275 0.00113282 0)
(1.02339 0.000997599 0)
(1.02403 0.000845187 0)
(1.02466 0.000673497 0)
(1.02529 0.000480232 0)
(1.02591 0.000262936 0)
(1.02652 1.90666e-05 0)
(1.02712 -0.000253849 0)
(1.0277 -0.000558009 0)
(1.02827 -0.000894901 0)
(1.0288 -0.00126526 0)
(1.02931 -0.00166687 0)
(1.00001 0.000167425 0)
(1.00014 0.000494449 0)
(1.0004 0.000795413 0)
(1.00077 0.00105324 0)
(1.00124 0.00126 0)
(1.00177 0.00141701 0)
(1.00234 0.00153064 0)
(1.00294 0.00160843 0)
(1.00356 0.00165779 0)
(1.00418 0.00168595 0)
(1.00481 0.00169962 0)
(1.00543 0.00170425 0)
(1.00606 0.00170346 0)
(1.00668 0.00169917 0)
(1.00731 0.00169227 0)
(1.00793 0.00168333 0)
(1.00855 0.00167313 0)
(1.00918 0.0016625 0)
(1.0098 0.00165188 0)
(1.01042 0.00164118 0)
(1.01104 0.00162999 0)
(1.01166 0.00161785 0)
(1.01229 0.0016043 0)
(1.01291 0.00158882 0)
(1.01354 0.00157087 0)
(1.01417 0.00154991 0)
(1.0148 0.00152544 0)
(1.01544 0.00149693 0)
(1.01607 0.0014639 0)
(1.01671 0.00142578 0)
(1.01734 0.00138202 0)
(1.01798 0.00133199 0)
(1.01862 0.001275 0)
(1.01926 0.00121029 0)
(1.01989 0.00113699 0)
(1.02053 0.00105413 0)
(1.02116 0.000960608 0)
(1.02179 0.000855176 0)
(1.02243 0.000736438 0)
(1.02305 0.000602826 0)
(1.02368 0.000452602 0)
(1.0243 0.000283863 0)
(1.02491 9.45595e-05 0)
(1.02552 -0.000117454 0)
(1.02611 -0.000354332 0)
(1.02669 -0.000618097 0)
(1.02726 -0.000910454 0)
(1.0278 -0.00123243 0)
(1.02832 -0.00158439 0)
(1.02881 -0.00196416 0)
(1.00001 0.00012634 0)
(1.00013 0.000373453 0)
(1.00037 0.000601932 0)
(1.00072 0.000799329 0)
(1.00116 0.000959397 0)
(1.00166 0.00108239 0)
(1.00221 0.00117242 0)
(1.00279 0.00123484 0)
(1.00339 0.00127513 0)
(1.00401 0.00129863 0)
(1.00463 0.00131032 0)
(1.00525 0.00131429 0)
(1.00587 0.0013134 0)
(1.0065 0.00130929 0)
(1.00712 0.00130282 0)
(1.00774 0.00129453 0)
(1.00836 0.00128498 0)
(1.00898 0.00127473 0)
(1.0096 0.00126408 0)
(1.01022 0.00125298 0)
(1.01084 0.00124112 0)
(1.01147 0.00122812 0)
(1.01209 0.00121358 0)
(1.01272 0.00119705 0)
(1.01334 0.00117807 0)
(1.01397 0.00115615 0)
(1.0146 0.00113082 0)
(1.01523 0.00110161 0)
(1.01586 0.00106801 0)
(1.01649 0.0010295 0)
(1.01713 0.000985516 0)
(1.01776 0.000935439 0)
(1.01839 0.000878592 0)
(1.01902 0.000814218 0)
(1.01965 0.000741471 0)
(1.02028 0.000659399 0)
(1.02091 0.000566941 0)
(1.02153 0.000462904 0)
(1.02216 0.000345964 0)
(1.02277 0.000214657 0)
(1.02339 6.73782e-05 0)
(1.024 -9.75996e-05 0)
(1.0246 -0.000282101 0)
(1.02519 -0.000487995 0)
(1.02577 -0.000717107 0)
(1.02633 -0.000971092 0)
(1.02688 -0.00125127 0)
(1.02741 -0.00155835 0)
(1.02791 -0.00189243 0)
(1.02838 -0.00225149 0)
(1.00001 8.80541e-05 0)
(1.00012 0.000260438 0)
(1.00035 0.000420307 0)
(1.00068 0.000559187 0)
(1.0011 0.000672604 0)
(1.00159 0.000760371 0)
(1.00212 0.000824992 0)
(1.00269 0.000870014 0)
(1.00328 0.000899169 0)
(1.00388 0.000916125 0)
(1.0045 0.000924299 0)
(1.00512 0.000926538 0)
(1.00574 0.000924876 0)
(1.00636 0.000920548 0)
(1.00698 0.000914229 0)
(1.0076 0.00090634 0)
(1.00822 0.000897248 0)
(1.00884 0.000887288 0)
(1.00946 0.000876637 0)
(1.01008 0.000865233 0)
(1.0107 0.000852833 0)
(1.01132 0.000839121 0)
(1.01194 0.000823755 0)
(1.01257 0.00080636 0)
(1.01319 0.000786529 0)
(1.01382 0.000763835 0)
(1.01444 0.000737845 0)
(1.01507 0.000708108 0)
(1.0157 0.000674151 0)
(1.01633 0.000635465 0)
(1.01696 0.000591499 0)
(1.01759 0.000541647 0)
(1.01821 0.000485243 0)
(1.01884 0.000421544 0)
(1.01947 0.000349725 0)
(1.02009 0.000268864 0)
(1.02071 0.000177938 0)
(1.02133 7.58126e-05 0)
(1.02194 -3.87616e-05 0)
(1.02255 -0.000167149 0)
(1.02315 -0.000310823 0)
(1.02375 -0.000471348 0)
(1.02434 -0.000650343 0)
(1.02491 -0.000849436 0)
(1.02548 -0.00107017 0)
(1.02603 -0.00131391 0)
(1.02656 -0.00158169 0)
(1.02707 -0.00187395 0)
(1.02756 -0.00219067 0)
(1.02801 -0.00252996 0)
(1.00001 5.16453e-05 0)
(1.00012 0.00015279 0)
(1.00033 0.000246711 0)
(1.00066 0.000328472 0)
(1.00106 0.000395382 0)
(1.00154 0.000447184 0)
(1.00206 0.000485206 0)
(1.00262 0.000511447 0)
(1.0032 0.000528062 0)
(1.0038 0.000537178 0)
(1.00441 0.000540775 0)
(1.00503 0.00054051 0)
(1.00565 0.000537583 0)
(1.00627 0.000532732 0)
(1.00689 0.000526361 0)
(1.00751 0.000518706 0)
(1.00813 0.000509947 0)
(1.00875 0.000500229 0)
(1.00936 0.0004896 0)
(1.00998 0.000477972 0)
(1.0106 0.000465143 0)
(1.01122 0.000450852 0)
(1.01184 0.000434812 0)
(1.01247 0.000416707 0)
(1.01309 0.000396189 0)
(1.01371 0.000372887 0)
(1.01434 0.000346408 0)
(1.01496 0.000316336 0)
(1.01559 0.000282221 0)
(1.01621 0.000243576 0)
(1.01684 0.000199864 0)
(1.01746 0.000150497 0)
(1.01809 9.48231e-05 0)
(1.01871 3.21185e-05 0)
(1.01933 -3.84184e-05 0)
(1.01995 -0.000117675 0)
(1.02056 -0.000206633 0)
(1.02117 -0.000306366 0)
(1.02177 -0.000418049 0)
(1.02237 -0.00054295 0)
(1.02297 -0.000682419 0)
(1.02355 -0.000837867 0)
(1.02413 -0.00101074 0)
(1.0247 -0.00120244 0)
(1.02525 -0.0014143 0)
(1.02578 -0.00164743 0)
(1.0263 -0.00190262 0)
(1.0268 -0.00218019 0)
(1.02727 -0.00248001 0)
(1.02771 -0.00280036 0)
(1.00001 1.63195e-05 0)
(1.00011 4.82451e-05 0)
(1.00033 7.77765e-05 0)
(1.00064 0.000103271 0)
(1.00105 0.000123807 0)
(1.00151 0.000139255 0)
(1.00203 0.000150004 0)
(1.00258 0.000156673 0)
(1.00316 0.000159937 0)
(1.00376 0.000160461 0)
(1.00437 0.000158859 0)
(1.00498 0.000155637 0)
(1.0056 0.00015115 0)
(1.00622 0.000145596 0)
(1.00684 0.000139058 0)
(1.00746 0.000131555 0)
(1.00808 0.000123076 0)
(1.0087 0.000113588 0)
(1.00931 0.000103018 0)
(1.00993 9.12396e-05 0)
(1.01055 7.80753e-05 0)
(1.01117 6.33152e-05 0)
(1.01179 4.67248e-05 0)
(1.01241 2.80439e-05 0)
(1.01303 6.98317e-06 0)
(1.01365 -1.67756e-05 0)
(1.01428 -4.35808e-05 0)
(1.0149 -7.38142e-05 0)
(1.01552 -0.000107897 0)
(1.01615 -0.000146294 0)
(1.01677 -0.000189522 0)
(1.01739 -0.000238151 0)
(1.01801 -0.000292815 0)
(1.01862 -0.000354214 0)
(1.01924 -0.000423123 0)
(1.01985 -0.000500395 0)
(1.02046 -0.000586965 0)
(1.02106 -0.000683851 0)
(1.02166 -0.000792153 0)
(1.02225 -0.000913045 0)
(1.02283 -0.00104776 0)
(1.02341 -0.00119759 0)
(1.02397 -0.00136379 0)
(1.02453 -0.00154761 0)
(1.02507 -0.00175018 0)
(1.02559 -0.00197241 0)
(1.02609 -0.00221494 0)
(1.02658 -0.00247795 0)
(1.02704 -0.0027613 0)
(1.02747 -0.00306341 0)
(1.00001 -1.86478e-05 0)
(1.00011 -5.52719e-05 0)
(1.00033 -8.96077e-05 0)
(1.00064 -0.000120086 0)
(1.00105 -0.000145861 0)
(1.00151 -0.000166878 0)
(1.00203 -0.000183608 0)
(1.00258 -0.000196758 0)
(1.00316 -0.000207099 0)
(1.00376 -0.0002154 0)
(1.00437 -0.000222391 0)
(1.00498 -0.000228703 0)
(1.0056 -0.00023483 0)
(1.00622 -0.000241126 0)
(1.00684 -0.000247845 0)
(1.00746 -0.000255197 0)
(1.00807 -0.000263383 0)
(1.00869 -0.000272611 0)
(1.00931 -0.000283071 0)
(1.00993 -0.000294933 0)
(1.01054 -0.000308354 0)
(1.01116 -0.000323493 0)
(1.01178 -0.000340532 0)
(1.0124 -0.000359677 0)
(1.01302 -0.000381157 0)
(1.01364 -0.000405237 0)
(1.01426 -0.00043222 0)
(1.01488 -0.000462451 0)
(1.0155 -0.00049632 0)
(1.01612 -0.000534269 0)
(1.01674 -0.000576791 0)
(1.01736 -0.000624436 0)
(1.01797 -0.000677816 0)
(1.01859 -0.000737609 0)
(1.0192 -0.000804559 0)
(1.0198 -0.000879484 0)
(1.0204 -0.000963273 0)
(1.021 -0.00105689 0)
(1.02159 -0.00116135 0)
(1.02217 -0.00127776 0)
(1.02275 -0.00140724 0)
(1.02332 -0.00155095 0)
(1.02387 -0.00171003 0)
(1.02441 -0.00188555 0)
(1.02494 -0.00207848 0)
(1.02545 -0.0022896 0)
(1.02594 -0.0025194 0)
(1.02641 -0.00276801 0)
(1.02686 -0.00303525 0)
(1.02728 -0.00331971 0)
(1.00001 -5.396e-05 0)
(1.00012 -0.000159776 0)
(1.00033 -0.000258474 0)
(1.00066 -0.00034519 0)
(1.00106 -0.000417308 0)
(1.00154 -0.000474647 0)
(1.00206 -0.000518616 0)
(1.00262 -0.0005513 0)
(1.0032 -0.000574951 0)
(1.0038 -0.0005918 0)
(1.00441 -0.00060394 0)
(1.00502 -0.000613155 0)
(1.00564 -0.000620782 0)
(1.00626 -0.000627714 0)
(1.00688 -0.000634525 0)
(1.0075 -0.000641642 0)
(1.00811 -0.000649457 0)
(1.00873 -0.00065835 0)
(1.00935 -0.000668636 0)
(1.00996 -0.00068052 0)
(1.01058 -0.000694131 0)
(1.0112 -0.000709578 0)
(1.01181 -0.000726987 0)
(1.01243 -0.000746505 0)
(1.01305 -0.000768302 0)
(1.01367 -0.000792585 0)
(1.01429 -0.000819611 0)
(1.01491 -0.000849687 0)
(1.01553 -0.000883173 0)
(1.01614 -0.000920482 0)
(1.01676 -0.000962084 0)
(1.01737 -0.00100851 0)
(1.01799 -0.00106034 0)
(1.01859 -0.00111824 0)
(1.0192 -0.00118292 0)
(1.0198 -0.00125515 0)
(1.0204 -0.00133579 0)
(1.02099 -0.00142573 0)
(1.02157 -0.00152594 0)
(1.02215 -0.00163743 0)
(1.02271 -0.00176124 0)
(1.02327 -0.0018984 0)
(1.02382 -0.00204993 0)
(1.02435 -0.00221679 0)
(1.02487 -0.0023998 0)
(1.02537 -0.00259963 0)
(1.02585 -0.00281668 0)
(1.02631 -0.00305102 0)
(1.02674 -0.00330248 0)
(1.02715 -0.00356981 0)
(1.00001 -9.03419e-05 0)
(1.00012 -0.000267342 0)
(1.00035 -0.000431932 0)
(1.00068 -0.00057571 0)
(1.0011 -0.000694274 0)
(1.00158 -0.000787514 0)
(1.00212 -0.000858013 0)
(1.00268 -0.000909404 0)
(1.00327 -0.000945514 0)
(1.00388 -0.000970114 0)
(1.00449 -0.000986733 0)
(1.00511 -0.000998343 0)
(1.00573 -0.00100712 0)
(1.00635 -0.00101444 0)
(1.00696 -0.00102115 0)
(1.00758 -0.00102787 0)
(1.0082 -0.00103517 0)
(1.00882 -0.00104361 0)
(1.00943 -0.00105364 0)
(1.01005 -0.00106549 0)
(1.01066 -0.00107925 0)
(1.01128 -0.00109495 0)
(1.0119 -0.00111267 0)
(1.01251 -0.0011325 0)
(1.01313 -0.00115453 0)
(1.01375 -0.00117892 0)
(1.01436 -0.00120587 0)
(1.01498 -0.00123565 0)
(1.0156 -0.00126859 0)
(1.01621 -0.00130508 0)
(1.01683 -0.00134555 0)
(1.01744 -0.00139053 0)
(1.01804 -0.00144056 0)
(1.01865 -0.00149629 0)
(1.01925 -0.00155839 0)
(1.01985 -0.0016276 0)
(1.02044 -0.00170474 0)
(1.02102 -0.00179064 0)
(1.0216 -0.00188622 0)
(1.02217 -0.00199239 0)
(1.02273 -0.00211012 0)
(1.02328 -0.00224034 0)
(1.02381 -0.00238398 0)
(1.02434 -0.00254186 0)
(1.02485 -0.00271473 0)
(1.02534 -0.00290313 0)
(1.02581 -0.00310741 0)
(1.02626 -0.0033276 0)
(1.02668 -0.00356356 0)
(1.02708 -0.0038142 0)
(1.00001 -0.000128588 0)
(1.00013 -0.000380236 0)
(1.00037 -0.000613352 0)
(1.00072 -0.000815561 0)
(1.00116 -0.000980686 0)
(1.00166 -0.00110906 0)
(1.00221 -0.00120486 0)
(1.00279 -0.00127354 0)
(1.00339 -0.00132066 0)
(1.004 -0.00135167 0)
(1.00462 -0.00137166 0)
(1.00524 -0.00138484 0)
(1.00586 -0.00139421 0)
(1.00648 -0.00140155 0)
(1.0071 -0.00140789 0)
(1.00772 -0.00141396 0)
(1.00833 -0.00142052 0)
(1.00895 -0.00142837 0)
(1.00956 -0.00143806 0)
(1.01018 -0.00144983 0)
(1.01079 -0.0014637 0)
(1.01141 -0.00147963 0)
(1.01202 -0.00149763 0)
(1.01264 -0.00151772 0)
(1.01325 -0.00153992 0)
(1.01387 -0.00156433 0)
(1.01449 -0.0015911 0)
(1.0151 -0.00162047 0)
(1.01572 -0.00165272 0)
(1.01633 -0.00168821 0)
(1.01694 -0.00172737 0)
(1.01755 -0.00177067 0)
(1.01815 -0.00181867 0)
(1.01876 -0.00187195 0)
(1.01935 -0.00193119 0)
(1.01994 -0.00199707 0)
(1.02053 -0.00207038 0)
(1.02111 -0.00215189 0)
(1.02168 -0.00224247 0)
(1.02224 -0.00234296 0)
(1.0228 -0.00245425 0)
(1.02334 -0.0025772 0)
(1.02387 -0.00271262 0)
(1.02438 -0.00286126 0)
(1.02488 -0.00302377 0)
(1.02536 -0.00320064 0)
(1.02582 -0.00339214 0)
(1.02626 -0.0035983 0)
(1.02668 -0.00381902 0)
(1.02707 -0.00405332 0)
(1.00001 -0.000169619 0)
(1.00014 -0.00050107 0)
(1.00039 -0.000806562 0)
(1.00077 -0.00106909 0)
(1.00124 -0.00128078 0)
(1.00177 -0.00144305 0)
(1.00234 -0.00156231 0)
(1.00293 -0.00164621 0)
(1.00355 -0.00170225 0)
(1.00417 -0.00173774 0)
(1.0048 -0.00175952 0)
(1.00542 -0.00177315 0)
(1.00604 -0.00178237 0)
(1.00666 -0.00178927 0)
(1.00728 -0.00179488 0)
(1.0079 -0.00179998 0)
(1.00852 -0.00180552 0)
(1.00913 -0.00181258 0)
(1.00975 -0.00182185 0)
(1.01036 -0.00183351 0)
(1.01097 -0.00184747 0)
(1.01159 -0.00186363 0)
(1.0122 -0.00188191 0)
(1.01282 -0.00190225 0)
(1.01343 -0.00192459 0)
(1.01405 -0.00194896 0)
(1.01466 -0.00197546 0)
(1.01527 -0.00200429 0)
(1.01589 -0.0020357 0)
(1.0165 -0.00207004 0)
(1.01711 -0.00210769 0)
(1.01771 -0.00214912 0)
(1.01832 -0.00219485 0)
(1.01891 -0.00224546 0)
(1.01951 -0.00230156 0)
(1.0201 -0.00236383 0)
(1.02068 -0.00243299 0)
(1.02125 -0.00250981 0)
(1.02182 -0.00259505 0)
(1.02238 -0.00268953 0)
(1.02292 -0.00279405 0)
(1.02346 -0.0029094 0)
(1.02398 -0.00303631 0)
(1.02448 -0.00317548 0)
(1.02498 -0.00332745 0)
(1.02545 -0.00349267 0)
(1.0259 -0.00367138 0)
(1.02633 -0.00386362 0)
(1.02674 -0.0040693 0)
(1.02713 -0.00428755 0)
(1.00002 -0.000214557 0)
(1.00015 -0.000633 0)