/*--------------------------------*- C++ -*----------------------------------*\
| =========                 |                                                 |
| \\      /  F ield         | OpenFOAM: The Open Source CFD Toolbox           |
|  \\    /   O peration     | Version:  v2106                                 |
|   \\  /    A nd           | Website:  www.openfoam.com                      |
|    \\/     M anipulation  |                                                 |
\*---------------------------------------------------------------------------*/
FoamFile
{
    version     2.0;
    format      ascii;
    arch        "LSB;label=32;scalar=64";
    class       volScalarField;
    location    "0";
    object      p;
}
// * * * * * * * * * * * * * * * * * * * * * * * * * * * * * * * * * * * * * //

dimensions      [0 2 -2 0 0 0 0];

internalField   nonuniform List<scalar> 
11644
(
27.4114
27.5051
27.6922
27.9717
28.3422
28.8015
29.346
29.9707
30.6683
31.4292
32.2402
33.0851
33.9432
34.7904
35.5989
36.3386
36.9785
37.4894
37.8457
38.0288
38.0288
37.8457
37.4894
36.9786
36.3386
35.5989
34.7905
33.9433
33.0851
32.2403
31.4292
30.6684
29.9707
29.3461
28.8016
28.3423
27.9717
27.6922
27.5052
27.4115
27.2379
27.3322
27.5208
27.803
28.1778
28.6436
29.1975
29.8355
30.5512
31.336
32.1777
33.0603
33.9635
34.8621
35.7264
36.5233
37.2178
37.7756
38.1666
38.3682
38.3682
38.1666
37.7756
37.2178
36.5233
35.7264
34.8621
33.9635
33.0603
32.1777
31.336
30.5513
29.8355
29.1976
28.6436
28.1779
27.803
27.5208
27.3323
27.2379
26.89
26.9855
27.1766
27.4633
27.8456
28.3229
28.894
29.5566
30.3067
31.1377
32.0394
32.9976
33.9922
34.9969
35.9783
36.8971
37.7092
38.3697
38.8373
39.0798
39.0798
38.8373
38.3698
37.7092
36.8971
35.9783
34.9969
33.9922
32.9976
32.0395
31.1377
30.3068
29.5567
28.894
28.3229
27.8456
27.4634
27.1766
26.9855
26.89
26.3655
26.462
26.6555
26.947
27.3375
27.8285
28.4212
29.1161
29.9127
30.8083
31.7968
32.8675
34.0023
35.1744
36.346
37.4679
38.4811
39.3208
39.9241
40.24
40.24
39.9241
39.3208
38.4811
37.468
36.3461
35.1745
34.0023
32.8675
31.7969
30.8083
29.9127
29.1161
28.4212
27.8285
27.3375
26.947
26.6556
26.462
26.3655
25.6624
25.7591
25.9534
26.2473
26.6436
27.1462
27.7592
28.4875
29.3356
30.3069
31.4024
32.6185
33.9433
35.3529
36.8054
38.2397
39.5735
40.7092
41.5423
41.9845
41.9845
41.5423
40.7092
39.5735
38.2398
36.8055
35.3529
33.9434
32.6185
31.4025
30.3069
29.3356
28.4875
27.7592
27.1462
26.6437
26.2473
25.9534
25.7591
25.6624
24.7805
24.8755
25.067
25.3581
25.7534
26.2594
26.8841
27.6374
28.5305
29.5758
30.7851
32.1681
33.7275
35.4518
37.2981
39.1971
41.032
42.6572
43.8835
44.547
44.547
43.8835
42.6573
41.0321
39.1971
37.2982
35.4518
33.7275
32.1681
30.7852
29.5758
28.5305
27.6374
26.8841
26.2594
25.7534
25.3581
25.067
24.8755
24.7805
23.723
23.8135
23.9965
24.276
24.6585
25.153
25.7712
26.5285
27.4441
28.5412
29.8468
31.3914
33.2065
35.3245
37.6934
40.2713
41.8177
44.1346
46.0322
47.2211
47.4751
46.7414
45.1672
43.0276
40.2713
37.6934
35.3246
33.2065
31.3914
29.8469
28.5412
27.4442
26.5286
25.7712
25.153
24.6586
24.276
23.9965
23.8135
23.723
22.498
22.5803
22.7473
23.0035
23.3567
23.8175
24.401
25.1271
26.0222
27.1207
28.4667
30.1144
32.1267
34.2257
36.9442
40.1132
43.6482
47.1983
50.3261
52.3869
52.8325
51.5306
48.8536
45.4404
41.8683
38.4905
35.5384
32.1267
30.1144
28.4667
27.1208
26.0222
25.1271
24.401
23.8176
23.3567
23.0036
22.7473
22.5803
22.498
21.1208
21.1907
21.3328
21.5519
21.8556
22.2554
22.767
23.413
24.224
25.2428
26.5285
28.163
30.2599
32.82
36.0543
40.1635
44.4073
49.7789
55.1304
59.1674
60.4332
58.3785
53.8702
48.4134
43.1623
37.988
34.3389
30.26
28.163
26.5285
25.2428
24.224
23.413
22.7671
22.2554
21.8557
21.5519
21.3328
21.1907
21.1208
19.6142
19.6675
19.776
19.9437
20.1771
20.486
20.8847
21.3935
22.0415
22.8713
23.9452
25.3563
27.2459
30.1163
33.5375
38.0786
44.0666
52.22
61.9702
70.857
74.3226
69.9434
60.7208
51.0907
42.6462
35.737
31.6829
27.246
25.3563
23.9453
22.8714
22.0416
21.3935
20.8847
20.4861
20.1771
19.9437
19.776
19.6675
19.6142
18.009
18.0422
18.1096
18.2138
18.3588
18.5507
18.7987
19.1161
19.5228
20.0483
20.7382
21.6641
22.942
25.7045
28.5221
33.2315
40.124
51.336
68.8371
92.4835
105.567
91.0412
67.4968
49.6015
38.1007
30.4711
26.9605
22.9421
21.6641
20.7382
20.0483
19.5228
19.1162
18.7987
18.5508
18.3588
18.2138
18.1096
18.0422
18.009
16.3425
16.3534
16.3753
16.4085
16.4536
16.5117
16.5842
16.6737
16.7838
16.9207
17.094
17.3196
17.6246
19.6556
20.7774
23.873
28.5034
37.3027
58.1724
56.1463
35.4662
26.5579
21.5991
20.1417
17.6246
17.3196
17.094
16.9207
16.7838
16.6737
16.5842
16.5117
16.4536
16.4085
16.3753
16.3534
16.3426
14.656
14.6442
14.6199
14.581
14.5245
14.4458
14.3383
14.1926
13.995
13.7251
13.3519
12.8266
12.0696
12.894
11.7673
11.6887
10.5216
7.2715
-2.8187
-2.17625
7.63543
9.97632
10.9656
12.3894
12.0696
12.8266
13.3519
13.7251
13.995
14.1926
14.3383
14.4458
14.5245
14.581
14.6199
14.6442
14.656
12.9911
12.9584
12.8913
12.786
12.6363
12.433
12.163
11.8075
11.3396
10.7199
9.89007
8.76107
7.19353
6.82627
4.02765
1.28598
-4.19109
-15.6096
-36.5092
-34.6805
-13.7533
-3.32905
2.10133
5.56982
7.1935
8.76105
9.89006
10.7199
11.3396
11.8075
12.163
12.433
12.6363
12.786
12.8913
12.9584
12.9911
11.3865
11.3363
11.2335
11.0731
10.8471
10.5435
10.1457
9.63034
8.96475
8.10326
6.98123
5.50617
3.54384
2.39946
-0.970681
-4.63518
-10.6117
-20.0305
-32.5022
-45.1941
-51.4342
-43.8235
-30.8254
-18.6745
-9.37361
-3.14172
0.855767
3.54381
5.50615
6.98122
8.10325
8.96474
9.63033
10.1457
10.5435
10.8471
11.0731
11.2335
11.3363
11.3865
9.87484
9.81152
9.68227
9.48168
9.20115
8.82829
8.34595
7.73094
6.95222
5.96854
4.72552
3.15265
1.1616
-0.297056
-3.46109
-7.50192
-11.9261
-17.9053
-24.0957
-28.9211
-30.4577
-27.9548
-22.6001
-16.3492
-10.5632
-5.36139
-1.77895
1.16157
3.15263
4.72551
5.96853
6.95221
7.73094
8.34595
8.82829
9.20115
9.48168
9.68227
9.81153
9.87484
8.48027
8.40866
8.26296
8.03808
7.72604
7.31558
6.79159
6.13439
5.31886
4.3136
3.08012
1.57256
-0.262127
-2.48296
-4.35652
-7.40896
-10.6151
-14.3232
-17.7214
-20.103
-20.8177
-19.643
-16.9379
-13.4005
-9.08831
-5.8241
-2.48299
-0.262155
1.57254
3.08011
4.31359
5.31885
6.13438
6.79159
7.31558
7.72603
8.03807
8.26296
8.40866
8.48026
7.21814
7.14283
6.99011
6.75569
6.43296
6.01288
5.48366
4.83072
4.03651
3.08086
1.94177
0.597491
-0.969222
-2.76231
-4.33874
-6.58911
-8.85992
-11.2274
-13.2399
-14.569
-14.9557
-14.3173
-12.7884
-10.6557
-7.75978
-5.44172
-2.76234
-0.969246
0.597471
1.94176
3.08084
4.0365
4.83071
5.48366
6.01287
6.43296
6.75568
6.99011
7.14283
7.21814
6.0953
6.0202
5.86839
5.63661
5.32
4.91202
4.40462
3.78835
3.05281
2.18745
1.18301
0.0338952
-1.25799
-2.67762
-3.94319
-5.59149
-7.21139
-8.7783
-10.0486
-10.8583
-11.0897
-10.7067
-9.76837
-8.4073
-6.41583
-4.76174
-2.67764
-1.25801
0.0338783
1.18299
2.18744
3.05279
3.78834
4.40461
4.91202
5.31999
5.63661
5.86839
6.0202
6.0953
5.11137
5.03947
4.89457
4.67448
4.37601
3.99509
3.52696
2.96659
2.30922
1.55128
0.691792
-0.265762
-1.31085
-2.42293
-3.42255
-4.63648
-5.80958
-6.88376
-7.72771
-8.25356
-8.40211
-8.15578
-7.54352
-6.63281
-5.22669
-4.03112
-2.42294
-1.31087
-0.265777
0.691779
1.55127
2.30921
2.96658
3.52696
3.99508
4.376
4.67447
4.89456
5.03947
5.11136
4.26043
4.19377
4.05981
3.85731
3.58454
3.23944
2.81993
2.32425
1.75161
1.10292
0.381891
-0.403631
-1.24008
-2.10642
-2.8947
-3.7986
-4.66331
-5.42246
-6.00631
-6.36472
-6.46524
-6.29844
-5.8799
-5.24691
-4.22792
-3.35174
-2.10643
-1.24009
-0.403643
0.38188
1.10291
1.7516
2.32425
2.81992
3.23944
3.58453
3.85731
4.05981
4.19377
4.26042
3.53278
3.47255
3.35183
3.17013
2.92684
2.62145
2.25376
1.82427
1.33464
0.788315
0.191218
-0.4474
-1.11415
-1.79083
-2.45456
-3.09367
-3.70559
-4.22032
-4.60177
-4.82322
-4.8684
-4.7339
-4.42977
-3.97786
-3.40954
-2.45457
-1.79084
-1.11416
-0.447409
0.191208
0.788306
1.33463
1.82426
2.25375
2.62144
2.92683
3.17012
3.35183
3.47255
3.53277
2.91652
2.86323
2.75665
2.59684
2.384
2.11867
1.80188
1.43549
1.02253
0.56758
0.0772912
-0.439205
-0.969876
-1.49954
-2.00982
-2.47936
-2.89199
-3.22291
-3.45472
-3.57418
-3.57418
-3.45472
-3.22292
-2.892
-2.47937
-2.00983
-1.49955
-0.969884
-0.439213
0.0772832
0.567572
1.02252
1.43548
1.80187
2.11866
2.384
2.59683
2.75664
2.86323
2.91652
2.39884
2.35247
2.25992
2.12162
1.93827
1.71106
1.44173
1.13285
0.788033
0.412187
0.0118026
-0.404838
-0.827514
-1.24409
-1.64078
-2.00284
-2.31597
-2.56553
-2.73935
-2.8286
-2.8286
-2.73935
-2.56553
-2.31598
-2.00284
-1.64079
-1.2441
-0.827521
-0.404844
0.0117958
0.412181
0.788027
1.13285
1.44173
1.71105
1.93827
2.12161
2.25992
2.35247
2.39883
1.96691
1.92712
1.84784
1.72969
1.57369
1.38134
1.15473
0.896681
0.61091
0.302162
-0.0236456
-0.359336
-0.696468
-1.02545
-1.33583
-1.61673
-1.8575
-2.04816
-2.18034
-2.24801
-2.24802
-2.18034
-2.04817
-1.85751
-1.61673
-1.33583
-1.02546
-0.696474
-0.359341
-0.0236515
0.302156
0.610904
0.896675
1.15472
1.38133
1.57368
1.72968
1.84783
1.92712
1.96691
1.60859
1.57482
1.50763
1.40776
1.27633
1.11498
0.925856
0.711778
0.476273
0.223673
-0.0408317
-0.311184
-0.58051
-0.841251
-1.0854
-1.30484
-1.49173
-1.63896
-1.74065
-1.79259
-1.79259
-1.74065
-1.63896
-1.49173
-1.30484
-1.08541
-0.841255
-0.580514
-0.311189
-0.0408368
0.223668
0.476268
0.711773
0.925851
1.11497
1.27633
1.40775
1.50763
1.57481
1.60858
1.31272
1.28432
1.22789
1.14418
1.03434
0.899961
0.743141
0.5665
0.373245
0.167194
-0.0472135
-0.264944
-0.480439
-0.687742
-0.880689
-1.05315
-1.19931
-1.31399
-1.39296
-1.43322
-1.43322
-1.39296
-1.31399
-1.19931
-1.05315
-0.880692
-0.687746
-0.480443
-0.264948
-0.0472179
0.16719
0.373241
0.566496
0.743136
0.899957
1.03433
1.14418
1.22789
1.28432
1.31271
1.06937
1.04567
0.998613
0.92893
0.837713
0.726457
0.59708
0.451946
0.293879
0.126166
-0.0474573
-0.222846
-0.395524
-0.560792
-0.713873
-0.850097
-0.965103
-1.05506
-1.11685
-1.14832
-1.14832
-1.11685
-1.05506
-0.965105
-0.8501
-0.713876
-0.560795
-0.395528
-0.22285
-0.0474611
0.126162
0.293875
0.451942
0.597076
0.726453
0.837709
0.928926
0.998609
1.04566
1.06936
0.869861
0.850195
0.81119
0.753508
0.678149
0.586464
0.48016
0.36131
0.232348
0.0960619
-0.0444393
-0.185766
-0.32432
-0.456384
-0.578237
-0.686291
-0.777236
-0.848192
-0.896848
-0.921592
-0.921593
-0.896849
-0.848193
-0.777238
-0.686293
-0.578239
-0.456386
-0.324323
-0.185769
-0.0444426
0.0960584
0.232345
0.361306
0.480156
0.58646
0.678146
0.753504
0.811187
0.850191
0.869857
0.706727
0.690491
0.658311
0.610779
0.548781
0.473507
0.386443
0.289372
0.184363
0.0737503
-0.039897
-0.153818
-0.265122
-0.370861
-0.468123
-0.554129
-0.62634
-0.682568
-0.721068
-0.74063
-0.74063
-0.721069
-0.682568
-0.626341
-0.55413
-0.468125
-0.370864
-0.265124
-0.153821
-0.0398999
0.0737472
0.18436
0.289369
0.38644
0.473504
0.548778
0.610775
0.658307
0.690487
0.706724
0.573624
0.560272
0.533826
0.494801
0.443969
0.382354
0.311232
0.232115
0.146741
0.0570485
-0.0348501
-0.126713
-0.216217
-0.301019
-0.378829
-0.447478
-0.505005
-0.549728
-0.580315
-0.595845
-0.595845
-0.580315
-0.549728
-0.505006
-0.447479
-0.37883
-0.301021
-0.216219
-0.126715
-0.0348527
0.0570458
0.146738
0.232112
0.311229
0.382351
0.443965
0.494798
0.533823
0.560269
0.573621
0.465215
0.454272
0.432606
0.40066
0.359096
0.308786
0.250807
0.18643
0.117103
0.0444264
-0.0298711
-0.103971
-0.176007
-0.244112
-0.306476
-0.361398
-0.407351
-0.44303
-0.467409
-0.47978
-0.47978
-0.46741
-0.44303
-0.407352
-0.3614
-0.306477
-0.244114
-0.176009
-0.103973
-0.0298734
0.0444239
0.1171
0.186428
0.250804
0.308783
0.359093
0.400658
0.432603
0.454269
0.465212
0.377047
0.368101
0.350397
0.32431
0.290399
0.2494
0.202214
0.149901
0.0936577
0.0348015
-0.025258
-0.0850479
-0.143067
-0.197825
-0.247886
-0.291909
-0.328696
-0.35723
-0.376713
-0.386594
-0.386594
-0.376713
-0.357231
-0.328697
-0.29191
-0.247887
-0.197827
-0.143069
-0.0850497
-0.0252601
0.0347993
0.0936554
0.149898
0.202211
0.249397
0.290397
0.324307
0.350394
0.368098
0.377044
0.305425
0.298128
0.283691
0.26243
0.234813
0.201454
0.163104
0.120639
0.0750452
0.0274016
-0.0211443
-0.0694001
-0.116158
-0.160226
-0.200461
-0.235803
-0.265305
-0.28817
-0.303773
-0.311683
-0.311683
-0.303773
-0.288171
-0.265306
-0.235804
-0.200463
-0.160228
-0.11616
-0.0694018
-0.0211461
0.0273996
0.0750432
0.120637
0.163102
0.201452
0.234811
0.262427
0.283688
0.298125
0.305423
0.2473
0.241358
0.229605
0.212305
0.189847
0.162739
0.131604
0.0971623
0.0602241
0.0216699
-0.0175672
-0.0565229
-0.0942246
-0.129717
-0.162088
-0.190495
-0.21419
-0.232541
-0.245058
-0.251402
-0.251403
-0.245058
-0.232542
-0.21419
-0.190496
-0.162089
-0.129718
-0.0942259
-0.0565244
-0.0175688
0.0216682
0.0602223
0.0971604
0.131602
0.162737
0.189844
0.212303
0.229603
0.241356
0.247298
0.200166
0.195334
0.18578
0.17172
0.153478
0.131474
0.106218
0.0783032
0.0483918
0.0172011
-0.0145111
-0.0459649
-0.076377
-0.104981
-0.131047
-0.153903
-0.172956
-0.187704
-0.197759
-0.202855
-0.202855
-0.19776
-0.187705
-0.172956
-0.153904
-0.131048
-0.104982
-0.0763782
-0.0459662
-0.0145125
0.0171996
0.0483901
0.0783015
0.106216
0.131472
0.153476
0.171718
0.185778
0.195332
0.200164
0.161968
0.158044
0.150285
0.138872
0.124069
0.106222
0.0857494
0.0631371
0.038925
0.0136968
-0.0119329
-0.0373337
-0.061874
-0.084938
-0.105941
-0.124347
-0.139681
-0.151547
-0.159634
-0.163731
-0.163731
-0.159634
-0.151547
-0.139682
-0.124348
-0.105942
-0.084939
-0.0618751
-0.0373348
-0.0119342
0.0136954
0.0389235
0.0631356
0.0857478
0.10622
0.124067
0.13887
0.150283
0.158042
0.161967
0.131029
0.127845
0.12155
0.112292
0.100289
0.0858238
0.0692387
0.0509299
0.0313372
0.0109351
-0.00977845
-0.0302937
-0.0501016
-0.0687066
-0.0856398
-0.100472
-0.112823
-0.122377
-0.128887
-0.132185
-0.132185
-0.128887
-0.122377
-0.112823
-0.100472
-0.0856406
-0.0687074
-0.0501025
-0.0302948
-0.0097796
0.0109339
0.0313359
0.0509285
0.0692373
0.0858223
0.100288
0.112291
0.121548
0.127843
0.131028
0.10598
0.103398
0.0982945
0.0907907
0.0810641
0.069346
0.0559162
0.0410971
0.0252465
0.00874938
-0.00799083
-0.0245621
-0.0405538
-0.0555671
-0.0692251
-0.0811833
-0.0911382
-0.0988363
-0.104081
-0.106737
-0.106737
-0.104081
-0.0988366
-0.0911386
-0.0811838
-0.0692258
-0.0555678
-0.0405546
-0.024563
-0.00799186
0.00874828
0.0252453
0.0410959
0.0559149
0.0693446
0.0810627
0.0907893
0.0982931
0.103396
0.105978
0.0857059
0.0836137
0.0794788
0.0733999
0.065522
0.0560338
0.045163
0.033172
0.0203513
0.00701323
-0.00651571
-0.0199024
-0.0328156
-0.0449339
-0.0559543
-0.0656
-0.0736275
-0.0798338
-0.0840612
-0.0862022
-0.0862022
-0.0840613
-0.079834
-0.0736279
-0.0656005
-0.0559549
-0.0449346
-0.0328164
-0.0199033
-0.00651663
0.00701224
0.0203503
0.0331709
0.0451618
0.0560325
0.0655208
0.0733986
0.0794775
0.0836124
0.0857046
0.0693017
0.0676071
0.0642585
0.0593362
0.0529583
0.0452784
0.0364817
0.0267813
0.0164131
0.00563
-0.00530363
-0.0161186
-0.0265475
-0.0363313
-0.0452261
-0.0530092
-0.0594853
-0.0644911
-0.0679003
-0.0696268
-0.0696269
-0.0679005
-0.0644913
-0.0594856
-0.0530097
-0.0452266
-0.0363319
-0.0265482
-0.0161194
-0.00530445
0.00562911
0.0164121
0.0267804
0.0364807
0.0452773
0.0529572
0.0593351
0.0642574
0.067606
0.0693005
0.0560315
0.0546596
0.0519488
0.0479645
0.0428027
0.0365883
0.0294717
0.0216259
0.0132421
0.00452515
-0.00431101
-0.0130488
-0.0214724
-0.029373
-0.0365539
-0.042836
-0.0480621
-0.0521011
-0.0548517
-0.0562445
-0.0562446
-0.0548518
-0.0521014
-0.0480624
-0.0428363
-0.0365543
-0.0293735
-0.0214731
-0.0130495
-0.00431175
0.00452435
0.0132412
0.021625
0.0294708
0.0365873
0.0428017
0.0479635
0.0519478
0.0546586
0.0560304
0.0452986
0.0441883
0.0419946
0.0387704
0.034594
0.0295666
0.0238104
0.0174656
0.0106871
0.0036408
-0.00350025
-0.0105602
-0.0173648
-0.0237455
-0.0295439
-0.0346157
-0.0388343
-0.0420943
-0.0443141
-0.0454381
-0.0454382
-0.0443142
-0.0420945
-0.0388345
-0.034616
-0.0295443
-0.023746
-0.0173654
-0.0105608
-0.00350091
0.00364008
0.0106863
0.0174648
0.0238096
0.0295658
0.0345931
0.0387695
0.0419936
0.0441873
0.0452976
0.0366191
0.0357208
0.0339459
0.0313376
0.0279592
0.0238929
0.0192378
0.0141074
0.00862727
0.0029317
-0.00283941
-0.00854397
-0.0140412
-0.0191951
-0.0238779
-0.0279732
-0.0313793
-0.0340112
-0.0358031
-0.0367105
-0.0367105
-0.0358032
-0.0340113
-0.0313795
-0.0279735
-0.0238782
-0.0191955
-0.0140417
-0.00854451
-0.00284001
0.00293106
0.00862658
0.0141067
0.019237
0.0238921
0.0279584
0.0313368
0.0339451
0.0357199
0.0366182
0.029601
0.0288744
0.0274387
0.025329
0.0225966
0.0193082
0.015544
0.011396
0.00696592
0.0023623
-0.00230168
-0.00691118
-0.0113525
-0.0155159
-0.0192982
-0.0226057
-0.0253562
-0.0274814
-0.0289283
-0.0296609
-0.0296609
-0.0289284
-0.0274815
-0.0253564
-0.022606
-0.0192985
-0.0155163
-0.0113529
-0.00691167
-0.00230221
0.00236173
0.0069653
0.0113954
0.0155433
0.0193075
0.0225959
0.0253282
0.0274379
0.0288736
0.0296002
0.0239269
0.0233392
0.0221781
0.020472
0.0182624
0.0156034
0.0125599
0.00920655
0.00562545
0.00190455
-0.00186469
-0.00558946
-0.0091779
-0.0125414
-0.0155967
-0.0182682
-0.0204897
-0.022206
-0.0233745
-0.0239661
-0.0239661
-0.0233745
-0.0222061
-0.0204899
-0.0182685
-0.015597
-0.0125417
-0.00917829
-0.0055899
-0.00186517
0.00190403
0.0056249
0.00920596
0.0125593
0.0156027
0.0182617
0.0204713
0.0221774
0.0233385
0.0239262
0.0193398
0.0188645
0.0179256
0.016546
0.0147594
0.0126095
0.010149
0.00743822
0.00454357
0.00153619
-0.00150996
-0.00451987
-0.00741934
-0.0101368
-0.0126051
-0.0147631
-0.0165575
-0.0179438
-0.0188875
-0.0193654
-0.0193654
-0.0188876
-0.0179439
-0.0165577
-0.0147634
-0.0126054
-0.0101371
-0.00741969
-0.00452026
-0.00151039
0.00153572
0.00454307
0.00743769
0.0101485
0.012609
0.0147588
0.0165454
0.017925
0.0188639
0.0193391
0.0156316
0.0152473
0.0144882
0.0133727
0.0119283
0.0101902
0.00820114
0.00600986
0.00367016
0.00123953
-0.00122224
-0.00365454
-0.0059974
-0.00819303
-0.0101872
-0.0119306
-0.0133802
-0.0145
-0.0152623
-0.0156483
-0.0156483
-0.0152624
-0.0145001
-0.0133804
-0.0119308
-0.0101875
-0.00819331
-0.00599772
-0.00365489
-0.00122263
0.00123911
0.00366971
0.00600939
0.00820065
0.0101897
0.0119277
0.0133722
0.0144876
0.0152467
0.015631
0.0126341
0.0123234
0.0117097
0.0108079
0.00964014
0.00823511
0.00662725
0.00485601
0.00296492
0.00100045
-0.000989048
-0.0029546
-0.00484777
-0.00662186
-0.00823308
-0.00964164
-0.0108127
-0.0117174
-0.0123332
-0.012645
-0.012645
-0.0123333
-0.0117175
-0.0108129
-0.00964182
-0.00823329
-0.00662211
-0.00484805
-0.00295492
-0.000989396
0.00100008
0.00296452
0.00485559
0.0066268
0.00823465
0.00963966
0.0108074
0.0117092
0.0123229
0.0126336
0.0102112
0.00996005
0.00946388
0.00873487
0.00779091
0.00665515
0.00535549
0.00392383
0.00239537
0.000807688
-0.000800145
-0.00238854
-0.00391836
-0.00535189
-0.00665376
-0.00779183
-0.008738
-0.00946889
-0.00996643
-0.0102183
-0.0102183
-0.00996648
-0.00946898
-0.00873813
-0.00779199
-0.00665395
-0.00535212
-0.00391862
-0.00238883
-0.000800458
0.000807351
0.00239501
0.00392345
0.00535509
0.00665474
0.00779048
0.00873443
0.00946343
0.0099596
0.0102107
0.00825284
0.00804981
0.00764872
0.00705943
0.00629639
0.00537834
0.00432784
0.00317069
0.00193535
0.000652194
-0.000647191
-0.00193081
-0.00316705
-0.00432543
-0.00537737
-0.00629694
-0.00706143
-0.00765196
-0.00805395
-0.00825747
-0.00825748
-0.008054
-0.00765204
-0.00706154
-0.00629709
-0.00537755
-0.00432563
-0.00316728
-0.00193107
-0.000647472
0.00065189
0.00193502
0.00317035
0.00432748
0.00537797
0.006296
0.00705903
0.00764832
0.0080494
0.00825243
0.00666998
0.00650586
0.00618165
0.00570531
0.00508855
0.0043465
0.00349742
0.00256217
0.00156375
0.000526719
-0.00052339
-0.00156073
-0.00255973
-0.00349579
-0.00434582
-0.00508887
-0.00570659
-0.00618374
-0.00650854
-0.00667298
-0.00667299
-0.00650858
-0.00618381
-0.00570669
-0.005089
-0.00434598
-0.00349597
-0.00255994
-0.00156096
-0.000523643
0.000526446
0.00156345
0.00256186
0.0034971
0.00434617
0.0050882
0.00570496
0.00618129
0.00650549
0.00666961
0.00539064
0.00525799
0.00499593
0.00461091
0.0041124
0.00351263
0.00282637
0.00207047
0.00126355
0.00042544
-0.000423216
-0.00126152
-0.00206884
-0.00282526
-0.00351215
-0.00411257
-0.00461171
-0.00499727
-0.00525972
-0.00539259
-0.0053926
-0.00525976
-0.00499733
-0.0046118
-0.00411269
-0.00351229
-0.00282542
-0.00206902
-0.00126173
-0.000423442
0.000425195
0.00126328
0.0020702
0.00282608
0.00351233
0.00411208
0.00461059
0.00499561
0.00525766
0.00539031
0.00435666
0.00424944
0.00403762
0.00372643
0.0033235
0.00283875
0.00228409
0.00167316
0.00102101
0.000343671
-0.000342177
-0.00101965
-0.00167206
-0.00228333
-0.0028384
-0.00332358
-0.00372692
-0.00403847
-0.00425055
-0.00435791
-0.00435792
-0.00425058
-0.00403853
-0.00372701
-0.00332369
-0.00283852
-0.00228347
-0.00167222
-0.00101983
-0.000342381
0.000343451
0.00102077
0.00167292
0.00228382
0.00283847
0.00332322
0.00372614
0.00403733
0.00424914
0.00435636
0.00352098
0.00343432
0.00326312
0.0030116
0.00268594
0.00229415
0.00184586
0.00135211
0.000825049
0.000277642
-0.000276633
-0.000824127
-0.00135136
-0.00184534
-0.00229389
-0.00268597
-0.0030119
-0.00326365
-0.00343502
-0.00352178
-0.0035218
-0.00343506
-0.00326371
-0.00301197
-0.00268606
-0.002294
-0.00184547
-0.00135151
-0.000824294
-0.000276816
0.000277444
0.000824838
0.00135189
0.00184563
0.0022939
0.00268568
0.00301134
0.00326285
0.00343405
0.00352071
0.00284558
0.00277554
0.00263717
0.00243388
0.00217068
0.00185403
0.00149172
0.00109268
0.000666713
0.000224315
-0.000223628
-0.000666084
-0.00109216
-0.00149135
-0.00185384
-0.00217068
-0.00243406
-0.0026375
-0.00277599
-0.0028461
-0.00284611
-0.00277601
-0.00263755
-0.00243413
-0.00217076
-0.00185394
-0.00149147
-0.00109229
-0.000666234
-0.000223792
0.000224137
0.000666523
0.00109248
0.00149151
0.00185381
0.00217045
0.00243365
0.00263693
0.0027753
0.00284534
0.00229973
0.00224312
0.00213129
0.00196699
0.00175426
0.00149834
0.00120553
0.000883028
0.000538773
0.00018124
-0.000180769
-0.00053834
-0.000882667
-0.00120527
-0.0014982
-0.00175424
-0.00196709
-0.00213149
-0.0022434
-0.00230006
-0.00230007
-0.00224343
-0.00213153
-0.00196715
-0.00175432
-0.00149829
-0.00120538
-0.000882788
-0.000538475
-0.000180917
0.00018108
0.000538602
0.000882847
0.00120534
0.00149815
0.00175406
0.00196678
0.00213107
0.0022429
0.00229951
0.00185858
0.00181282
0.00172244
0.00158965
0.00141773
0.0012109
0.000974249
0.000713608
0.00043539
0.000146443
-0.000146118
-0.000435089
-0.000713356
-0.000974063
-0.00121079
-0.0014177
-0.00158971
-0.00172257
-0.001813
-0.00185879
-0.00185879
-0.00181302
-0.0017226
-0.00158976
-0.00141777
-0.00121087
-0.000974159
-0.000713464
-0.000435211
-0.000146251
0.000146299
0.000435236
0.000713445
0.000974078
0.00121072
0.00141755
0.00158947
0.00172225
0.00181263
0.00185838
0.00150205
0.00146507
0.00139202
0.0012847
0.00114575
0.000978596
0.000787341
0.000576696
0.000351848
0.000118331
-0.000118105
-0.000351638
-0.000576518
-0.000787207
-0.000978514
-0.00114573
-0.00128473
-0.0013921
-0.00146518
-0.00150218
-0.00150219
-0.0014652
-0.00139213
-0.00128478
-0.00114579
-0.000978588
-0.000787293
-0.000576616
-0.000351747
-0.000118224
0.000118202
0.00035171
0.00057655
0.000787187
0.000978436
0.00114559
0.00128453
0.00139185
0.00146489
0.00150187
0.00121391
0.00118402
0.00112498
0.00103825
0.000925955
0.00079086
0.000636291
0.000466054
0.000284338
9.56182e-05
-9.54599e-05
-0.000284191
-0.000465928
-0.000636195
-0.000790798
-0.00092593
-0.00103826
-0.00112503
-0.00118409
-0.00121399
-0.001214
-0.00118411
-0.00112506
-0.00103831
-0.000925985
-0.000790865
-0.000636272
-0.000466016
-0.000284289
-9.55673e-05
9.5502e-05
0.000284214
0.000465922
0.000636153
0.000790716
0.000925807
0.0010381
0.00112483
0.00118386
0.00121375
0.000981037
0.000956885
0.000909173
0.000839076
0.000748321
0.00063914
0.000514221
0.00037664
0.000229783
7.72663e-05
-7.71554e-05
-0.00022968
-0.000376551
-0.000514152
-0.000639094
-0.0007483
-0.00083908
-0.000909199
-0.000956928
-0.000981094
-0.000981099
-0.000956945
-0.000909226
-0.000839119
-0.000748349
-0.000639153
-0.000514221
-0.00037663
-0.000229768
-7.7252e-05
7.71618e-05
0.000229671
0.000376522
0.000514097
0.000639011
0.000748187
0.000838939
0.000909033
0.000956744
0.000980895
0.00079284
0.00077332
0.00073476
0.000678109
0.000604763
0.000516525
0.00041557
0.000304381
0.000185696
6.24374e-05
-6.236e-05
-0.000185624
-0.000304318
-0.00041552
-0.000516492
-0.000604747
-0.00067811
-0.000734776
-0.000773349
-0.000792878
-0.000792883
-0.000773364
-0.000734801
-0.000678145
-0.000604791
-0.000516546
-0.000415583
-0.000304389
-0.000185703
-6.24469e-05
6.23435e-05
0.000185596
0.000304274
0.000415458
0.000516409
0.000604643
0.000677987
0.000734635
0.000773193
0.000792712
0.000640744
0.000624969
0.000593805
0.000548022
0.000488745
0.000417434
0.000335844
0.000245985
0.000150068
5.04548e-05
-5.04016e-05
-0.000150018
-0.000245942
-0.00033581
-0.000417411
-0.000488734
-0.000548022
-0.000593817
-0.00062499
-0.000640773
-0.000640777
-0.000625003
-0.00059384
-0.000548054
-0.000488773
-0.000417459
-0.000335866
-0.000246005
-0.000150089
-5.04796e-05
5.03704e-05
0.000149978
0.000245889
0.000335744
0.000417329
0.000488637
0.000547911
0.000593693
0.000624855
0.000640629
0.000517825
0.000505075
0.00047989
0.000442889
0.000394983
0.000337352
0.000271414
0.000198792
0.000121275
4.07719e-05
-4.07363e-05
-0.000121242
-0.000198764
-0.000271391
-0.000337337
-0.000394977
-0.000442891
-0.000479901
-0.000505093
-0.000517848
-0.000517852
-0.000505105
-0.000479921
-0.000442919
-0.000395013
-0.00033738
-0.000271442
-0.000198821
-0.000121306
-4.08065e-05
4.0696e-05
0.000121194
0.000198706
0.000271323
0.000337258
0.000394886
0.00044279
0.000479789
0.000504973
0.000517722
0.000418485
0.000408182
0.000387828
0.000357924
0.000319208
0.000272632
0.000219343
0.000160653
9.8007e-05
3.2947e-05
-3.29247e-05
-9.79864e-05
-0.000160636
-0.00021933
-0.000272625
-0.000319207
-0.000357929
-0.000387838
-0.000408198
-0.000418506
-0.00041851
-0.000408209
-0.000387857
-0.000357954
-0.000319239
-0.000272664
-0.000219376
-0.000160687
-9.80439e-05
-3.29878e-05
3.28788e-05
9.79341e-05
0.000160576
0.000219262
0.000272548
0.000319121
0.000357835
0.000387737
0.00040809
0.000418393
0.000338202
0.000329875
0.000313426
0.000289259
0.00025797
0.000220329
0.000177262
0.000129831
7.92026e-05
2.66236e-05
-2.66114e-05
-7.91916e-05
-0.000129822
-0.000177257
-0.000220327
-0.000257973
-0.000289267
-0.000313438
-0.000329892
-0.000338223
-0.000338226
-0.000329902
-0.000313454
-0.000289289
-0.000258002
-0.000220362
-0.000177298
-0.000129869
-7.92433e-05
-2.66681e-05
2.65623e-05
7.91371e-05
0.000129762
0.00017719
0.000220253
0.000257892
0.000289179
0.000313344
0.000329793
0.000338119
0.000273321
0.000266591
0.000253297
0.000233766
0.000208479
0.000178059
0.000143254
0.000104922
6.40059e-05
2.15134e-05
-2.15091e-05
-6.40024e-05
-0.00010492
-0.000143255
-0.000178063
-0.000208486
-0.000233777
-0.000253311
-0.000266609
-0.000273342
-0.000273345
-0.000266617
-0.000253326
-0.000233797
-0.000208512
-0.000178094
-0.000143291
-0.000104962
-6.40488e-05
-2.156e-05
2.14584e-05
6.3947e-05
0.00010486
0.000143189
0.000177991
0.000208409
0.000233694
0.000253224
0.000266517
0.000273246
0.000220885
0.000215447
0.000204703
0.000188919
0.000168483
0.000143898
0.00011577
8.47914e-05
5.17245e-05
1.73837e-05
-1.73855e-05
-5.17269e-05
-8.47951e-05
-0.000115776
-0.000143906
-0.000168493
-0.000188932
-0.000204719
-0.000215466
-0.000220907
-0.00022091
-0.000215474
-0.000204732
-0.00018895
-0.000168516
-0.000143934
-0.000115809
-8.48325e-05
-5.17687e-05
-1.74312e-05
1.73342e-05
5.16716e-05
8.47353e-05
0.000115711
0.000143837
0.00016842
0.000188854
0.000204637
0.00021538
0.000220818
0.000178509
0.000174114
0.000165431
0.000152675
0.000136159
0.000116291
9.35586e-05
6.85226e-05
4.17992e-05
1.40462e-05
-1.40529e-05
-4.18064e-05
-6.85308e-05
-9.35681e-05
-0.000116302
-0.000136172
-0.00015269
-0.000165449
-0.000174134
-0.000178532
-0.000178534
-0.000174141
-0.000165461
-0.000152707
-0.000136193
-0.000116327
-9.35978e-05
-6.85645e-05
-4.18439e-05
-1.4094e-05
1.40017e-05
4.17516e-05
6.84723e-05
9.35058e-05
0.000116236
0.000136102
0.000152616
0.000165372
0.000174054
0.000178449
0.000144262
0.00014071
0.000133693
0.000123384
0.000110036
9.39792e-05
7.5608e-05
5.53749e-05
3.37779e-05
1.1349e-05
-1.13597e-05
-3.3789e-05
-5.53866e-05
-7.56209e-05
-9.39935e-05
-0.000110052
-0.000123401
-0.000133712
-0.000140732
-0.000144286
-0.000144288
-0.000140738
-0.000133723
-0.000123416
-0.000110071
-9.40163e-05
-7.56475e-05
-5.54169e-05
-3.38227e-05
-1.13966e-05
1.13091e-05
3.37352e-05
5.53296e-05
7.55605e-05
9.39298e-05
0.000109985
0.000123331
0.000133639
0.000140656
0.000144208
0.000116585
0.000113714
0.000108043
9.97115e-05
8.89246e-05
7.5948e-05
6.1101e-05
4.47493e-05
2.72955e-05
9.16927e-06
-9.18305e-06
-2.73096e-05
-4.4764e-05
-6.11166e-05
-7.59647e-05
-8.89428e-05
-9.97312e-05
-0.000108064
-0.000113737
-0.00011661
-0.000116612
-0.000113743
-0.000108074
-9.97445e-05
-8.89597e-05
-7.59852e-05
-6.11405e-05
-4.47912e-05
-2.73399e-05
-9.21626e-06
9.13335e-06
2.72571e-05
4.47087e-05
6.10584e-05
7.59036e-05
8.88788e-05
9.96645e-05
0.000107995
0.000113665
0.000116536
9.42169e-05
9.18969e-05
8.73138e-05
8.05806e-05
7.1863e-05
6.13758e-05
4.9377e-05
3.61622e-05
2.20566e-05
7.40767e-06
-7.42399e-06
-2.20732e-05
-3.61793e-05
-4.93948e-05
-6.13946e-05
-7.1883e-05
-8.06018e-05
-8.73365e-05
-9.19211e-05
-9.42429e-05
-9.42446e-05
-9.19263e-05
-8.73451e-05
-8.06138e-05
-7.18982e-05
-6.1413e-05
-4.94163e-05
-3.62037e-05
-2.21004e-05
-7.45382e-06
7.37541e-06
2.20221e-05
3.61257e-05
4.93387e-05
6.13359e-05
7.18219e-05
8.05384e-05
8.72708e-05
9.18533e-05
9.41731e-05
7.614e-05
7.42651e-05
7.05612e-05
6.51197e-05
5.80745e-05
4.95991e-05
3.99021e-05
2.92224e-05
1.78228e-05
5.98404e-06
-6.00237e-06
-1.78413e-05
-2.92413e-05
-3.99217e-05
-4.96195e-05
-5.80959e-05
-6.51422e-05
-7.0585e-05
-7.42902e-05
-7.61667e-05
-7.61683e-05
-7.42949e-05
-7.05927e-05
-6.51529e-05
-5.81095e-05
-4.9636e-05
-3.9941e-05
-2.92633e-05
-1.78658e-05
-6.02916e-06
5.95506e-06