/*--------------------------------*- C++ -*----------------------------------*\
| =========                 |                                                 |
| \\      /  F ield         | OpenFOAM: The Open Source CFD Toolbox           |
|  \\    /   O peration     | Version:  v2106                                 |
|   \\  /    A nd           | Website:  www.openfoam.com                      |
|    \\/     M anipulation  |                                                 |
\*---------------------------------------------------------------------------*/
FoamFile
{
    version     2.0;
    format      ascii;
    arch        "LSB;label=32;scalar=64";
    class       volScalarField;
    location    "0";
    object      p;
}
// * * * * * * * * * * * * * * * * * * * * * * * * * * * * * * * * * * * * * //

dimensions      [0 2 -2 0 0 0 0];

internalField   nonuniform List<scalar> 
11644
(
27.4083
27.502
27.689
27.9685
28.339
28.7982
29.3427
29.9673
30.6649
31.4256
32.2366
33.0814
33.9395
34.7866
35.595
36.3346
36.9745
37.4853
37.8416
38.0248
38.0248
37.8416
37.4853
36.9746
36.3347
35.5951
34.7867
33.9395
33.0815
32.2367
31.4257
30.665
29.9674
29.3428
28.7983
28.3391
27.9686
27.6891
27.5021
27.4084
27.2347
27.3291
27.5177
27.7998
28.1746
28.6403
29.1942
29.8321
30.5478
31.3325
32.1741
33.0566
33.9597
34.8582
35.7225
36.5193
37.2137
37.7715
38.1625
38.3641
38.3641
38.1625
37.7715
37.2138
36.5194
35.7225
34.8583
33.9598
33.0567
32.1741
31.3325
30.5479
29.8322
29.1943
28.6404
28.1747
27.7999
27.5177
27.3292
27.2348
26.8869
26.9824
27.1735
27.4602
27.8424
28.3196
28.8907
29.5533
30.3033
31.1342
32.0358
32.9939
33.9885
34.993
35.9744
36.8931
37.7052
38.3656
38.8331
39.0756
39.0756
38.8331
38.3656
37.7052
36.8931
35.9744
34.9931
33.9885
32.994
32.0359
31.1342
30.3034
29.5534
28.8908
28.3197
27.8425
27.4603
27.1736
26.9825
26.887
26.3624
26.4589
26.6525
26.9439
27.3344
27.8253
28.4179
29.1128
29.9093
30.8048
31.7933
32.8638
33.9985
35.1706
36.3421
37.4639
38.4769
39.3166
39.9198
40.2357
40.2357
39.9198
39.3166
38.477
37.4639
36.3421
35.1706
33.9986
32.8639
31.7933
30.8049
29.9094
29.1129
28.418
27.8254
27.3345
26.9439
26.6525
26.459
26.3625
25.6594
25.7561
25.9504
26.2442
26.6406
27.143
27.756
28.4842
29.3322
30.3035
31.3989
32.6148
33.9396
35.349
36.8014
38.2356
39.5692
40.7049
41.5379
41.98
41.98
41.5379
40.7049
39.5692
38.2356
36.8015
35.3491
33.9396
32.6149
31.399
30.3035
29.3323
28.4843
27.7561
27.1431
26.6406
26.2443
25.9505
25.7562
25.6595
24.7776
24.8726
25.0641
25.3551
25.7504
26.2563
26.881
27.6342
28.5272
29.5724
30.7816
32.1644
33.7237
35.4478
37.2941
39.1928
41.0276
42.6527
43.8789
44.5424
44.5424
43.8789
42.6528
41.0277
39.1929
37.2941
35.4479
33.7238
32.1645
30.7817
29.5725
28.5273
27.6343
26.8811
26.2564
25.7505
25.3552
25.0642
24.8727
24.7777
23.7202
23.8107
23.9936
24.2732
24.6556
25.15
25.7682
26.5254
27.4409
28.5379
29.8434
31.3878
33.2027
35.3206
37.6892
40.2669
41.8133
44.13
46.0274
47.2162
47.4702
46.7366
45.1625
43.023
40.267
37.6893
35.3207
33.2028
31.3879
29.8435
28.538
27.441
26.5255
25.7683
25.1501
24.6557
24.2733
23.9937
23.8108
23.7203
22.4953
22.5777
22.7446
23.0008
23.3539
23.8147
24.3981
25.1241
26.0191
27.1175
28.4633
30.1109
32.123
34.2218
36.9401
40.1088
43.6435
47.1934
50.321
52.3817
52.8272
51.5254
48.8486
45.4356
41.8638
38.4863
35.5344
32.1231
30.111
28.4634
27.1176
26.0192
25.1242
24.3982
23.8148
23.354
23.0009
22.7447
22.5778
22.4954
21.1182
21.1882
21.3303
21.5493
21.853
22.2527
22.7643
23.4102
24.2211
25.2398
26.5253
28.1596
30.2563
32.8162
36.0502
40.159
44.4025
49.7738
55.1249
59.1616
60.4273
58.3728
53.8648
48.4083
43.1576
37.9837
34.335
30.2564
28.1597
26.5254
25.2399
24.2212
23.4103
22.7644
22.2528
21.8531
21.5494
21.3304
21.1883
21.1183
19.6118
19.6651
19.7736
19.9413
20.1746
20.4836
20.8822
21.3908
22.0388
22.8685
23.9423
25.3531
27.2425
30.1127
33.5335
38.0741
44.0617
52.2145
61.9642
70.8504
74.3156
69.9368
60.7148
51.0852
42.6413
35.7327
31.6791
27.2427
25.3533
23.9424
22.8687
22.0389
21.391
20.8823
20.4837
20.1748
19.9414
19.7737
19.6652
19.6119
18.0068
18.04
18.1074
18.2116
18.3565
18.5485
18.7964
19.1138
19.5203
20.0457
20.7355
21.6613
22.939
25.7011
28.5183
33.2272
40.1189
51.3302
68.8308
92.4763
105.557
91.0341
67.4902
49.5956
38.0958
30.4671
26.957
22.9392
21.6614
20.7357
20.0459
19.5204
19.1139
18.7965
18.5486
18.3566
18.2117
18.1075
18.0401
18.0069
16.3405
16.3514
16.3732
16.4064
16.4516
16.5096
16.5821
16.6715
16.7816
16.9185
17.0917
17.3172
17.622
19.6527
20.7741
23.8691
28.4984
37.2961
58.1642
56.1369
35.4597
26.5534
21.5958
20.1388
17.6222
17.3173
17.0918
16.9186
16.7818
16.6716
16.5822
16.5097
16.4517
16.4065
16.3733
16.3515
16.3406
14.6541
14.6424
14.618
14.5791
14.5226
14.4439
14.3365
14.1908
13.9931
13.7232
13.35
12.8247
12.0677
12.8918
11.765
11.6859
10.5181
7.26633
-2.81594
-2.16743
7.63127
9.9736
10.9634
12.3874
12.0678
12.8249
13.3501
13.7233
13.9933
14.1909
14.3366
14.444
14.5227
14.5792
14.6181
14.6425
14.6542
12.9894
12.9568
12.8897
12.7844
12.6346
12.4314
12.1614
11.806
11.3381
10.7184
9.8886
8.75966
7.19221
6.82487
4.02641
1.28478
-4.19209
-15.61
-36.5089
-34.6798
-13.7532
-3.3296
2.1005
5.56873
7.19238
8.75981
9.88874
10.7185
11.3382
11.8061
12.1615
12.4315
12.6347
12.7845
12.8898
12.9569
12.9895
11.3851
11.3349
11.2321
11.0717
10.8456
10.5421
10.1444
9.62902
8.96349
8.10207
6.98014
5.50521
3.54306
2.39874
-0.971066
-4.63523
-10.6111
-20.0288
-32.4988
-45.1887
-51.4283
-43.8182
-30.822
-18.6727
-9.37284
-3.14164
0.855408
3.5432
5.50534
6.98027
8.10219
8.9636
9.62913
10.1445
10.5422
10.8457
11.0718
11.2322
11.335
11.3852
9.87357
9.81025
9.68101
9.48044
9.19994
8.82711
8.34482
7.72987
6.95122
5.96764
4.72475
3.15204
1.16121
-0.297309
-3.46097
-7.50129
-11.9249
-17.9032
-24.0927
-28.9172
-30.4536
-27.951
-22.5972
-16.3472
-10.562
-5.36085
-1.77886
1.16133
3.15216
4.72486
5.96775
6.95133
7.72997
8.34492
8.82721
9.20003
9.48053
9.68111
9.81035
9.87366
8.47916
8.40756
8.26187
8.03701
7.725
7.31459
6.79066
6.13352
5.31808
4.31293
3.07959
1.57221
-0.262265
-2.48282
-4.35616
-7.40819
-10.6139
-14.3214
-17.7191
-20.1003
-20.8149
-19.6404
-16.9357
-13.3987
-9.08717
-5.82341
-2.48272
-0.262167
1.57231
3.07969
4.31303
5.31818
6.13362
6.79075
7.31468
7.72509
8.0371
8.26196
8.40765
8.47924
7.21718
7.14189
6.98918
6.75478
6.4321
6.01205
5.4829
4.83002
4.03591
3.08037
1.94142
0.597297
-0.969219
-2.76208
-4.3383
-6.58837
-8.85885
-11.226
-13.2382
-14.5671
-14.9537
-14.3153
-12.7867
-10.6543
-7.75877
-5.44103
-2.762
-0.969137
0.597382
1.9415
3.08045
4.03599
4.83011
5.48298
6.01214
6.43218
6.75486
6.98926
7.14197
7.21727
6.09449
6.0194
5.8676
5.63585
5.31927
4.91134
4.404
3.7878
3.05234
2.18709
1.18277
0.0338029
-1.25791
-2.67736
-3.94276
-5.59083
-7.21051
-8.77719
-10.0473
-10.8569
-11.0882
-10.7053
-9.76706
-8.40618
-6.41498
-4.76112
-2.6773
-1.25784
0.0338757
1.18285
2.18716
3.05242
3.78787
4.40408
4.91142
5.31935
5.63593
5.86768
6.01947
6.09456
5.11068
5.03879
4.8939
4.67384
4.37541
3.99453
3.52646
2.96615
2.30886
1.55102
0.691636
-0.265795
-1.31075
-2.42267
-3.42216
-4.63592
-5.80886
-6.88288
-7.7267
-8.25247
-8.40099
-8.15469
-7.54251
-6.63192
-5.22599
-4.03058
-2.42262
-1.31069
-0.265732
0.691702
1.55109
2.30893
2.96622
3.52653
3.9946
4.37548
4.67391
4.89397
5.03886
5.11075
4.25984
4.1932
4.05925
3.85678
3.58404
3.23898
2.81952
2.32391
1.75133
1.10272
0.381789
-0.403631
-1.23997
-2.10619
-2.89437
-3.79814
-4.66273
-5.42177
-6.00553
-6.36388
-6.46439
-6.2976
-5.87911
-5.24621
-4.22735
-3.35129
-2.10614
-1.23992
-0.403577
0.381846
1.10278
1.7514
2.32397
2.81958
3.23905
3.5841
3.85684
4.05932
4.19326
4.25991
3.53229
3.47207
3.35137
3.16968
2.92642
2.62107
2.25343
1.82399
1.33443
0.78817
0.19115
-0.447383
-1.11404
-1.79064
-2.45427
-3.09329
-3.70513
-4.21978
-4.60117
-4.82259
-4.86776
-4.73327
-4.42917
-3.97732
-3.40908
-2.45424
-1.7906
-1.114
-0.447335
0.191201
0.788223
1.33448
1.82405
2.25348
2.62113
2.92648
3.16974
3.35143
3.47213
3.53235
2.91611
2.86283
2.75626
2.59647
2.38366
2.11836
1.80161
1.43527
1.02236
0.56747
0.077246
-0.439182
-0.969781
-1.49937
-2.00958
-2.47906
-2.89163
-3.2225
-3.45427
-3.57371
-3.57371
-3.45426
-3.22248
-2.89161
-2.47903
-2.00955
-1.49934
-0.969743
-0.43914
0.0772906
0.567517
1.02241
1.43532
1.80166
2.11842
2.38372
2.59652
2.75632
2.86289
2.91617
2.3985
2.35214
2.2596
2.12131
1.93799
1.71081
1.44151
1.13268
0.7879
0.412103
0.0117715
-0.404813
-0.827432
-1.24395
-1.64059
-2.00259
-2.31568
-2.5652
-2.739
-2.82823
-2.82823
-2.73899
-2.56519
-2.31567
-2.00257
-1.64056
-1.24392
-0.827398
-0.404776
0.011811
0.412145
0.787944
1.13272
1.44156
1.71086
1.93804
2.12136
2.25965
2.35219
2.39855
1.96663
1.92685
1.84757
1.72944
1.57346
1.38113
1.15455
0.896537
0.610804
0.302096
-0.0236677
-0.359313
-0.696399
-1.02534
-1.33567
-1.61653
-1.85727
-2.0479
-2.18006
-2.24772
-2.24772
-2.18006
-2.04789
-1.85726
-1.61651
-1.33565
-1.02531
-0.69637
-0.35928
-0.0236327
0.302133
0.610843
0.896578
1.15459
1.38117
1.5735
1.72948
1.84762
1.92689
1.96668
1.60835
1.57459
1.50741
1.40755
1.27614
1.11481
0.925712
0.711662
0.476188
0.223621
-0.0408481
-0.311164
-0.580453
-0.841158
-1.08527
-1.30468
-1.49154
-1.63875
-1.74043
-1.79236
-1.79236
-1.74042
-1.63874
-1.49153
-1.30466
-1.08525
-0.841135
-0.580427
-0.311135
-0.040817
0.223655
0.476223
0.711698
0.925749
1.11485
1.27618
1.40759
1.50745
1.57463
1.6084
1.31252
1.28413
1.22771
1.14401
1.03418
0.899823
0.743023
0.566405
0.373176
0.167153
-0.0472263
-0.264927
-0.480392
-0.687667
-0.880587
-1.05302
-1.19916
-1.31382
-1.39278
-1.43304
-1.43304
-1.39278
-1.31381
-1.19915
-1.05301
-0.880569
-0.687646
-0.480369
-0.264902
-0.0471986
0.167182
0.373207
0.566438
0.743057
0.899858
1.03422
1.14405
1.22775
1.28417
1.31256
1.06921
1.04551
0.998463
0.928789
0.837584
0.726342
0.596983
0.451869
0.293822
0.126131
-0.0474678
-0.222833
-0.395487
-0.560732
-0.713791
-0.849996
-0.964985
-1.05492
-1.11671
-1.14817
-1.14817
-1.11671
-1.05492
-0.964975
-0.849983
-0.713776
-0.560713
-0.395466
-0.22281
-0.0474431
0.126158
0.29385
0.451898
0.597014
0.726374
0.837616
0.928823
0.998497
1.04554
1.06924
0.869729
0.850066
0.811066
0.753392
0.678043
0.58637
0.48008
0.361246
0.232302
0.0960337
-0.0444483
-0.185756
-0.32429
-0.456336
-0.578171
-0.68621
-0.777142
-0.848086
-0.896735
-0.921474
-0.921473
-0.896731
-0.84808
-0.777133
-0.686199
-0.578158
-0.456319
-0.324272
-0.185736
-0.0444262
0.0960574
0.232327
0.361272
0.480108
0.586398
0.678072
0.753422
0.811097
0.850097
0.86976
0.706618
0.690384
0.658208
0.610682
0.548693
0.473429
0.386377
0.289319
0.184325
0.0737266
-0.039905
-0.15381
-0.265099
-0.370823
-0.468071
-0.554064
-0.626264
-0.682483
-0.720978
-0.740535
-0.740534
-0.720974
-0.682477
-0.626256
-0.554054
-0.468059
-0.370809
-0.265082
-0.153792
-0.0398853
0.0737478
0.184347
0.289343
0.386402
0.473455
0.54872
0.610709
0.658236
0.690412
0.706646
0.573534
0.560184
0.533741
0.494721
0.443896
0.38229
0.311177
0.232071
0.146708
0.0570285
-0.0348574
-0.126707
-0.216198
-0.300989
-0.378787
-0.447427
-0.504945
-0.54966
-0.580242
-0.595769
-0.595768
-0.580239
-0.549655
-0.504937
-0.447417
-0.378776
-0.300976
-0.216184
-0.126691
-0.0348398
0.0570475
0.146729
0.232093
0.3112
0.382313
0.44392
0.494746
0.533766
0.560209
0.573559
0.46514
0.454198
0.432535
0.400594
0.359036
0.308732
0.250761
0.186393
0.117076
0.0444092
-0.0298779
-0.103967
-0.175993
-0.244089
-0.306443
-0.361357
-0.407303
-0.442976
-0.467351
-0.479719
-0.479719
-0.467348
-0.442971
-0.407296
-0.361349
-0.306433
-0.244077
-0.17598
-0.103953
-0.029862
0.0444263
0.117094
0.186413
0.250781
0.308753
0.359057
0.400616
0.432558
0.454221
0.465163
0.376985
0.36804
0.350338
0.324255
0.290349
0.249355
0.202176
0.14987
0.0936347
0.0347867
-0.0252644
-0.0850457
-0.143056
-0.197807
-0.24786
-0.291877
-0.328658
-0.357187
-0.376666
-0.386546
-0.386545
-0.376664
-0.357183
-0.328652
-0.291869
-0.247851
-0.197796
-0.143045
-0.0850328
-0.0252502
0.034802
0.093651
0.149887
0.202194
0.249374
0.290368
0.324275
0.350358
0.36806
0.377005
0.305374
0.298077
0.283642
0.262384
0.234771
0.201417
0.163072
0.120613
0.0750256
0.0273887
-0.0211503
-0.0693992
-0.116151
-0.160212
-0.200441
-0.235777
-0.265275
-0.288136
-0.303736
-0.311644
-0.311644
-0.303733
-0.288132
-0.26527
-0.235771
-0.200433
-0.160203
-0.11614
-0.0693876
-0.0211376
0.0274024
0.0750403
0.120628
0.163088
0.201434
0.234788
0.262402
0.28366
0.298095
0.305392
0.247257
0.241316
0.229565
0.212267
0.189812
0.162708
0.131577
0.0971403
0.0602074
0.0216587
-0.0175729
-0.0565229
-0.0942191
-0.129706
-0.162073
-0.190475
-0.214166
-0.232514
-0.245029
-0.251371
-0.251371
-0.245027
-0.232511
-0.214161
-0.190469
-0.162066
-0.129698
-0.0942097
-0.0565125
-0.0175615
0.021671
0.0602205
0.0971542
0.131591
0.162723
0.189827
0.212283
0.229581
0.241332
0.247274
0.20013
0.195299
0.185746
0.171689
0.153449
0.131448
0.106195
0.0782846
0.0483774
0.0171912
-0.0145164
-0.0459656
-0.0763733
-0.104973
-0.131035
-0.153888
-0.172937
-0.187683
-0.197736
-0.20283
-0.20283
-0.197734
-0.18768
-0.172933
-0.153882
-0.131028
-0.104965
-0.0763649
-0.0459563
-0.0145062
0.0172023
0.0483892
0.078297
0.106208
0.131461
0.153463
0.171703
0.18576
0.195314
0.200145
0.161938
0.158014
0.150257
0.138845
0.124044
0.106199
0.0857302
0.0631212
0.0389125
0.013688
-0.011938
-0.0373349
-0.0618716
-0.0849321
-0.105932
-0.124335
-0.139667
-0.15153
-0.159615
-0.163711
-0.163711
-0.159614
-0.151527
-0.139663
-0.12433
-0.105926
-0.0849255
-0.0618641
-0.0373265
-0.0119288
0.013698
0.0389231
0.0631324
0.0857419
0.106212
0.124057
0.138858
0.15027
0.158028
0.161952
0.131004
0.12782
0.121526
0.11227
0.100269
0.085805
0.0692224
0.0509162
0.0313264
0.0109273
-0.00978321
-0.0302954
-0.0501002
-0.0687024
-0.0856329
-0.100462
-0.112811
-0.122363
-0.128872
-0.132169
-0.132168
-0.128871
-0.122361
-0.112808
-0.100458
-0.0856278
-0.0686964
-0.0500935
-0.0302879
-0.00977496
0.0109362
0.0313359
0.0509263
0.069233
0.085816
0.10028
0.112281
0.121538
0.127832
0.131016
0.105959
0.103377
0.0982744
0.0907716
0.0810464
0.06933
0.0559022
0.0410853
0.025237
0.00874239
-0.00799531
-0.0245641
-0.0405533
-0.0555642
-0.06922
-0.0811762
-0.0911293
-0.0988259
-0.104069
-0.106725
-0.106724
-0.104068
-0.0988238
-0.0911264
-0.0811724
-0.0692154
-0.0555588
-0.0405472
-0.0245573
-0.0079879
0.00875039
0.0252456
0.0410943
0.0559117
0.0693399
0.0810566
0.0907821
0.098285
0.103388
0.105969
0.085688
0.083596
0.0794618
0.0733837
0.065507
0.0560201
0.045151
0.0331618
0.020343
0.00700695
-0.00651992
-0.0199046
-0.0328157
-0.0449321
-0.0559507
-0.0655946
-0.0736207
-0.0798257
-0.0840521
-0.0861924
-0.086192
-0.084051
-0.0798238
-0.0736181
-0.0655912
-0.0559465
-0.0449273
-0.0328103
-0.0198985
-0.00651327
0.00701414
0.0203507
0.0331699
0.0451595
0.056029
0.0655162
0.0733931
0.0794713
0.0836057
0.0856977
0.0692864
0.0675921
0.064244
0.0593224
0.0529455
0.0452667
0.0364714
0.0267725
0.0164058
0.00562434
-0.00530759
-0.0161209
-0.0265481
-0.0363303
-0.0452236
-0.0530053
-0.0594801
-0.0644849
-0.0678933
-0.0696192
-0.0696189
-0.0678923
-0.0644832
-0.0594777
-0.0530023
-0.0452199
-0.036326
-0.0265432
-0.0161154
-0.00530161
0.00563081
0.0164127
0.0267798
0.036479
0.0452747
0.0529537
0.0593309
0.0642526
0.0676009
0.0692952
0.0560185
0.0546468
0.0519365
0.0479527
0.0427917
0.0365782
0.0294628
0.0216182
0.0132356
0.00452004
-0.00431472
-0.0130511
-0.0214734
-0.0293726
-0.0365522
-0.0428332
-0.0480583
-0.0520965
-0.0548463
-0.0562386
-0.0562383
-0.0548454
-0.0520949
-0.0480561
-0.0428304
-0.0365489
-0.0293687
-0.021469
-0.0130462
-0.00430935
0.00452585
0.0132418
0.0216247
0.0294696
0.0365854
0.0427991
0.0479603
0.0519442
0.0546547
0.0560264
0.0452874
0.0441774
0.0419839
0.0387603
0.0345846
0.0295579
0.0238026
0.0174588
0.0106813
0.00363616
-0.00350373
-0.0105626
-0.017366
-0.0237456
-0.029543
-0.0346138
-0.0388315
-0.0420908
-0.04431
-0.0454336
-0.0454333
-0.0443092
-0.0420894
-0.0388296
-0.0346113
-0.02954
-0.0237421
-0.0173621
-0.0105582
-0.00349891
0.00364138
0.0106869
0.0174647
0.0238088
0.0295644
0.0345912
0.0387671
0.0419909
0.0441844
0.0452945
0.0366095
0.0357114
0.0339368
0.0313289
0.027951
0.0238853
0.0192309
0.0141014
0.00862213
0.00292748
-0.00284268
-0.00854628
-0.0140425
-0.0191955
-0.0238774
-0.027972
-0.0313774
-0.0340086
-0.0358001
-0.036707
-0.0367068
-0.0357993
-0.0340074
-0.0313756
-0.0279698
-0.0238748
-0.0191924
-0.014039
-0.00854232
-0.00283834
0.00293217
0.00862714
0.0141067
0.0192365
0.0238911
0.027957
0.031335
0.033943
0.0357177
0.0366159
0.0295928
0.0288662
0.0274308
0.0253214
0.0225895
0.0193016
0.015538
0.0113907
0.00696131
0.00235845
-0.00230474
-0.00691345
-0.011354
-0.0155166
-0.0192982
-0.022605
-0.0253549
-0.0274796
-0.028926
-0.0296583
-0.029658
-0.0289253
-0.0274785
-0.0253534
-0.022603
-0.0192958
-0.0155138
-0.0113508
-0.0069099
-0.00230084
0.00236267
0.00696581
0.0113955
0.015543
0.0193068
0.0225948
0.0253269
0.0274364
0.0288719
0.0295985
0.0239197
0.0233321
0.0221712
0.0204654
0.0182561
0.0155975
0.0125546
0.00920179
0.0056213
0.00190103
-0.00186756
-0.00559167
-0.00917945
-0.0125423
-0.015597
-0.018268
-0.020489
-0.0222048
-0.0233729
-0.0239642
-0.023964
-0.0233723
-0.0222038
-0.0204876
-0.0182662
-0.0155949
-0.0125398
-0.00917658
-0.00558847
-0.00186406
0.00190482
0.00562535
0.00920608
0.0125591
0.0156022
0.018261
0.0204703
0.0221763
0.0233373
0.0239249
0.0193335
0.0188583
0.0179196
0.0165402
0.0147539
0.0126044
0.0101443
0.00743396
0.00453981
0.00153296
-0.00151265
-0.00452201
-0.00742093
-0.0101379
-0.0126056
-0.0147632
-0.0165572
-0.0179431
-0.0188865
-0.019364
-0.0193639
-0.0188859
-0.0179422
-0.0165559
-0.0147616
-0.0126037
-0.0101356
-0.00741835
-0.00451914
-0.0015095
0.00153636
0.00454345
0.00743782
0.0101484
0.0126086
0.0147583
0.0165447
0.0179241
0.0188629
0.0193381
0.0156261
0.0152419
0.0144829
0.0133676
0.0119234
0.0101857
0.00819694
0.00600604
0.00366675
0.00123655
-0.00122477
-0.0036566
-0.00599901
-0.0081942
-0.0101879
-0.011931
-0.0133802
-0.0144997
-0.0152617
-0.0156474
-0.0156473
-0.0152612
-0.0144988
-0.013379
-0.0119295
-0.0101862
-0.00819216
-0.00599669
-0.00365402
-0.00122193
0.00123962
0.00367002
0.00600951
0.00820058
0.0101894
0.0119273
0.0133716
0.014487
0.015246
0.0156303
0.0126293
0.0123187
0.011705
0.0108034
0.00963584
0.00823106
0.00662348
0.00485256
0.00296181
0.000997712
-0.000991413
-0.00295658
-0.00484937
-0.00662308
-0.00823394
-0.00964217
-0.0108129
-0.0117173
-0.0123329
-0.0126445
-0.0126443
-0.0123325
-0.0117166
-0.0108119
-0.00964087
-0.00823237
-0.00662125
-0.00484728
-0.00295426
-0.000988867
0.00100047
0.00296476
0.00485568
0.00662675
0.00823446
0.00963936
0.010807
0.0117087
0.0123224
0.012633
0.0102069
0.00995583
0.00945975
0.00873087
0.00778708
0.00665152
0.0053521
0.0039207
0.00239253
0.000805154
-0.000802364
-0.00239044
-0.00391994
-0.00535315
-0.00665472
-0.0077925
-0.0087384
-0.00946905
-0.00996638
-0.0102181
-0.010218
-0.00996598
-0.00946839
-0.00873749
-0.00779133
-0.0066533
-0.0053515
-0.00391807
-0.00238835
-0.000800074
0.000807631
0.00239518
0.00392351
0.00535504
0.00665459
0.00779024
0.00873411
0.00946305
0.00995918
0.0102103
0.00824905
0.00804605
0.00764504
0.00705585
0.00629295
0.00537508
0.00432477
0.00316785
0.00193274
0.000649845
-0.000649275
-0.00193263
-0.00316859
-0.0043267
-0.00537839
-0.00629772
-0.00706198
-0.0076523
-0.0080541
-0.00825746
-0.00825734
-0.00805375
-0.00765171
-0.00706115
-0.00629667
-0.00537712
-0.00432522
-0.00316691
-0.00193075
-0.000647216
0.000652073
0.00193513
0.00317037
0.00432742
0.00537783
0.0062958
0.00705877
0.00764801
0.00804906
0.00825207
0.00666658
0.0065025
0.00617835
0.0057021
0.00508546
0.00434356
0.00349464
0.00255957
0.00156135
0.000524539
-0.000525348
-0.00156246
-0.00256123
-0.00349707
-0.00434688
-0.00508971
-0.00570724
-0.00618421
-0.00650885
-0.00667314
-0.00667304
-0.00650853
-0.00618367
-0.00570649
-0.00508877
-0.00434574
-0.00349573
-0.00255972
-0.00156077
-0.000523496
0.000526542
0.00156349
0.00256184
0.00349702
0.00434603
0.00508801
0.00570473
0.00618103
0.00650521
0.00666931
0.0053876
0.00525497
0.00499296
0.00460802
0.0041096
0.00350996
0.00282383
0.0020681
0.00126134
0.000423411
-0.000425056
-0.00126317
-0.00207029
-0.00282652
-0.00351323
-0.00411347
-0.00461244
-0.00499784
-0.00526015
-0.00539289
-0.00539279
-0.00525986
-0.00499736
-0.00461177
-0.00411262
-0.0035122
-0.00282532
-0.00206893
-0.00126165
-0.00042339
0.000425214
0.00126326
0.00207014
0.00282597
0.00351219
0.00411191
0.00461038
0.00499537
0.00525741
0.00539005
0.00435391
0.00424671
0.00403494
0.00372381
0.00332097
0.00283631
0.00228177
0.00167098
0.00101897
0.00034178
-0.00034391
-0.00102122
-0.00167346
-0.00228457
-0.00283948
-0.00332451
-0.0037277
-0.00403912
-0.00425106
-0.00435832
-0.00435823
-0.00425081
-0.00403869
-0.0037271
-0.00332375
-0.00283855
-0.00228349
-0.00167223
-0.00101985
-0.000342411
0.000343402
0.0010207
0.00167281
0.0022837
0.00283832
0.00332304
0.00372593
0.00403711
0.0042489
0.00435612
0.00351849
0.00343185
0.00326069
0.00300922
0.00268363
0.00229192
0.00184374
0.0013501
0.000823154
0.000275876
-0.000278264
-0.00082562
-0.00135271
-0.00184655
-0.00229496
-0.00268691
-0.00301271
-0.00326435
-0.00343561
-0.00352227
-0.00352219
-0.00343538
-0.00326396
-0.00301217
-0.00268622
-0.00229413
-0.00184558
-0.00135161
-0.00082439
-0.000276915
0.000277335
0.000824714
0.00135175
0.00184547
0.00229372
0.00268549
0.00301113
0.00326263
0.00343382
0.00352047
0.00284332
0.00277329
0.00263495
0.00243171
0.00216856
0.00185199
0.00148976
0.00109081
0.000664951
0.000222662
-0.000225166
-0.000667504
-0.00109346
-0.00149253
-0.0018549
-0.00217162
-0.0024349
-0.00263824
-0.00277662
-0.00284664
-0.00284657
-0.00277641
-0.00263789
-0.00243441
-0.002171
-0.00185415
-0.00149166
-0.00109246
-0.000666397
-0.000223952
0.000223975
0.000666355
0.0010923
0.00149132
0.00185361
0.00217024
0.00243343
0.00263671
0.00277506
0.0028451
0.00229766
0.00224106
0.00212926
0.001965
0.00175232
0.00149646
0.00120372
0.000881299
0.000537131
0.000179691
-0.00018222
-0.00053969
-0.000883914
-0.00120641
-0.00149924
-0.00175519
-0.00196793
-0.00213225
-0.00224407
-0.00230065
-0.00230058
-0.00224388
-0.00213193
-0.0019675
-0.00175463
-0.00149857
-0.00120563
-0.00088302
-0.000538693
-0.000181127
0.000180873
0.000538395
0.000882637
0.00120513
0.00149793
0.00175383
0.00196655
0.00213084
0.00224266
0.00229927
0.00185668
0.00181094
0.00172058
0.00158782
0.00141594
0.00120916
0.000972574
0.000712001
0.000433856
0.00014499
-0.000147488
-0.000436373
-0.00071455
-0.000975168
-0.00121181
-0.00141863
-0.00159056
-0.00172333
-0.00181369
-0.00185941
-0.00185935
-0.00181352
-0.00172305
-0.00159016
-0.00141813
-0.0012112
-0.00097446
-0.000713745
-0.000435476
-0.000146504
0.000146053
0.000434994
0.000713204
0.000973837
0.00121048
0.0014173
0.00158922
0.001722
0.00181238
0.00185813
0.0015003
0.00146334
0.00139031
0.00128302
0.0011441
0.000976989
0.000785785
0.000575198
0.000350413
0.000116965
-0.000119399
-0.000352858
-0.000577662
-0.000788273
-0.000979504
-0.00114664
-0.00128557
-0.00139287
-0.00146588
-0.00150282
-0.00150277
-0.00146573
-0.00139261
-0.00128522
-0.00114619
-0.000978958
-0.000787636
-0.000576937
-0.000352051
-0.000118514
0.000117922
0.000351437
0.000576282
0.000786922
0.000978172
0.00114533
0.00128427
0.00139158
0.00146463
0.00150161
0.0012123
0.00118242
0.0011234
0.00103669
0.000924425
0.000789368
0.000634843
0.000464655
0.000282994
9.43323e-05
-9.66839e-05
-0.000285351
-0.000467022
-0.000637222
-0.000791758
-0.000926824
-0.00103909
-0.0011258
-0.0011848
-0.00121464
-0.0012146
-0.00118466
-0.00112557
-0.00103877
-0.000926418
-0.000791266
-0.000636648
-0.000466369
-0.000284624
-9.58868e-05
9.51944e-05
0.000283916
0.000465631
0.000635867
0.000790433
0.000925526
0.00103782
0.00112455
0.00118359
0.00121347
0.000979549
0.000955403
0.000907705
0.000837628
0.000746899
0.00063775
0.000512869
0.000375331
0.000228521
7.60545e-05
-7.83137e-05
-0.000230782
-0.000377596
-0.000515139
-0.000640023
-0.000749171
-0.000839895
-0.000909958
-0.000957635
-0.00098175
-0.000981709
-0.000957511
-0.000909752
-0.000839607
-0.000748805
-0.00063958
-0.000514622
-0.000377008
-0.000230127
-7.75958e-05
7.6831e-05
0.000229351
0.00037621
0.000513792
0.00063871
0.00074789
0.000838645
0.000908741
0.000956452
0.000980604
0.000791458
0.000771945
0.000733396
0.000676763
0.000603439
0.000515229
0.000414306
0.000303154
0.000184509
6.12943e-05
-6.34569e-05
-0.000186672
-0.000305317
-0.000416468
-0.000517389
-0.000605593
-0.000678907
-0.000735524
-0.00077405
-0.000793534
-0.000793497
-0.000773938
-0.000735338
-0.000678648
-0.000605263
-0.00051699
-0.000416003
-0.000304787
-0.000186082
-6.28103e-05
6.19937e-05
0.000185257
0.000303945
0.000415136
0.000516094
0.000604332
0.000677679
0.000734329
0.000772889
0.000792409
0.000639459
0.000623688
0.000592535
0.000546766
0.000487509
0.000416222
0.00033466
0.000244833
0.000148951
4.93754e-05
-5.14408e-05
-0.000151015
-0.000246895
-0.00033672
-0.000418275
-0.000489554
-0.000548798
-0.00059455
-0.000625681
-0.000641423
-0.00064139
-0.00062558
-0.000594382
-0.000548565
-0.000489256
-0.000417916
-0.0003363
-0.000246418
-0.000150484
-5.08582e-05
5.00056e-05
0.000149624
0.000245546
0.000335409
0.000417001
0.000488313
0.000547591
0.000593376
0.000624539
0.000640315
0.000516626
0.000503881
0.000478705
0.000441716
0.000393827
0.000336217
0.000270303
0.000197709
0.000120222
3.97517e-05
-4.17215e-05
-0.000122191
-0.000199674
-0.000272263
-0.000338169
-0.00039577
-0.000443645
-0.000480616
-0.000505771
-0.00051849
-0.00051846
-0.00050568
-0.000480465
-0.000443435
-0.000395502
-0.000337845
-0.000271885
-0.000199244
-0.000121712
-4.11964e-05
4.03196e-05
0.00012083
0.000198352
0.000270977
0.000336918
0.000394552
0.00044246
0.000479462
0.000504648
0.000517397
0.000417366
0.000407066
0.000386719
0.000356827
0.000318126
0.000271568
0.0002183
0.000159633
9.70135e-05
3.19822e-05
-3.38591e-05
-9.88886e-05
-0.000161505
-0.000220165
-0.000273425
-0.000319972
-0.00035866
-0.000388535
-0.000408861
-0.000419138
-0.00041911
-0.000408779
-0.000388399
-0.000358471
-0.000319731
-0.000273133
-0.000219824
-0.000161117
-9.84568e-05
-3.33858e-05
3.24941e-05
9.75608e-05
0.000160213
0.000218907
0.0002722
0.000318779
0.000357497
0.000387402
0.000407757
0.000418061
0.000337154
0.000328831
0.000312388
0.00028823
0.000256954
0.000219328
0.00017628
0.00012887
7.82645e-05
2.57105e-05
-2.74978e-05
-8.00499e-05
-0.000130651
-0.000178056
-0.000221096
-0.000258711
-0.000289974
-0.000314115
-0.000330539
-0.000338841
-0.000338816
-0.000330465
-0.000313992
-0.000289803
-0.000258493
-0.000220832
-0.000177749
-0.000130302
-7.96606e-05
-2.70711e-05
2.6172e-05
7.8758e-05
0.000129392
0.000176828
0.000219899
0.000257543
0.000288834
0.000313003
0.000329453
0.000337781
0.000272338
0.000265611
0.000252323
0.000232801
0.000207525
0.000177118
0.000142329
0.000104015
6.31193e-05
2.06488e-05
-2.23502e-05
-6.48188e-05
-0.000105711
-0.000144019
-0.0001788
-0.000209196
-0.000234459
-0.000253966
-0.000267237
-0.000273944
-0.000273922
-0.000267171
-0.000253856
-0.000234305
-0.000209
-0.000178562
-0.000143742
-0.000105396
-6.44677e-05
-2.19653e-05
2.10651e-05
6.35644e-05
0.000104486
0.000142824
0.000177632
0.000208056
0.000233345
0.000252878
0.000266173
0.000272903
0.000219963
0.000214527
0.000203788
0.000188011
0.000167585
0.000143012
0.000114898
8.39354e-05
5.08862e-05
1.65647e-05
-1.81838e-05
-5.25035e-05
-8.55489e-05
-0.000116506
-0.000144612
-0.000169175
-0.00018959
-0.000205353
-0.000216075
-0.000221494
-0.000221473
-0.000216015
-0.000205253
-0.000189451
-0.000168998
-0.000144398
-0.000116256
-8.52645e-05
-5.21867e-05
-1.78366e-05
1.69402e-05
5.12877e-05
8.43604e-05
0.000115344
0.000143476
0.000168064
0.000188503
0.000204289
0.000215034
0.000220473
0.000177642
0.000173249
0.000164571
0.000151821
0.000135314
0.000115456
9.27362e-05
6.77142e-05
4.10063e-05
1.32703e-05
-1.48107e-05
-4.25449e-05
-6.92492e-05
-9.42658e-05
-0.000116978
-0.000136827
-0.000153323
-0.00016606
-0.000174724
-0.000179101
-0.000179083
-0.00017467
-0.00016597
-0.000153198
-0.000136667
-0.000116785
-9.404e-05
-6.89926e-05
-4.2259e-05
-1.44973e-05
1.36092e-05
4.13686e-05
6.80976e-05
9.31384e-05
0.000115874
0.000135746
0.000152264
0.000165022
0.000173706
0.000178102
0.000143447
0.000139897
0.000132883
0.00012258
0.00010924
9.31922e-05
7.48318e-05
5.46109e-05
3.30277e-05
1.06138e-05
-1.20789e-05
-3.44912e-05
-5.6071e-05
-7.62868e-05
-9.46405e-05
-0.00011068
-0.00012401
-0.000134301
-0.000141301
-0.000144837
-0.00014482
-0.000141252
-0.00013422
-0.000123896
-0.000110535
-9.44658e-05
-7.6083e-05
-5.58393e-05
-3.4233e-05
-1.17959e-05
1.09197e-05
3.33548e-05
5.49571e-05
7.51949e-05
9.35699e-05
0.00010963
0.00012298
0.000133291
0.000140309
0.000143862
0.000115818
0.000112949
0.000107281
9.89544e-05
8.81741e-05
7.52056e-05
6.03681e-05
4.40273e-05
2.65856e-05
8.47255e-06
-9.86554e-06
-2.7977e-05
-4.54156e-05
-6.17518e-05
-7.65831e-05
-8.95439e-05
-0.000100315
-0.000108631
-0.000114286
-0.000117142
-0.000117127
-0.000114242
-0.000108557
-0.000100213
-8.94134e-05
-7.64253e-05
-6.15677e-05
-4.52063e-05
-2.77439e-05
-9.61002e-06
8.74886e-06
2.68809e-05
4.43399e-05
6.0696e-05
7.55466e-05
8.85263e-05
9.93155e-05
0.000107649
0.000113321
0.000116192
9.34946e-05
9.11761e-05
8.6596e-05
7.98672e-05
7.11554e-05
6.06753e-05
4.86849e-05
3.54797e-05
2.13848e-05
6.7476e-06
-8.07145e-06
-2.27073e-05
-3.67992e-05
-5.00002e-05
-6.19849e-05
-7.2458e-05
-8.11613e-05
-8.78804e-05
-9.24495e-05
-9.47559e-05
-9.47425e-05
-9.24094e-05
-8.78139e-05
-8.10688e-05
-7.23401e-05
-6.18423e-05
-4.98338e-05
-3.66101e-05
-2.24966e-05
-7.8406e-06
6.99722e-06
2.16517e-05
3.5762e-05
4.8981e-05
6.09833e-05
7.14735e-05
8.01933e-05
8.69281e-05
9.15123e-05
9.38328e-05
7.54598e-05
7.35861e-05
6.98849e-05
6.44472e-05
5.74071e-05
4.8938e-05
3.92485e-05
2.85773e-05
1.71872e-05
5.35886e-06
-6.61634e-06
-1.84434e-05
-2.98308e-05
-4.04982e-05
-5.01825e-05
-5.86452e-05
-6.56776e-05
-7.11064e-05
-7.47976e-05
-7.66603e-05
-7.66482e-05
-7.47614e-05
-7.10463e-05
-6.5594e-05
-5.85386e-05
-5.00536e-05
-4.03478e-05
-2.96599e-05
-1.8253e-05
-6.40768e-06