/*--------------------------------*- C++ -*----------------------------------*\
| =========                 |                                                 |
| \\      /  F ield         | OpenFOAM: The Open Source CFD Toolbox           |
|  \\    /   O peration     | Version:  v2106                                 |
|   \\  /    A nd           | Website:  www.openfoam.com                      |
|    \\/     M anipulation  |                                                 |
\*---------------------------------------------------------------------------*/
FoamFile
{
    version     2.0;
    format      ascii;
    arch        "LSB;label=32;scalar=64";
    class       volVectorField;
    location    "0";
    object      U;
}
// * * * * * * * * * * * * * * * * * * * * * * * * * * * * * * * * * * * * * //

dimensions      [0 1 -1 0 0 0 0];

internalField   nonuniform List<vector> 
11644
(
(1.00124 -0.000922812 0)
(1.00123 -0.00276475 0)
(1.00122 -0.00459474 0)
(1.0012 -0.00640218 0)
(1.00117 -0.00817253 0)
(1.00113 -0.00988559 0)
(1.00106 -0.0115139 0)
(1.00096 -0.0130212 0)
(1.00084 -0.0143614 0)
(1.00066 -0.0154779 0)
(1.00045 -0.0163043 0)
(1.00018 -0.0167668 0)
(0.999855 -0.016789 0)
(0.999488 -0.0162989 0)
(0.99909 -0.0152392 0)
(0.998682 -0.0135792 0)
(0.998293 -0.0113261 0)
(0.997958 -0.00853429 0)
(0.997711 -0.00530924 0)
(0.99758 -0.00180241 5.59709e-28)
(0.99758 0.00180224 -5.59709e-28)
(0.997711 0.00530907 0)
(0.997958 0.00853413 0)
(0.998293 0.0113259 0)
(0.998682 0.0135791 0)
(0.99909 0.0152391 0)
(0.999488 0.0162987 0)
(0.999855 0.0167888 0)
(1.00018 0.0167667 0)
(1.00045 0.0163042 0)
(1.00066 0.0154778 0)
(1.00084 0.0143614 0)
(1.00096 0.0130212 0)
(1.00106 0.0115139 0)
(1.00113 0.00988555 0)
(1.00117 0.0081725 0)
(1.0012 0.00640216 0)
(1.00122 0.00459472 0)
(1.00123 0.00276474 0)
(1.00124 0.000922809 0)
(1.0038 -0.000943626 0)
(1.00378 -0.00282864 0)
(1.00375 -0.00470595 0)
(1.0037 -0.00656773 0)
(1.00361 -0.00840227 0)
(1.00348 -0.0101921 0)
(1.00329 -0.0119122 0)
(1.00301 -0.0135279 0)
(1.00263 -0.0149932 0)
(1.00212 -0.0162496 0)
(1.00146 -0.0172253 0)
(1.00063 -0.0178368 0)
(0.999641 -0.0179926 0)
(0.998495 -0.0176014 0)
(0.997237 -0.0165832 0)
(0.995934 -0.0148849 0)
(0.994682 -0.0124967 0)
(0.993594 -0.00946732 0)
(0.992787 -0.00591245 0)
(0.992355 -0.00201123 -2.27589e-27)
(0.992355 0.00201106 2.27589e-27)
(0.992787 0.00591228 0)
(0.993594 0.00946715 0)
(0.994682 0.0124965 0)
(0.995934 0.0148847 0)
(0.997237 0.0165831 0)
(0.998495 0.0176013 0)
(0.999641 0.0179925 0)
(1.00063 0.0178367 0)
(1.00146 0.0172252 0)
(1.00212 0.0162496 0)
(1.00263 0.0149932 0)
(1.00301 0.0135278 0)
(1.00329 0.0119121 0)
(1.00348 0.0101921 0)
(1.00361 0.00840224 0)
(1.0037 0.00656771 0)
(1.00375 0.00470594 0)
(1.00378 0.00282863 0)
(1.0038 0.000943623 0)
(1.00638 -0.00095492 0)
(1.00636 -0.00286537 0)
(1.00632 -0.00477678 0)
(1.00626 -0.00668736 0)
(1.00614 -0.00859174 0)
(1.00595 -0.0104789 0)
(1.00567 -0.0123302 0)
(1.00525 -0.0141164 0)
(1.00466 -0.015795 0)
(1.00385 -0.0173069 0)
(1.00278 -0.0185736 0)
(1.0014 -0.0194957 0)
(0.999709 -0.0199539 0)
(0.997711 -0.0198167 0)
(0.995468 -0.0189542 0)
(0.993096 -0.0172605 0)
(0.990772 -0.0146813 0)
(0.988716 -0.011243 0)
(0.98717 -0.00707583 0)
(0.986337 -0.00241669 -4.6362e-27)
(0.986337 0.00241651 4.6362e-27)
(0.98717 0.00707565 0)
(0.988716 0.0112429 0)
(0.990772 0.0146811 0)
(0.993096 0.0172603 0)
(0.995468 0.018954 0)
(0.997711 0.0198165 0)
(0.999709 0.0199538 0)
(1.0014 0.0194956 0)
(1.00278 0.0185736 0)
(1.00385 0.0173068 0)
(1.00466 0.0157949 0)
(1.00525 0.0141163 0)
(1.00567 0.0123301 0)
(1.00595 0.0104789 0)
(1.00614 0.00859171 0)
(1.00626 0.00668734 0)
(1.00632 0.00477676 0)
(1.00636 0.00286536 0)
(1.00638 0.000954917 0)
(1.00899 -0.000965109 0)
(1.00898 -0.00290006 0)
(1.00895 -0.00484856 0)
(1.0089 -0.00681779 0)
(1.0088 -0.00881208 0)
(1.00861 -0.0108311 0)
(1.0083 -0.0128672 0)
(1.00782 -0.0149023 0)
(1.0071 -0.0169032 0)
(1.00607 -0.0188157 0)
(1.00465 -0.0205574 0)
(1.00276 -0.0220101 0)
(1.00034 -0.0230143 0)
(0.997379 -0.0233712 0)
(0.993935 -0.0228608 0)
(0.990169 -0.0212728 0)
(0.986361 -0.0184544 0)
(0.982894 -0.0143672 0)
(0.980228 -0.00914948 0)
(0.978772 -0.00314429 0)
(0.978772 0.00314409 0)
(0.980228 0.00914928 0)
(0.982894 0.014367 0)
(0.986361 0.0184543 0)
(0.990169 0.0212727 0)
(0.993935 0.0228606 0)
(0.997379 0.023371 0)
(1.00034 0.0230142 0)
(1.00276 0.02201 0)
(1.00465 0.0205573 0)
(1.00607 0.0188156 0)
(1.0071 0.0169031 0)
(1.00782 0.0149022 0)
(1.0083 0.0128671 0)
(1.00861 0.010831 0)
(1.0088 0.00881206 0)
(1.0089 0.00681777 0)
(1.00895 0.00484855 0)
(1.00898 0.00290006 0)
(1.00899 0.000965107 0)
(1.01161 -0.000966662 0)
(1.01162 -0.00290979 0)
(1.01164 -0.00488198 0)
(1.01164 -0.00690186 0)
(1.0116 -0.00898682 0)
(1.01149 -0.0111516 0)
(1.01125 -0.013406 0)
(1.01082 -0.0157514 0)
(1.01011 -0.0181748 0)
(1.00901 -0.0206401 0)
(1.00739 -0.0230752 0)
(1.0051 -0.0253535 0)
(1.00198 -0.0272712 0)
(0.997938 -0.0285293 0)
(0.993001 -0.02876 0)
(0.987321 -0.0275615 0)
(0.981319 -0.0245756 0)
(0.975587 -0.0195844 0)
(0.971043 -0.0126814 0)
(0.96851 -0.00439646 -9.96161e-27)
(0.96851 0.00439624 9.96161e-27)
(0.971043 0.0126812 0)
(0.975587 0.0195841 0)
(0.981319 0.0245754 0)
(0.987321 0.0275614 0)
(0.993 0.0287599 0)
(0.997938 0.0285291 0)
(1.00198 0.0272711 0)
(1.0051 0.0253534 0)
(1.00739 0.0230751 0)
(1.00901 0.0206401 0)
(1.01011 0.0181747 0)
(1.01082 0.0157513 0)
(1.01125 0.0134059 0)
(1.01149 0.0111516 0)
(1.0116 0.00898681 0)
(1.01164 0.00690185 0)
(1.01164 0.00488197 0)
(1.01162 0.00290978 0)
(1.01161 0.000966661 0)
(1.01422 -0.000950218 0)
(1.01427 -0.00286583 0)
(1.01435 -0.00482716 0)
(1.01445 -0.00686563 0)
(1.01455 -0.00901406 0)
(1.01461 -0.0113064 0)
(1.01456 -0.0137766 0)
(1.01435 -0.0164562 0)
(1.01384 -0.0193688 0)
(1.01292 -0.0225204 0)
(1.01137 -0.0258822 0)
(1.00895 -0.0293619 0)
(1.00534 -0.0327474 0)
(1.00015 -0.0355863 0)
(0.993439 -0.0373009 0)
(0.985074 -0.0371547 0)
(0.975723 -0.0344218 0)
(0.966276 -0.0283354 0)
(0.958453 -0.0187687 0)
(0.953946 -0.00658769 -2.11867e-26)
(0.953946 0.00658745 2.11867e-26)
(0.958453 0.0187684 0)
(0.966276 0.0283352 0)
(0.975723 0.0344216 0)
(0.985074 0.0371545 0)
(0.993439 0.0373007 0)
(1.00015 0.0355861 0)
(1.00534 0.0327473 0)
(1.00895 0.0293619 0)
(1.01137 0.0258822 0)
(1.01291 0.0225203 0)
(1.01384 0.0193688 0)
(1.01435 0.0164562 0)
(1.01456 0.0137766 0)
(1.01461 0.0113064 0)
(1.01455 0.00901405 0)
(1.01445 0.00686563 0)
(1.01435 0.00482716 0)
(1.01427 0.00286583 0)
(1.01422 0.000950218 0)
(1.01675 -0.000905829 0)
(1.01684 -0.00273742 0)
(1.01702 -0.00462966 0)
(1.01727 -0.00662612 0)
(1.01758 -0.00877529 0)
(1.0179 -0.0111323 0)
(1.0182 -0.0137601 0)
(1.01839 -0.0167304 0)
(1.01837 -0.0201212 0)
(1.01797 -0.0240121 0)
(1.01695 -0.028472 0)
(1.01499 -0.0335431 0)
(1.01165 -0.0392452 0)
(1.00517 -0.0447098 0)
(0.996769 -0.0492655 0)
(0.985008 -0.0524184 0)
(0.978438 -0.0444839 0)
(0.964448 -0.0425018 0)
(0.950526 -0.0312331 0)
(0.940303 -0.0145321 -2.92558e-21)
(0.936747 0.00506962 0)
(0.940775 0.0236232 2.67462e-20)
(0.950739 0.0377093 0)
(0.963442 0.0460753 0)
(0.985008 0.0524181 0)
(0.996769 0.0492654 0)
(1.00517 0.0447097 0)
(1.01164 0.0392451 0)
(1.01499 0.0335431 0)
(1.01695 0.028472 0)
(1.01797 0.024012 0)
(1.01837 0.0201212 0)
(1.01839 0.0167304 0)
(1.0182 0.0137601 0)
(1.0179 0.0111323 0)
(1.01758 0.00877529 0)
(1.01727 0.00662612 0)
(1.01702 0.00462966 0)
(1.01684 0.00273743 0)
(1.01675 0.000905829 0)
(1.0191 -0.000824682 0)
(1.01925 -0.00249695 0)
(1.01955 -0.00423941 0)
(1.01999 -0.00610424 0)
(1.02056 -0.00815232 0)
(1.02125 -0.0104573 0)
(1.02203 -0.0131107 0)
(1.02284 -0.0162271 0)
(1.02359 -0.0199495 0)
(1.02415 -0.0244517 0)
(1.02428 -0.0299314 0)
(1.02359 -0.0365734 0)
(1.02148 -0.0443123 0)
(1.01881 -0.0542042 0)
(1.01141 -0.0588483 0)
(0.998793 -0.0672468 0)
(0.974177 -0.0710656 0)
(0.949602 -0.0677596 0)
(0.924103 -0.0530775 0)
(0.905141 -0.0257918 3.2198e-21)
(0.900814 0.00882667 0)
(0.913249 0.0408466 -3.21989e-21)
(0.936613 0.0620567 0)
(0.962318 0.0705191 0)
(0.977258 0.0703253 0)
(0.993546 0.0631135 0)
(1.00447 0.054205 0)
(1.02148 0.0443123 0)
(1.02359 0.0365734 0)
(1.02428 0.0299314 0)
(1.02415 0.0244517 0)
(1.02359 0.0199495 0)
(1.02284 0.0162271 0)
(1.02203 0.0131108 0)
(1.02125 0.0104574 0)
(1.02056 0.00815234 0)
(1.01999 0.00610425 0)
(1.01955 0.00423942 0)
(1.01925 0.00249696 0)
(1.0191 0.000824684 0)
(1.02117 -0.00070128 0)
(1.02139 -0.00212674 0)
(1.02181 -0.00362282 0)
(1.02246 -0.00524351 0)
(1.02334 -0.00705427 0)
(1.02445 -0.00913834 0)
(1.0258 -0.0116054 0)
(1.02739 -0.0146038 0)
(1.02919 -0.0183365 0)
(1.03114 -0.023085 0)
(1.03311 -0.0292404 0)
(1.0348 -0.0373433 0)
(1.03564 -0.0473756 0)
(1.0292 -0.0644534 0)
(1.02318 -0.072818 0)
(1.00857 -0.0906878 0)
(0.994866 -0.101577 0)
(0.958256 -0.109537 0)
(0.909114 -0.0976976 6.87469e-21)
(0.862184 -0.0559779 0)
(0.841758 0.00872485 -3.71871e-21)
(0.859864 0.0695374 0)
(0.902643 0.103297 -5.39272e-20)
(0.947365 0.108822 0)
(0.981198 0.0978189 0)
(1.01791 0.0819436 0)
(1.02683 0.0645806 0)
(1.03564 0.0473756 0)
(1.0348 0.0373433 0)
(1.03311 0.0292405 0)
(1.03114 0.0230851 0)
(1.02918 0.0183365 0)
(1.02739 0.0146038 0)
(1.0258 0.0116055 0)
(1.02445 0.00913837 0)
(1.02334 0.0070543 0)
(1.02246 0.00524353 0)
(1.02181 0.00362283 0)
(1.02139 0.00212675 0)
(1.02117 0.000701282 0)
(1.02286 -0.000535604 0)
(1.02313 -0.00162597 0)
(1.02367 -0.0027757 0)
(1.02452 -0.00403127 0)
(1.02568 -0.00545077 0)
(1.0272 -0.007111 0)
(1.02913 -0.00911793 0)
(1.03154 -0.0116226 0)
(1.03449 -0.014846 0)
(1.0381 -0.0191191 0)
(1.04244 -0.0249488 0)
(1.0476 -0.0331252 0)
(1.05354 -0.0439413 0)
(1.05178 -0.0696801 0)
(1.05333 -0.0810974 0)
(1.04246 -0.118217 0)
(1.01905 -0.147365 0)
(0.96874 -0.18154 0)
(0.87544 -0.196937 5.87685e-20)
(0.759226 -0.137136 0)
(0.705958 0.0103665 1.04027e-19)
(0.772553 0.150167 1.27375e-19)
(0.88938 0.198004 -5.65026e-20)
(0.977172 0.177061 0)
(1.02849 0.135978 0)
(1.05204 0.0953057 0)
(1.05299 0.0684856 0)
(1.05354 0.0439414 0)
(1.0476 0.0331254 0)
(1.04244 0.0249489 0)
(1.0381 0.0191192 0)
(1.03449 0.0148461 0)
(1.03154 0.0116227 0)
(1.02913 0.00911799 0)
(1.0272 0.00711105 0)
(1.02568 0.00545081 0)
(1.02452 0.0040313 0)
(1.02367 0.00277572 0)
(1.02313 0.00162598 0)
(1.02286 0.000535608 0)
(1.02404 -0.000334557 0)
(1.02435 -0.00101539 0)
(1.02499 -0.00173273 0)
(1.02597 -0.00251576 0)
(1.02736 -0.00340192 0)
(1.0292 -0.00444227 0)
(1.03159 -0.0057097 0)
(1.03467 -0.00731204 0)
(1.03861 -0.009414 0)
(1.04369 -0.012275 0)
(1.05028 -0.0163174 0)
(1.05896 -0.0222523 0)
(1.07054 -0.0304964 0)
(1.07782 -0.0622436 0)
(1.09415 -0.07065 0)
(1.10294 -0.130686 0)
(1.10514 -0.194872 9.14243e-21)
(1.07862 -0.28597 -4.85786e-20)
(0.93261 -0.429719 -4.12322e-19)
(0.557953 -0.445901 -8.90728e-18)
(0.263662 0.0190716 0)
(0.586731 0.456964 -2.14413e-18)
(0.90876 0.421486 4.24322e-19)
(1.0859 0.268552 2.27041e-20)
(1.11203 0.155509 -2.35935e-21)
(1.10383 0.087348 0)
(1.08544 0.0567396 0)
(1.07054 0.0304967 0)
(1.05896 0.0222526 0)
(1.05028 0.0163176 0)
(1.04369 0.0122752 0)
(1.03861 0.00941412 0)
(1.03467 0.00731214 0)
(1.03159 0.00570978 0)
(1.0292 0.00444233 0)
(1.02736 0.00340196 0)
(1.02597 0.00251579 0)
(1.02499 0.00173276 0)
(1.02435 0.00101541 0)
(1.02404 0.000334561 0)
(1.02465 -0.000111849 0)
(1.02498 -0.000337263 0)
(1.02565 -0.000568145 0)
(1.0267 -0.000809312 0)
(1.02819 -0.00106759 0)
(1.03017 -0.00135311 0)
(1.03279 -0.00168134 0)
(1.03619 -0.00207633 0)
(1.04063 -0.00257631 0)
(1.04647 -0.00324348 0)
(1.05429 -0.00418226 0)
(1.06494 -0.00557647 0)
(1.07989 -0.00753712 0)
(1.09665 -0.0372548 0)
(1.12725 -0.0300253 0)
(1.16673 -0.0913075 0)
(1.23214 -0.160142 6.8371e-21)
(1.34338 -0.305481 -1.15982e-19)
(1.51786 -0.682558 6.51573e-18)
(1.50567 0.638551 -1.32126e-18)
(1.33674 0.222776 -7.83426e-21)
(1.22023 0.0928073 0)
(1.14898 0.0384022 0)
(1.11019 0.0231409 0)
(1.07989 0.00753761 0)
(1.06494 0.00557683 0)
(1.05429 0.00418253 0)
(1.04647 0.00324368 0)
(1.04063 0.00257646 0)
(1.03619 0.00207645 0)
(1.03279 0.00168143 0)
(1.03017 0.00135318 0)
(1.02819 0.00106764 0)
(1.0267 0.000809351 0)
(1.02565 0.000568172 0)
(1.02498 0.000337278 0)
(1.02465 0.000111854 0)
(1.02464 0.000114043 0)
(1.02497 0.000351046 0)
(1.02562 0.00061561 0)
(1.02664 0.000929009 0)
(1.02807 0.0013175 0)
(1.03 0.00181564 0)
(1.03252 0.0024715 0)
(1.0358 0.00335522 0)
(1.04005 0.00457353 0)
(1.04563 0.00629568 0)
(1.05302 0.00880111 0)
(1.06301 0.0125687 0)
(1.07682 0.0179211 0)
(1.09675 -0.00130934 0)
(1.12776 0.0275851 0)
(1.17701 -0.000358615 0)
(1.26629 0.00288666 0)
(1.4558 0.109555 -2.14105e-20)
(1.02494 0.150432 1.87437e-18)
(1.69835 -0.323028 -4.19625e-19)
(1.43928 -0.0986485 0)
(1.23986 -0.0547971 0)
(1.14972 -0.0354035 0)
(1.11053 -0.0218016 0)
(1.07682 -0.0179206 0)
(1.06301 -0.0125683 0)
(1.05302 -0.00880084 0)
(1.04563 -0.00629548 0)
(1.04005 -0.00457338 0)
(1.0358 -0.0033551 0)
(1.03252 -0.00247141 0)
(1.03 -0.00181556 0)
(1.02807 -0.00131744 0)
(1.02664 -0.000928969 0)
(1.02562 -0.000615582 0)
(1.02497 -0.00035103 0)
(1.02464 -0.000114038 0)
(1.02405 0.000323477 0)
(1.02433 0.00098845 0)
(1.02491 0.00170914 0)
(1.02581 0.00252863 0)
(1.02706 0.00350007 0)
(1.02872 0.00469312 0)
(1.03086 0.00620368 0)
(1.03359 0.00816919 0)
(1.03704 0.0107937 0)
(1.04141 0.01439 0)
(1.04695 0.0194532 0)
(1.05398 0.0267899 0)
(1.06292 0.0368052 0)
(1.07803 0.0298395 0)
(1.09517 0.0688984 0)
(1.12201 0.0754394 0)
(1.15594 0.133977 0)
(1.17413 0.308613 1.25395e-22)
(1.09017 0.596512 0)
(1.10505 -0.572555 4.16028e-19)
(1.17463 -0.2842 0)
(1.14302 -0.148275 0)
(1.10524 -0.0854336 0)
(1.08612 -0.055527 0)
(1.06293 -0.0368048 0)
(1.05398 -0.0267897 0)
(1.04695 -0.0194529 0)
(1.04141 -0.0143898 0)
(1.03704 -0.0107935 0)
(1.03359 -0.00816908 0)
(1.03086 -0.00620359 0)
(1.02872 -0.00469306 0)
(1.02706 -0.00350002 0)
(1.02581 -0.0025286 0)
(1.02491 -0.00170912 0)
(1.02433 -0.000988435 0)
(1.02405 -0.000323471 0)
(1.02293 0.000499626 0)
(1.02316 0.00152285 0)
(1.02362 0.00261997 0)
(1.02432 0.00384729 0)
(1.02529 0.00527288 0)
(1.02654 0.00698351 0)
(1.02811 0.00909457 0)
(1.03003 0.0117645 0)
(1.03233 0.0152165 0)
(1.03503 0.0197714 0)
(1.03811 0.0258983 0)
(1.04142 0.0342956 0)
(1.04461 0.0451129 0)
(1.05192 0.046167 0)
(1.05409 0.0799042 0)
(1.05635 0.0977498 0)
(1.04567 0.147833 0)
(0.995336 0.222336 -4.46805e-21)
(0.874035 0.271836 -6.21229e-21)
(0.686778 0.212916 -2.1219e-20)
(0.576421 -0.00878831 -1.97794e-20)
(0.709813 -0.230308 -3.09099e-19)
(0.893981 -0.269089 -1.16917e-19)
(1.00477 -0.213937 4.46815e-21)
(1.04622 -0.144273 0)
(1.05301 -0.0942445 0)
(1.05353 -0.0672872 0)
(1.04461 -0.0451128 0)
(1.04142 -0.0342955 0)
(1.03811 -0.0258982 0)
(1.03503 -0.0197713 0)
(1.03233 -0.0152164 0)
(1.03003 -0.0117644 0)
(1.02811 -0.0090945 0)
(1.02654 -0.00698345 0)
(1.02529 -0.00527283 0)
(1.02432 -0.00384726 0)
(1.02362 -0.00261995 0)
(1.02316 -0.00152284 0)
(1.02293 -0.000499622 0)
(1.02139 0.000631491 0)
(1.02155 0.00192062 0)
(1.02187 0.00328994 0)
(1.02235 0.0047992 0)
(1.02298 0.00651838 0)
(1.02378 0.00853309 0)
(1.02471 0.0109514 0)
(1.02577 0.0139127 0)
(1.02689 0.0175982 0)
(1.02796 0.0222425 0)
(1.02881 0.0281404 0)
(1.02909 0.0356353 0)
(1.0282 0.0447616 0)
(1.02901 0.0492333 0)
(1.02353 0.0717932 0)
(1.0086 0.0902186 0)
(0.99034 0.11205 0)
(0.947915 0.126164 0)
(0.888861 0.1175 2.85163e-21)
(0.831856 0.069642 -1.43116e-20)
(0.811649 -0.0106808 0)
(0.844053 -0.0855584 0)
(0.904568 -0.122866 -4.97301e-20)
(0.960316 -0.124014 0)
(0.998399 -0.106757 0)
(1.01819 -0.0810321 0)
(1.0271 -0.0633476 0)
(1.0282 -0.0447615 0)
(1.02909 -0.0356353 0)
(1.02881 -0.0281403 0)
(1.02796 -0.0222424 0)
(1.02689 -0.0175981 0)
(1.02577 -0.0139127 0)
(1.02471 -0.0109514 0)
(1.02378 -0.00853305 0)
(1.02298 -0.00651835 0)
(1.02235 -0.00479917 0)
(1.02187 -0.00328992 0)
(1.02155 -0.00192061 0)
(1.02139 -0.000631488 0)
(1.01956 0.000715062 0)
(1.01965 0.00217008 0)
(1.01982 0.00370098 0)
(1.02008 0.00536271 0)
(1.02039 0.00721711 0)
(1.02074 0.00933582 0)
(1.0211 0.0118035 0)
(1.02139 0.0147205 0)
(1.02151 0.0182051 0)
(1.02132 0.0223923 0)
(1.02058 0.0274286 0)
(1.01892 0.0334624 0)
(1.01582 0.0406259 0)
(1.00887 0.0476126 0)
(1.00531 0.054524 0)
(0.991987 0.0655912 0)
(0.975476 0.0779327 0)
(0.949828 0.0736069 0)
(0.921397 0.060652 0)
(0.898611 0.0328527 0)
(0.89131 -0.00489767 6.33733e-22)
(0.903197 -0.0410693 -2.00358e-20)
(0.928377 -0.0652869 0)
(0.956724 -0.0746971 0)
(0.982941 -0.0687169 0)
(0.99941 -0.061291 0)
(1.00887 -0.0476126 0)
(1.01582 -0.0406259 0)
(1.01892 -0.0334624 0)
(1.02058 -0.0274286 0)
(1.02132 -0.0223923 0)
(1.02151 -0.0182051 0)
(1.02139 -0.0147205 0)
(1.0211 -0.0118034 0)
(1.02074 -0.0093358 0)
(1.02039 -0.00721709 0)
(1.02008 -0.0053627 0)
(1.01982 -0.00370097 0)
(1.01965 -0.00217007 0)
(1.01956 -0.000715059 0)
(1.01756 0.00075266 0)
(1.01759 0.00227919 0)
(1.01764 0.00386992 0)
(1.01769 0.00556975 0)
(1.01773 0.00742675 0)
(1.01771 0.00949286 0)
(1.0176 0.0118239 0)
(1.01731 0.014478 0)
(1.01673 0.0175117 0)
(1.01571 0.0209707 0)
(1.01403 0.0248722 0)
(1.01141 0.0291706 0)
(1.00742 0.0336902 0)
(1.00152 0.0377927 0)
(0.99644 0.04327 0)
(0.986069 0.0465848 0)
(0.974445 0.0537489 0)
(0.959209 0.0451428 0)
(0.944517 0.034657 0)
(0.933896 0.01789 0)
(0.930668 -0.00262962 0)
(0.935964 -0.0225751 0)
(0.947958 -0.0379101 0)
(0.963081 -0.046721 0)
(0.979848 -0.0471122 0)
(0.991611 -0.0452046 0)
(1.00152 -0.0377928 0)
(1.00742 -0.0336903 0)
(1.01141 -0.0291706 0)
(1.01403 -0.0248722 0)
(1.01571 -0.0209707 0)
(1.01673 -0.0175116 0)
(1.01731 -0.0144779 0)
(1.0176 -0.0118238 0)
(1.01771 -0.00949285 0)
(1.01773 -0.00742674 0)
(1.01769 -0.00556974 0)
(1.01764 -0.00386991 0)
(1.01759 -0.00227919 0)
(1.01756 -0.000752659 0)
(1.01552 0.000751101 0)
(1.01549 0.00226959 0)
(1.01544 0.00383695 0)
(1.01534 0.00548595 0)
(1.01516 0.00724949 0)
(1.01487 0.00915974 0)
(1.01443 0.0112463 0)
(1.01375 0.0135329 0)
(1.01275 0.016031 0)
(1.0113 0.01873 0)
(1.00925 0.021581 0)
(1.00641 0.0244727 0)
(1.00257 0.0271991 0)
(0.997549 0.0293667 0)
(0.993054 0.0333847 0)
(0.985416 0.0332386 0)
(0.977466 0.0376398 0)
(0.96824 0.0291043 0)
(0.960064 0.0214004 0)
(0.954508 0.0107409 0)
(0.952871 -0.00156608 0)
(0.955569 -0.0136258 0)
(0.961924 -0.0236354 0)
(0.970504 -0.0304973 0)
(0.981204 -0.0327763 0)
(0.989381 -0.0331146 0)
(0.99755 -0.0293668 0)
(1.00257 -0.0271992 0)
(1.00641 -0.0244727 0)
(1.00925 -0.021581 0)
(1.0113 -0.0187301 0)
(1.01275 -0.0160311 0)
(1.01375 -0.0135329 0)
(1.01443 -0.0112463 0)
(1.01488 -0.00915974 0)
(1.01516 -0.00724948 0)
(1.01534 -0.00548594 0)
(1.01544 -0.00383695 0)
(1.01549 -0.00226959 0)
(1.01552 -0.000751101 0)
(1.01352 0.000719493 0)
(1.01346 0.00216964 0)
(1.01333 0.00365289 0)
(1.01311 0.00519021 0)
(1.01279 0.00680078 0)
(1.01233 0.00850034 0)
(1.01169 0.0102988 0)
(1.0108 0.0121965 0)
(1.00961 0.0141789 0)
(1.00802 0.0162086 0)
(1.00593 0.0182153 0)
(1.00325 0.0200837 0)
(0.999899 0.0216426 0)
(0.995818 0.0226623 0)
(0.992215 0.0255965 0)
(0.986737 0.0240203 0)
(0.981291 0.0269223 0)
(0.975503 0.0195995 0)
(0.970649 0.0140153 0)
(0.96748 0.00691155 0)
(0.966564 -0.00100273 0)
(0.968078 -0.00879684 0)
(0.971733 -0.0155741 0)
(0.976891 -0.020707 0)
(0.983878 -0.0232702 0)
(0.98953 -0.0243867 0)
(0.995818 -0.0226624 0)
(0.999899 -0.0216427 0)
(1.00326 -0.0200837 0)
(1.00593 -0.0182153 0)
(1.00802 -0.0162087 0)
(1.00961 -0.014179 0)
(1.0108 -0.0121966 0)
(1.01169 -0.0102988 0)
(1.01233 -0.00850035 0)
(1.01279 -0.00680078 0)
(1.01311 -0.00519021 0)
(1.01333 -0.00365289 0)
(1.01346 -0.00216964 0)
(1.01352 -0.000719493 0)
(1.01163 0.000667323 0)
(1.01155 0.00200851 0)
(1.01137 0.00336873 0)
(1.01109 0.00475895 0)
(1.01068 0.00618745 0)
(1.01013 0.00765799 0)
(1.00939 0.00916765 0)
(1.00843 0.0107037 0)
(1.0072 0.0122395 0)
(1.00564 0.0137301 0)
(1.00371 0.0151061 0)
(1.00136 0.0162687 0)
(0.998568 0.0170853 0)
(0.995356 0.0175249 0)
(0.992553 0.0197159 0)
(0.988637 0.017602 0)
(0.984892 0.0197136 0)
(0.981038 0.0136791 0)
(0.978009 0.0096028 0)
(0.976093 0.00468107 0)
(0.975559 -0.000677604 -1.83856e-31)
(0.976488 -0.00597198 0)
(0.978744 -0.0107149 0)
(0.982018 -0.0145322 0)
(0.986629 -0.0169332 0)
(0.990674 -0.0181564 0)
(0.995356 -0.017525 0)
(0.998569 -0.0170854 0)
(1.00136 -0.0162688 0)
(1.00371 -0.0151062 0)
(1.00564 -0.0137302 0)
(1.0072 -0.0122396 0)
(1.00843 -0.0107037 0)
(1.00939 -0.00916766 0)
(1.01013 -0.007658 0)
(1.01068 -0.00618745 0)
(1.01109 -0.00475896 0)
(1.01137 -0.00336873 0)
(1.01155 -0.00200851 0)
(1.01163 -0.000667324 0)
(1.0099 0.000603137 0)
(1.00981 0.00181221 0)
(1.00961 0.00302903 0)
(1.00929 0.00425692 0)
(1.00885 0.00549634 0)
(1.00827 0.00674334 0)
(1.00751 0.00798779 0)
(1.00656 0.00921117 0)
(1.00538 0.0103841 0)
(1.00396 0.0114639 0)
(1.00226 0.0123922 0)
(1.00027 0.0130942 0)
(0.998019 0.0134798 0)
(0.995534 0.0134542 0)
(0.992929 0.0131048 0)
(0.990393 0.0149012 0)
(0.987802 0.0114146 0)
(0.985442 0.00907905 0)
(0.983632 0.00611118 0)
(0.982559 0.00270282 0)
(0.982345 -0.000907867 3.51208e-32)
(0.983017 -0.00445003 0)
(0.984495 -0.00766423 0)
(0.986618 -0.0103402 0)
(0.989136 -0.0122923 0)
(0.992929 -0.0131049 0)
(0.995534 -0.0134543 0)
(0.998019 -0.0134799 0)
(1.00027 -0.0130942 0)
(1.00226 -0.0123923 0)
(1.00396 -0.011464 0)
(1.00538 -0.0103842 0)
(1.00656 -0.00921119 0)
(1.00751 -0.00798781 0)
(1.00827 -0.00674336 0)
(1.00885 -0.00549635 0)
(1.00929 -0.00425693 0)
(1.00961 -0.00302904 0)
(1.00981 -0.00181221 0)
(1.0099 -0.000603138 0)
(1.00836 0.000533857 0)
(1.00826 0.0016016 0)
(1.00805 0.00266885 0)
(1.00773 0.00373357 0)
(1.00729 0.00479121 0)
(1.00671 0.00583347 0)
(1.00599 0.00684699 0)
(1.0051 0.00781205 0)
(1.00404 0.00870117 0)
(1.00278 0.0094781 0)
(1.00133 0.0100973 0)
(0.999694 0.0105046 0)
(0.997893 0.010639 0)
(0.995974 0.0104369 0)
(0.994002 0.00983711 0)
(0.992164 0.00885068 0)
(0.990431 0.00746661 0)
(0.988998 0.00565157 0)
(0.987968 0.00352819 0)
(0.987429 0.00119991 -5.16308e-32)
(0.987429 -0.00120003 5.16308e-32)
(0.987969 -0.00352831 0)
(0.988998 -0.00565168 0)
(0.990431 -0.00746671 0)
(0.992164 -0.00885078 0)
(0.994002 -0.0098372 0)
(0.995974 -0.0104369 0)
(0.997893 -0.0106391 0)
(0.999694 -0.0105046 0)
(1.00133 -0.0100974 0)
(1.00278 -0.00947814 0)
(1.00404 -0.0087012 0)
(1.0051 -0.00781208 0)
(1.00599 -0.00684702 0)
(1.00671 -0.00583349 0)
(1.00729 -0.00479123 0)
(1.00773 -0.00373358 0)
(1.00805 -0.00266886 0)
(1.00826 -0.0016016 0)
(1.00836 -0.000533859 0)
(1.007 0.000464594 0)
(1.0069 0.00139195 0)
(1.0067 0.00231332 0)
(1.00639 0.00322333 0)
(1.00598 0.00411458 0)
(1.00544 0.00497679 0)
(1.00477 0.00579592 0)
(1.00398 0.00655346 0)
(1.00304 0.00722583 0)
(1.00196 0.00778415 0)
(1.00075 0.00819458 0)
(0.999416 0.00841961 0)
(0.997988 0.00842042 0)
(0.996507 0.00816108 0)
(0.995031 0.00761508 0)
(0.993638 0.0067775 0)
(0.992369 0.00564908 0)
(0.991333 0.0042508 0)
(0.990597 0.00264145 0)
(0.990214 0.00089612 -5.12025e-33)
(0.990214 -0.000896224 5.12025e-33)
(0.990597 -0.00264155 0)
(0.991333 -0.0042509 0)
(0.992369 -0.00564917 0)
(0.993638 -0.00677759 0)
(0.995031 -0.00761517 0)
(0.996507 -0.00816115 0)
(0.997988 -0.00842049 0)
(0.999416 -0.00841966 0)
(1.00075 -0.00819464 0)
(1.00196 -0.00778419 0)
(1.00304 -0.00722587 0)
(1.00398 -0.00655349 0)
(1.00477 -0.00579595 0)
(1.00544 -0.00497681 0)
(1.00598 -0.0041146 0)
(1.00639 -0.00322334 0)
(1.0067 -0.00231333 0)
(1.0069 -0.00139195 0)
(1.007 -0.000464595 0)
(1.00583 0.000398781 0)
(1.00573 0.0011934 0)
(1.00555 0.0019788 0)
(1.00526 0.00274779 0)
(1.00488 0.00349171 0)
(1.0044 0.00419982 0)
(1.00381 0.00485882 0)
(1.00311 0.00545248 0)
(1.0023 0.00596153 0)
(1.00139 0.0063638 0)
(1.00039 0.00663487 0)
(0.999312 0.00674939 0)
(0.998181 0.00668305 0)
(0.997031 0.00641546 0)
(0.995905 0.00593368 0)
(0.994852 0.00523582 0)
(0.99392 0.00433057 0)
(0.993164 0.00324078 0)
(0.992631 0.00200627 0)
(0.992356 0.000679325 0)
(0.992356 -0.000679415 0)
(0.992631 -0.00200636 0)
(0.993164 -0.00324086 0)
(0.99392 -0.00433065 0)
(0.994852 -0.0052359 0)
(0.995905 -0.00593375 0)
(0.997031 -0.00641553 0)
(0.998181 -0.00668311 0)
(0.999312 -0.00674945 0)
(1.00039 -0.00663492 0)
(1.00139 -0.00636384 0)
(1.0023 -0.00596157 0)
(1.00311 -0.00545251 0)
(1.00381 -0.00485884 0)
(1.0044 -0.00419984 0)
(1.00488 -0.00349173 0)
(1.00526 -0.0027478 0)
(1.00555 -0.0019788 0)
(1.00573 -0.0011934 0)
(1.00583 -0.000398783 0)
(1.00482 0.000338471 0)
(1.00474 0.00101192 0)
(1.00457 0.00167461 0)
(1.00432 0.00231864 0)
(1.00398 0.0029351 0)
(1.00355 0.00351372 0)
(1.00304 0.00404259 0)
(1.00244 0.00450805 0)
(1.00175 0.00489478 0)
(1.001 0.00518613 0)
(1.00018 0.00536476 0)
(0.999306 0.00541371 0)
(0.998408 0.00531788 0)
(0.997511 0.00506585 0)
(0.996644 0.00465188 0)
(0.995843 0.00407768 0)
(0.995145 0.00335333 0)
(0.994584 0.00249836 0)
(0.994191 0.00154199 0)
(0.993989 0.000521318 0)
(0.993989 -0.000521396 0)
(0.994191 -0.00154207 0)
(0.994584 -0.00249843 0)
(0.995145 -0.0033534 0)
(0.995844 -0.00407775 0)
(0.996644 -0.00465194 0)
(0.997511 -0.00506591 0)
(0.998409 -0.00531793 0)
(0.999306 -0.00541376 0)
(1.00018 -0.0053648 0)
(1.001 -0.00518617 0)
(1.00175 -0.00489482 0)
(1.00244 -0.00450808 0)
(1.00304 -0.00404261 0)
(1.00355 -0.00351374 0)
(1.00398 -0.00293512 0)
(1.00432 -0.00231865 0)
(1.00457 -0.00167462 0)
(1.00474 -0.00101192 0)
(1.00482 -0.000338472 0)
(1.00398 0.000284667 0)
(1.0039 0.000850357 0)
(1.00375 0.00140493 0)
(1.00353 0.00194048 0)
(1.00323 0.00244852 0)
(1.00287 0.00291967 0)
(1.00243 0.00334365 0)
(1.00192 0.00370925 0)
(1.00135 0.00400449 0)
(1.00072 0.00421698 0)
(1.00005 0.0043345 0)
(0.99935 0.00434579 0)
(0.998637 0.00424156 0)
(0.997932 0.0040157 0)
(0.99726 0.00366639 0)
(0.996646 0.00319716 0)
(0.996116 0.00261755 0)
(0.995693 0.00194339 0)
(0.995398 0.0011966 0)
(0.995247 0.000404056 -5.18876e-33)
(0.995247 -0.000404124 5.18876e-33)
(0.995398 -0.00119667 0)
(0.995693 -0.00194346 0)
(0.996116 -0.00261761 0)
(0.996646 -0.00319722 0)
(0.99726 -0.00366644 0)
(0.997932 -0.00401575 0)
(0.998637 -0.00424161 0)
(0.99935 -0.00434583 0)
(1.00005 -0.00433454 0)
(1.00072 -0.00421701 0)
(1.00135 -0.00400452 0)
(1.00192 -0.00370928 0)
(1.00243 -0.00334367 0)
(1.00287 -0.00291969 0)
(1.00323 -0.00244853 0)
(1.00353 -0.0019405 0)
(1.00375 -0.00140494 0)
(1.0039 -0.000850363 0)
(1.00398 -0.000284669 0)
(1.00327 0.000237641 0)
(1.0032 0.000709386 0)
(1.00307 0.0011704 0)
(1.00288 0.00161325 0)
(1.00263 0.00203015 0)
(1.00231 0.00241288 0)
(1.00194 0.00275272 0)
(1.00151 0.0030406 0)
(1.00104 0.00326725 0)
(1.00053 0.00342349 0)
(0.99998 0.00350072 0)
(0.999417 0.0034915 0)
(0.998849 0.00339021 0)
(0.998294 0.00319383 0)
(0.99777 0.00290264 0)
(0.997294 0.00252076 0)
(0.996887 0.00205657 0)
(0.996564 0.00152272 0)
(0.99634 0.000935821 0)
(0.996226 0.000315693 0)
(0.996226 -0.000315753 0)
(0.99634 -0.000935881 0)
(0.996564 -0.00152278 0)
(0.996887 -0.00205663 0)
(0.997294 -0.00252081 0)
(0.99777 -0.00290269 0)
(0.998294 -0.00319388 0)
(0.998849 -0.00339026 0)
(0.999417 -0.00349154 0)
(0.99998 -0.00350076 0)
(1.00053 -0.00342352 0)
(1.00104 -0.00326728 0)
(1.00151 -0.00304063 0)
(1.00194 -0.00275274 0)
(1.00231 -0.00241289 0)
(1.00263 -0.00203017 0)
(1.00288 -0.00161326 0)
(1.00307 -0.00117041 0)
(1.0032 -0.000709391 0)
(1.00327 -0.000237642 0)
(1.00267 0.000197184 0)
(1.00262 0.000588277 0)
(1.00251 0.00096947 0)
(1.00235 0.00133402 0)
(1.00213 0.00167502 0)
(1.00187 0.0019854 0)
(1.00155 0.0022579 0)
(1.0012 0.00248524 0)
(1.00081 0.00266024 0)
(1.00039 0.00277613 0)
(0.999945 0.00282685 0)
(0.999491 0.00280748 0)
(0.999039 0.00271471 0)
(0.9986 0.00254732 0)
(0.998188 0.00230657 0)
(0.997817 0.00199656 0)
(0.997501 0.00162441 0)
(0.997252 0.00120014 0)
(0.99708 0.000736475 0)
(0.996993 0.000248255 0)
(0.996993 -0.000248308 0)
(0.99708 -0.000736528 0)
(0.997252 -0.00120019 0)
(0.997501 -0.00162446 0)
(0.997817 -0.00199661 0)
(0.998188 -0.00230661 0)
(0.9986 -0.00254736 0)
(0.999039 -0.00271475 0)
(0.999491 -0.00280752 0)
(0.999945 -0.00282688 0)
(1.00039 -0.00277616 0)
(1.00081 -0.00266027 0)
(1.0012 -0.00248526 0)
(1.00155 -0.00225792 0)
(1.00187 -0.00198542 0)
(1.00213 -0.00167504 0)
(1.00235 -0.00133403 0)
(1.00251 -0.000969478 0)
(1.00262 -0.000588281 0)
(1.00267 -0.000197185 0)
(1.00218 0.000162809 0)
(1.00214 0.00048549 0)
(1.00205 0.000799317 0)
(1.00191 0.00109833 0)
(1.00173 0.00137655 0)
(1.00151 0.00162797 0)
(1.00125 0.00184662 0)
(1.00095 0.00202667 0)
(1.00063 0.00216258 0)
(1.00029 0.00224931 0)
(0.99993 0.0022826 0)
(0.999565 0.0022592 0)
(0.999203 0.00217723 0)
(0.998854 0.00203646 0)
(0.998529 0.00183856 0)
(0.998239 0.00158731 0)
(0.997992 0.00128859 0)
(0.997799 0.000950401 0)
(0.997665 0.000582534 0)
(0.997597 0.000196244 0)
(0.997597 -0.000196292 0)
(0.997665 -0.000582581 0)
(0.997799 -0.000950447 0)
(0.997992 -0.00128864 0)
(0.998239 -0.00158735 0)
(0.998529 -0.0018386 0)
(0.998854 -0.0020365 0)
(0.999203 -0.00217727 0)
(0.999565 -0.00225923 0)
(0.99993 -0.00228263 0)
(1.00029 -0.00224934 0)
(1.00063 -0.0021626 0)
(1.00095 -0.00202669 0)
(1.00125 -0.00184664 0)
(1.00151 -0.00162799 0)
(1.00173 -0.00137657 0)
(1.00191 -0.00109834 0)
(1.00205 -0.000799324 0)
(1.00214 -0.000485495 0)
(1.00218 -0.000162811 0)
(1.00178 0.000133888 0)
(1.00174 0.000399091 0)
(1.00166 0.00065655 0)
(1.00155 0.000901109 0)
(1.0014 0.00112766 0)
(1.00121 0.00133117 0)
(1.001 0.00150674 0)
(1.00076 0.00164973 0)
(1.0005 0.00175585 0)
(1.00022 0.00182136 0)
(0.999926 0.0018432 0)
(0.999633 0.00181924 0)
(0.999343 0.00174849 0)
(0.999065 0.00163124 0)
(0.998808 0.00146924 0)
(0.998579 0.0012658 0)
(0.998385 0.00102579 0)
(0.998233 0.000755535 0)
(0.998129 0.000462659 0)
(0.998076 0.000155785 0)
(0.998076 -0.000155827 0)
(0.998129 -0.000462701 0)
(0.998233 -0.000755576 0)
(0.998385 -0.00102583 0)
(0.998579 -0.00126584 0)
(0.998808 -0.00146928 0)
(0.999065 -0.00163127 0)
(0.999343 -0.00174852 0)
(0.999633 -0.00181927 0)
(0.999926 -0.00184322 0)
(1.00022 -0.00182138 0)
(1.0005 -0.00175588 0)
(1.00076 -0.00164975 0)
(1.001 -0.00150676 0)
(1.00121 -0.00133118 0)