/*--------------------------------*- C++ -*----------------------------------*\
| =========                 |                                                 |
| \\      /  F ield         | OpenFOAM: The Open Source CFD Toolbox           |
|  \\    /   O peration     | Version:  5.0                                   |
|   \\  /    A nd           | Web:      www.OpenFOAM.org                      |
|    \\/     M anipulation  |                                                 |
\*---------------------------------------------------------------------------*/
FoamFile
{
    version     2.0;
    format      ascii;
    class       volVectorField;
    location    "0";
    object      Ulift0;
}
// * * * * * * * * * * * * * * * * * * * * * * * * * * * * * * * * * * * * * //

dimensions      [0 1 -1 0 0 0 0];

internalField   nonuniform List<vector> 
38465
(
(1.000052284 -5.322038957e-05 0)
(1.000038183 -0.0001453555466 0)
(1.000032204 -0.0002170702957 0)
(1.000030486 -0.0002809662021 0)
(1.000028632 -0.0003412441842 0)
(1.000026342 -0.0003973217454 0)
(1.000024301 -0.0004490037685 -1.323520792e-23)
(1.000022131 -0.0004964083798 1.323517895e-23)
(1.00001968 -0.0005391117507 0)
(1.000016782 -0.0005763677768 0)
(1.000013131 -0.0006069459991 0)
(1.000009781 -0.0006303781391 1.32350152e-23)
(1.000005249 -0.0006457567212 0)
(1.000000591 -0.0006517362839 0)
(0.9999955311 -0.0006477686645 0)
(0.9999896502 -0.0006325946446 0)
(0.9999842623 -0.000605871848 0)
(0.9999807339 -0.0005700025105 0)
(0.9999739748 -0.0005235746527 0)
(0.9999688742 -0.0004649755543 0)
(0.999964107 -0.0003962428021 -6.617206773e-24)
(0.9999595434 -0.0003179255555 0)
(0.9999566883 -0.0002319842739 0)
(0.9999548678 -0.0001412373831 -3.308573085e-24)
(0.9999533225 -4.703116981e-05 -1.654284e-24)
(1.00012439 -2.018145789e-05 -1.925382485e-29)
(1.000104782 -6.933641192e-05 6.206725714e-29)
(1.000094404 -0.0001288942437 0)
(1.000089654 -0.0001887531592 -2.647214073e-23)
(1.000084359 -0.0002456848132 2.647199853e-23)
(1.000078757 -0.0002999838953 -2.647184909e-23)
(1.000072995 -0.0003515489198 -3.970754837e-23)
(1.000066632 -0.0003993555274 3.970729442e-23)
(1.000059432 -0.000442769602 0)
(1.000051035 -0.0004812012956 0)
(1.000040973 -0.0005141683757 -2.647084436e-23)
(1.000030457 -0.0005404195417 1.323528928e-23)
(1.000017724 -0.0005590247367 0)
(1.000004056 -0.0005694268359 2.646986822e-23)
(0.9999892337 -0.0005705594286 0)
(0.9999729035 -0.0005621914511 2.646904588e-23)
(0.9999569517 -0.0005438273026 0)
(0.9999431057 -0.0005131928543 0)
(0.9999254308 -0.0004713243654 -2.646779541e-23)
(0.999910102 -0.0004199157102 2.64673919e-23)
(0.9998959903 -0.0003585338415 -6.616756061e-24)
(0.9998833056 -0.0002887895937 0)
(0.9998741957 -0.000211892931 0)
(0.9998680854 -0.0001289605903 -9.924871363e-24)
(0.9998642055 -4.267271925e-05 -1.654141313e-24)
(1.000169219 -2.542075649e-05 -6.73755775e-28)
(1.000160758 -7.886590945e-05 3.482532075e-31)
(1.000153165 -0.000136135758 -5.294774077e-23)
(1.000147501 -0.000195058833 -2.647367216e-23)
(1.00013851 -0.000252261548 2.647425812e-23)
(1.000131394 -0.0003068313406 -2.647324224e-23)
(1.000122325 -0.0003592610796 -2.647354264e-23)
(1.000112002 -0.0004080780208 2.647210439e-23)
(1.000100381 -0.0004527722856 0)
(1.00008695 -0.0004928278963 -5.29440854e-23)
(1.000071206 -0.0005274305563 -2.647164432e-23)
(1.000053319 -0.0005554337291 0)
(1.000033025 -0.00057583522 1.005526611e-27)
(1.000010613 -0.0005877731032 2.647106668e-23)
(0.9999862855 -0.0005903103221 0)
(0.9999602885 -0.0005827191207 2.646871159e-23)
(0.9999336137 -0.0005642337088 0)
(0.9999069963 -0.0005339345821 0)
(0.9998797773 -0.0004919797318 -2.646658668e-23)
(0.9998539918 -0.0004390359842 5.293180508e-23)
(0.9998303961 -0.0003755936086 0)
(0.9998099749 -0.0003028308644 0)
(0.9997939736 -0.0002221905291 -1.323216127e-23)
(0.9997829239 -0.0001354293711 -1.335498347e-31)
(0.9997770958 -4.494437707e-05 0)
(1.00022162 -2.787882947e-05 -5.303055679e-23)
(1.000216402 -8.436883278e-05 5.294929332e-23)
(1.000210123 -0.0001417022214 -5.28789917e-23)
(1.000208605 -0.0002029890703 -5.287867929e-23)
(1.000190871 -0.0002613359462 5.301832012e-23)
(1.000185936 -0.0003156904053 5.294929904e-23)
(1.000172894 -0.0003703900802 0)
(1.00015868 -0.0004207334798 -1.306885071e-27)
(1.000143094 -0.000467232092 -5.294680693e-23)
(1.000125089 -0.000509685144 -5.294399729e-23)
(1.000103521 -0.0005470015298 0)
(1.000078516 -0.0005777220884 0)
(1.000050349 -0.0006007412565 0)
(1.000019053 -0.0006150990345 0)
(0.9999849121 -0.0006197323022 0)
(0.9999483569 -0.0006136403078 -5.293671696e-23)
(0.9999102324 -0.0005959010579 0)
(0.9998714584 -0.000565780599 0)
(0.9998327839 -0.0005231024951 -5.293155785e-23)
(0.9997957774 -0.0004681472529 2.646352967e-23)
(0.9997618048 -0.0004015195143 0)
(0.999732427 -0.0003243629869 0)
(0.999709048 -0.0002383075878 -1.323103722e-23)
(0.9996927891 -0.000145441172 6.615396211e-24)
(0.9996844203 -4.834260441e-05 -5.3299654e-30)
(1.000278695 -2.91344767e-05 -5.295425113e-23)
(1.000274534 -8.794208924e-05 5.295402371e-23)
(1.00026619 -0.0001454221926 -1.512489782e-24)
(1.000277312 -0.000210355462 -5.813577842e-23)
(1.000239024 -0.0002708463469 4.929501577e-23)
(1.000245653 -0.0003263760915 -5.295232371e-23)
(1.000224698 -0.0003851253033 0)
(1.000207077 -0.0004368359851 0)
(1.000188218 -0.0004856367964 -5.312425099e-23)
(1.000166569 -0.0005314568133 1.057263883e-22)
(1.000139211 -0.0005728061588 0)
(1.00010683 -0.000607355471 0)
(1.000070682 -0.0006339451213 0)
(1.00003025 -0.0006517151435 0)
(0.9999858668 -0.0006593962819 0)
(0.9999379418 -0.0006556852689 -5.293616225e-23)
(0.9998875112 -0.0006393747777 0)
(0.9998358162 -0.0006095974891 -5.293074134e-23)
(0.9997842587 -0.0005659244494 -3.446768102e-29)
(0.999734634 -0.0005083718731 5.29254269e-23)
(0.999688883 -0.0004374636647 0)
(0.9996491544 -0.0003543694294 0)
(0.9996173512 -0.0002608980315 -2.645964074e-23)
(0.9995951482 -0.0001594835433 1.322952991e-23)
(0.9995837472 -5.308721389e-05 5.360173877e-33)
(1.000340503 -3.121474514e-05 2.118272343e-22)
(1.00033668 -9.395902738e-05 -3.694237743e-24)
(1.000327346 -0.0001581161982 4.199422004e-22)
(1.000339475 -0.0002159491148 0)
(1.000294644 -0.0002726676056 1.597199508e-23)
(1.00030823 -0.0003372425767 3.336155773e-22)
(1.00028299 -0.0004012313156 0)
(1.000255481 -0.0004579067262 -5.092214936e-24)
(1.000236568 -0.0005074545875 -4.553473662e-25)
(1.000212784 -0.0005576753048 2.163966991e-22)
(1.000179837 -0.0006044784204 0)
(1.00013935 -0.0006442534053 2.157655956e-25)
(1.000095183 -0.0006756259984 2.124313641e-25)
(1.000045257 -0.0006980031778 0)
(0.9999902696 -0.0007099560007 -1.058775696e-22)
(0.999929939 -0.0007097763877 0)
(0.9998660257 -0.0006956960488 1.058657035e-22)
(0.9998000766 -0.0006666692441 5.29298915e-23)
(0.9997339303 -0.0006219836346 -5.292526466e-23)
(0.9996697797 -0.0005613210814 5.292198978e-23)
(0.9996102829 -0.0004850218723 0)
(0.9995583163 -0.0003942547707 5.29161197e-23)
(0.9995165187 -0.0002910504319 -4.239941167e-30)
(0.9994872366 -0.0001782691966 1.322806343e-23)
(0.9994721741 -5.9441446e-05 -1.322791732e-23)
(1.000407899 -3.386885706e-05 2.118415028e-22)
(1.000398775 -9.724851681e-05 8.472623295e-22)
(1.000396078 -0.0001616052655 -4.226700541e-22)
(1.00038948 -0.0002208157454 -3.76508614e-25)
(1.000365818 -0.0002824800224 -1.274938467e-24)
(1.000363963 -0.0003446140166 4.236330169e-22)
(1.00035591 -0.000410449005 2.015403696e-23)
(1.000310188 -0.0004832755908 2.54349352e-22)
(1.000285609 -0.0005385331654 2.238857265e-23)
(1.000263451 -0.000588872277 1.059063865e-22)
(1.000226846 -0.0006404528703 0)
(1.000178167 -0.000687172635 0)
(1.000125644 -0.0007256138557 -1.232433854e-24)
(1.000065468 -0.0007543193056 -1.071115218e-22)
(0.9999998044 -0.0007722454433 1.477540809e-26)
(0.9999254508 -0.0007771838245 1.469369168e-26)
(0.9998464788 -0.0007663306647 2.117233446e-22)
(0.9997646003 -0.0007387103581 -1.124383491e-27)
(0.9996817168 -0.0006932829683 -1.058450866e-22)
(0.9996004918 -0.0006291810527 -1.093872178e-27)
(0.9995245682 -0.0005463751685 -5.291521905e-23)
(0.9994577853 -0.0004459954349 5.291079455e-23)
(0.9994037791 -0.0003303345481 2.645398193e-23)
(0.9993657988 -0.0002028119407 -4.32659328e-29)
(0.9993462021 -6.775361774e-05 -1.983937002e-23)
(1.000479884 -3.571331223e-05 -4.236770387e-22)
(1.000453741 -9.633901193e-05 1.694579083e-21)
(1.000469849 -0.000158851087 -8.485983258e-22)
(1.000443816 -0.0002258788914 -1.289144426e-24)
(1.00044298 -0.0002937153261 0)
(1.000418428 -0.0003612696012 8.472354155e-22)
(1.000428863 -0.0004214729607 -4.227212337e-24)
(1.000383563 -0.0004942046185 2.076413161e-22)
(1.000344587 -0.0005722162519 -1.695025594e-23)
(1.000314501 -0.0006323223886 2.708271716e-24)
(1.000279561 -0.0006849782038 1.956181002e-23)
(1.000223382 -0.000736118873 2.118002369e-22)
(1.000164504 -0.000781349939 -1.752039804e-23)
(1.000093632 -0.0008190704338 -3.351499527e-22)
(1.000017851 -0.0008466809209 1.058802659e-22)
(0.9999260793 -0.0008596571053 1.154624047e-25)
(0.9998296848 -0.0008532874815 1.163303353e-25)
(0.9997300988 -0.0008279075513 -1.907157707e-28)
(0.9996278982 -0.0007824402822 1.058377452e-22)
(0.9995262069 -0.0007148980727 1.058284547e-22)
(0.9994301919 -0.0006245027692 -5.290817271e-23)
(0.999345077 -0.0005122969725 -5.290432807e-23)
(0.9992758062 -0.0003809366863 3.336503242e-28)
(0.9992268519 -0.0002345388126 2.644930245e-23)
(0.9992015053 -7.852898371e-05 -6.612160708e-24)
(1.000548429 -3.131376818e-05 -4.23706092e-22)
(1.000511793 -9.444051023e-05 1.271017457e-21)
(1.000543486 -0.0001615901203 1.349433275e-23)
(1.000499451 -0.0002213316082 1.344313636e-23)
(1.000533129 -0.0002980635656 8.472278527e-22)
(1.000475964 -0.0003758738021 8.442411213e-22)
(1.000498563 -0.0004414812056 -3.015077957e-24)
(1.00045976 -0.0005118488934 0)
(1.000429362 -0.000594043629 -8.472563305e-22)
(1.0003741 -0.0006794517653 0)
(1.000334856 -0.0007418990254 0)
(1.000275196 -0.0007968211073 2.335253139e-22)
(1.000211443 -0.0008490461983 -1.90127493e-22)
(1.000129599 -0.0008919256234 -1.600088218e-22)
(1.00004942 -0.0009294588849 5.170547002e-23)
(0.9999369447 -0.0009563490563 -2.117404033e-22)
(0.9998171011 -0.0009589585691 -1.058588668e-22)
(0.9996976182 -0.0009371909976 2.116923967e-22)
(0.9995734429 -0.0008929225159 1.058359315e-22)
(0.9994465571 -0.0008224962349 2.577027421e-27)
(0.9993254772 -0.0007234532858 0)
(0.9992172807 -0.0005968993718 -5.289799749e-23)
(0.9991285237 -0.0004458928719 -3.847319814e-28)
(0.9990654038 -0.00027544652 -3.570762428e-28)
(0.9990325976 -9.245271639e-05 -4.221231351e-29)
(1.000613342 -3.241537168e-05 -5.297197694e-23)
(1.000588438 -0.0001069296398 4.237304649e-22)
(1.000609063 -0.0001779744426 -5.719826495e-24)
(1.000555344 -0.0002346375679 -5.695519853e-24)
(1.000629757 -0.0003091902182 -8.246560179e-22)
(1.000522481 -0.0003696216241 -8.051847605e-22)
(1.000601406 -0.0004533934914 8.668321348e-22)
(1.000512859 -0.0005356488167 -8.434621025e-22)
(1.000545406 -0.0006201325661 -1.690916114e-21)
(1.000447394 -0.0007229847907 -3.784804373e-24)
(1.000398634 -0.0007985899805 -2.155919287e-22)
(1.000335966 -0.0008676700672 0)
(1.000267008 -0.000930343801 -1.937310501e-22)
(1.000173091 -0.0009829438027 2.298182461e-22)
(1.000089283 -0.001025199492 0)
(0.999965668 -0.001062020852 -6.536844138e-22)
(0.9998150654 -0.001081431949 -1.414649326e-23)
(0.999669659 -0.001069500714 3.209740152e-22)
(0.9995208047 -0.001029466289 -8.584871672e-25)
(0.999361383 -0.0009576337573 -1.058059062e-22)
(0.9992085071 -0.000848792808 4.134566728e-27)
(0.999070966 -0.0007048915562 -1.057802876e-22)
(0.9989568633 -0.0005294381641 0)
(0.9988750616 -0.0003283415525 -2.643998399e-23)
(0.9988323493 -0.0001105158042 0)
(1.000682537 -3.536458546e-05 -5.297563989e-23)
(1.00067279 -0.0001107235443 0)
(1.000675073 -0.0001856454384 0)
(1.000635638 -0.00026867866 2.118866104e-22)
(1.000697718 -0.0003375381407 -1.694371176e-21)
(1.000569804 -0.0003822205281 -8.471543705e-22)
(1.000720745 -0.0004676618616 2.54114516e-21)
(1.000541275 -0.0005242909057 -7.955401228e-22)
(1.000725392 -0.0006503738918 -7.959356978e-22)
(1.000506328 -0.0007790431524 8.472151756e-22)
(1.000484842 -0.0008473424596 -2.118575473e-22)
(1.000411096 -0.0009402836691 -2.118403297e-22)
(1.000331631 -0.00101690047 2.118243208e-22)
(1.000235976 -0.00108963489 2.257953495e-22)
(1.00013261 -0.001150033327 -8.552345126e-24)
(1.000005784 -0.001190054168 -8.694395134e-22)
(0.9998318284 -0.001218585035 0)
(0.9996541078 -0.001223450491 1.94925839e-22)
(0.9994773307 -0.001197003875 -1.677517424e-23)
(0.9992712553 -0.00112835611 -2.116011044e-22)
(0.9990768126 -0.001008375488 -1.057903557e-22)
(0.998902095 -0.0008433652413 -1.057701472e-22)
(0.9987544483 -0.0006375510132 0)
(0.9986474537 -0.0003972479266 -5.28678884e-23)
(0.9985912961 -0.0001341291278 2.643248792e-23)
(1.000756804 -3.728616108e-05 0)
(1.000753207 -0.0001131645486 3.329724527e-24)
(1.000750184 -0.0001900698288 1.64742449e-26)
(1.000733293 -0.0002746347336 2.119072799e-22)
(1.000750592 -0.0003508894404 -1.175370771e-24)
(1.000663502 -0.0004417019771 -4.134770605e-22)
(1.000778349 -0.0005036981918 1.705328781e-21)
(1.000559161 -0.0005064011407 -1.693769476e-21)
(1.001000069 -0.0006887770627 1.761888928e-21)
(1.000518657 -0.0008228762236 -7.778907462e-22)
(1.000602416 -0.0008831573131 1.694299422e-21)
(1.000514563 -0.001008533094 -2.16583804e-22)
(1.000404121 -0.001107970836 2.071605963e-22)
(1.000328581 -0.001199887466 0)
(1.00019569 -0.001293064044 2.117933211e-22)
(1.000051524 -0.001355552499 -3.722389042e-22)
(0.9998656571 -0.001394121184 5.118971179e-23)
(0.9996534215 -0.001406364974 4.233417273e-22)
(0.9994559839 -0.001395184646 2.322943954e-23)
(0.9991843116 -0.00134027202 -3.961259541e-22)
(0.9989278791 -0.001213224562 1.096163029e-22)
(0.9987058977 -0.001022718845 4.407745587e-26)
(0.9985130265 -0.0007789986148 0)
(0.9983713426 -0.0004880261804 -5.28532652e-23)
(0.998296605 -0.0001653724418 2.642468715e-23)
(1.000834181 -3.835647799e-05 1.660200683e-24)
(1.000832574 -0.0001157132961 3.314912763e-24)
(1.000830039 -0.0001944792025 0)
(1.000824005 -0.0002764923405 0)
(1.000822625 -0.0003587040336 2.649154197e-23)
(1.000786614 -0.0004558253016 -3.171875346e-22)
(1.000804712 -0.0005368799401 -4.198598625e-22)
(1.000630996 -0.0006156565001 -1.690596806e-21)
(1.001199474 -0.0007175715368 1.6934176e-21)
(1.000560777 -0.000779421384 -3.310851327e-21)
(1.000739478 -0.0009068181179 1.83292432e-21)
(1.000661122 -0.001057397513 4.5033746e-23)
(1.000485873 -0.001181253483 -1.726397719e-23)
(1.000470884 -0.001314332313 -3.980106868e-24)
(1.000285501 -0.00145163253 1.256010103e-25)
(1.000116466 -0.001539587238 4.007465965e-24)
(0.9999174104 -0.00160712894 0)
(0.9996657434 -0.001639574678 4.233459408e-22)
(0.9994495134 -0.001635350122 0)
(0.999119679 -0.001591520061 -1.96444127e-22)
(0.9987672846 -0.001472199882 2.267097251e-22)
(0.9984772334 -0.00125810634 1.196175191e-26)
(0.9982215535 -0.0009668119792 5.043215766e-27)
(0.9980312133 -0.0006093052066 4.907741806e-28)
(0.9979305251 -0.0002072201479 2.641499379e-23)
(1.000913155 -3.88136105e-05 -1.660325823e-24)
(1.000912787 -0.0001170223707 -1.64251786e-24)
(1.00091209 -0.000196859248 3.326399249e-24)
(1.000910401 -0.0002795094591 0)
(1.000908284 -0.0003654710485 2.631077899e-23)
(1.000896849 -0.0004594074274 1.058006386e-22)
(1.000882612 -0.0005609156817 -5.298428816e-22)
(1.000782168 -0.0006995896813 -1.198722933e-24)
(1.001192324 -0.0007422647247 -1.710002662e-21)
(1.000712881 -0.0007870980855 -1.707264379e-21)
(1.000869438 -0.0009458982363 -7.130903406e-23)
(1.000817555 -0.001073332967 -1.691325985e-21)
(1.00057716 -0.001183455097 1.298219569e-22)
(1.000743931 -0.001417420435 3.994665223e-23)
(1.000383841 -0.001646672013 -2.282602849e-22)
(1.000204368 -0.001741199858 3.614699009e-24)
(1.000002688 -0.001840876663 3.571608918e-24)
(0.9997117688 -0.00192641834 -4.233710421e-22)
(0.9994375812 -0.001944485255 0)
(0.9990808611 -0.001904015251 0)
(0.9986147763 -0.001797533996 0)
(0.9982138939 -0.001570224339 -2.113759001e-22)
(0.997864736 -0.001220800798 -9.850150589e-27)
(0.9976048964 -0.0007739093316 -3.937234273e-27)
(0.9974682109 -0.0002640488482 2.640275559e-23)
(1.000992493 -3.868094579e-05 -3.31604839e-24)
(1.000993336 -0.0001166646295 -1.675798486e-24)
(1.00099497 -0.0001965044658 3.297343827e-24)
(1.000997016 -0.0002794878758 0)
(1.000999106 -0.0003669653849 1.482911846e-24)
(1.0009988 -0.0004614489232 -3.790944619e-25)
(1.000992901 -0.0005673078482 -5.319619152e-23)
(1.000954636 -0.0007038986443 0)
(1.001133004 -0.0007714190929 -1.691247389e-21)
(1.000921288 -0.0008580107081 -1.076354579e-23)
(1.000999038 -0.001023691274 -1.404356165e-23)
(1.00093974 -0.001130843693 -1.69350231e-21)
(1.000664909 -0.001200155316 8.98167759e-23)
(1.001184208 -0.001514790846 3.475445668e-21)
(1.000509454 -0.001826835312 -1.309540771e-23)
(1.000307595 -0.001956549531 -1.298259766e-23)
(1.000142519 -0.002096394196 4.267913337e-22)
(0.9998221755 -0.002253772289 -4.202478689e-22)
(0.9994485852 -0.002340654311 0)
(0.9990488505 -0.002325237713 0)
(0.9984896313 -0.002219350118 -8.4564741e-22)
(0.9979278154 -0.001986804158 -2.113148925e-22)
(0.9974226992 -0.001572828712 2.114452894e-22)
(0.99705831 -0.001002241483 2.964756479e-25)
(0.9968745801 -0.000342045577 -5.277406873e-23)
(1.001070923 -3.790150735e-05 0)
(1.001073084 -0.0001143800257 -1.518988376e-26)
(1.001077355 -0.0001928953663 -6.086487859e-26)
(1.001083499 -0.0002748746776 1.67602751e-24)
(1.001091189 -0.0003618764183 3.371015034e-24)
(1.001099587 -0.0004558964868 2.03453187e-25)
(1.00110696 -0.0005600839506 5.981528778e-23)
(1.001105797 -0.0006827913086 0)
(1.001159439 -0.0007881654474 1.056055406e-24)
(1.00110514 -0.0009005896639 -8.505989423e-22)
(1.001143433 -0.001047902781 -1.684520695e-21)
(1.001055927 -0.001183619524 1.403067418e-23)
(1.000781869 -0.001310811719 -1.693010098e-21)
(1.001585078 -0.001559751877 3.387460508e-21)
(1.000764592 -0.001865406901 1.674031873e-21)
(1.000447529 -0.002125407306 -1.881833835e-23)
(1.000378426 -0.002359990893 4.195397977e-22)
(1.000015581 -0.002625680263 -3.999453526e-24)
(0.9995431867 -0.002813898949 0)
(0.9990377834 -0.002879268899 4.836552901e-22)
(0.9983835983 -0.002794776301 -7.848522171e-22)
(0.9976455169 -0.002547798262 -5.803266863e-23)
(0.996886695 -0.002064740837 1.474126564e-22)
(0.9963368593 -0.001326214321 -5.189026052e-24)
(0.9961004108 -0.0004497497267 -1.087827955e-29)
(1.001147065 -3.642091256e-05 0)
(1.001150634 -0.0001099736059 1.670744583e-24)
(1.001157765 -0.0001856803176 -1.643800592e-24)
(1.001168313 -0.0002650511015 1.656294022e-24)
(1.001182127 -0.0003497225953 1.65631687e-24)
(1.001198857 -0.0004415464708 0)
(1.001217868 -0.0005427941657 8.281879096e-24)
(1.001237061 -0.0006569046967 2.776623229e-25)
(1.001262631 -0.0007805430563 -1.057476881e-22)
(1.001260954 -0.0009182308463 -8.478591991e-22)
(1.001293322 -0.001062977499 -1.699251925e-21)
(1.001238493 -0.001240185269 -4.097477498e-24)
(1.001032135 -0.001508434799 -1.693416197e-21)
(1.001770834 -0.001713968661 -7.985443739e-23)
(1.001154729 -0.001916919872 1.614272491e-21)
(1.000647664 -0.002215205172 0)
(1.000802558 -0.002602787581 -1.741282418e-21)
(1.00032577 -0.003054726887 8.008523646e-22)
(0.9997404995 -0.003358087164 4.377658385e-24)
(0.9991353848 -0.003561649952 4.445878211e-22)
(0.9983066023 -0.003597832055 -4.669563863e-23)
(0.9973561276 -0.003354408241 -1.377272942e-22)
(0.9962589746 -0.002766946788 -7.443505992e-23)
(0.995356402 -0.001783729103 2.107700542e-22)
(0.9950836235 -0.0005941081463 -5.267917862e-23)
(1.00121944 -3.420088005e-05 0)
(1.001224467 -0.0001033246596 1.669387623e-24)
(1.001234569 -0.0001746410898 -1.685738738e-24)
(1.001249697 -0.0002496999815 -3.647539025e-26)
(1.001269872 -0.0003301817962 7.031545717e-26)
(1.001294982 -0.0004179618548 -1.120470315e-25)
(1.001324842 -0.0005151658433 1.489120536e-24)
(1.001358579 -0.00062441368 1.401420531e-24)
(1.001394584 -0.0007486643843 -1.062682924e-22)
(1.001421144 -0.0008958581854 1.060289257e-22)
(1.001453651 -0.001060984126 0)
(1.001464041 -0.001251682563 -8.524387834e-22)
(1.001404746 -0.001549950917 -1.69907669e-21)
(1.001856118 -0.001806083162 0)
(1.001569904 -0.002039768625 -1.907332855e-21)
(1.000924451 -0.002339061058 -2.151849489e-21)
(1.001397833 -0.00283519257 -5.126933275e-21)
(1.000863128 -0.003456969376 1.044428553e-21)
(1.000050219 -0.003961799622 1.594535158e-23)
(0.9994626263 -0.004366137174 2.63243851e-23)
(0.9983628195 -0.004658145882 1.04695876e-23)
(0.9970571203 -0.004536057723 -8.443210016e-22)
(0.9955065591 -0.003850053476 0)
(0.9939361515 -0.002425661187 2.104685973e-22)
(0.9937787197 -0.0007568003866 -2.104403183e-22)
(1.001286511 -3.122717176e-05 3.30966533e-24)
(1.001292998 -9.439017842e-05 9.103881797e-27)
(1.001306067 -0.0001596996226 2.716078681e-26)
(1.001325793 -0.0002286849683 1.672036516e-24)
(1.00135238 -0.0003030362473 -1.72172918e-24)
(1.001385966 -0.0003846751084 1.005773139e-25)
(1.001426695 -0.0004758445832 1.517440581e-25)
(1.001474392 -0.0005793054129 3.313600741e-24)
(1.001528086 -0.0006988325863 2.738339218e-25)
(1.001583803 -0.0008412608835 1.069332782e-22)
(1.00163854 -0.001015247539 5.915426601e-25)
(1.001691038 -0.001223065665 -4.239124565e-22)
(1.001756257 -0.001479731175 -1.695276714e-21)
(1.002031253 -0.001742567096 -1.801303843e-23)
(1.001982435 -0.002058653789 -1.767712589e-21)
(1.001416861 -0.002548408711 -1.748379187e-21)
(1.00192956 -0.003080671557 -3.387574542e-21)
(1.001672591 -0.003719027269 0)
(1.000588068 -0.004451259219 0)
(1.00021404 -0.005280528558 0)
(0.9987370901 -0.006024302372 1.44304408e-23)
(0.9969378811 -0.00627971721 -8.30013456e-22)
(0.9946535484 -0.005716993464 0)
(0.9914600088 -0.003326545174 0)
(0.992297852 -0.0007961953971 -1.050632897e-22)
(1.001346748 -2.75183582e-05 3.313178454e-24)
(1.00135463 -8.321362025e-05 3.302982264e-24)
(1.001370536 -0.000140915501 -2.484463573e-26)
(1.001394703 -0.0002020638546 1.642137123e-24)
(1.001427508 -0.0002682835841 -1.712102321e-24)
(1.001469417 -0.0003414592528 1.82246626e-26)
(1.001520984 -0.0004238802394 2.358947699e-25)
(1.001582752 -0.0005184169172 2.024416502e-24)
(1.0016551 -0.000628953657 1.610691336e-24)
(1.0017377 -0.0007612567874 -2.276533715e-25)
(1.001829162 -0.0009243802221 0)
(1.001925392 -0.001131709124 3.173950119e-22)
(1.002044463 -0.001382500381 2.056616754e-24)
(1.002276485 -0.001638237375 1.699622017e-21)
(1.002425348 -0.00198258335 0)
(1.002167184 -0.002603156905 1.695892675e-21)
(1.002431682 -0.003289056476 1.696400432e-21)
(1.002609639 -0.004011094522 0)
(1.001531438 -0.004916664696 1.40476812e-21)
(1.001567465 -0.00627208405 -2.842135484e-22)
(0.9996950475 -0.007603813789 0)
(0.9974797399 -0.008658506358 -1.688689502e-21)
(0.9943656107 -0.009183168219 9.24875033e-22)
(0.9856724073 -0.004288465282 9.246522952e-22)
(0.9916619953 0.0001024978683 -1.049923999e-22)
(1.001398686 -2.312220584e-05 1.089496426e-27)
(1.001407832 -6.994428969e-05 3.31416022e-24)
(1.001426314 -0.0001185245933 -1.643290971e-24)
(1.001454532 -0.0001701434345 1.20640139e-26)
(1.001493052 -0.0002262585069 1.65683126e-24)
(1.001542701 -0.0002885935854 -1.656913393e-24)
(1.001604501 -0.0003592853726 1.583240375e-24)
(1.001679718 -0.000441064244 -2.415023598e-25)
(1.001769977 -0.000537563306 1.700379969e-24)
(1.001877009 -0.000653808786 1.926626023e-25)
(1.002002952 -0.0007970316612 0)
(1.002148699 -0.0009785999364 -1.061056732e-22)
(1.002316527 -0.001212883402 1.053194239e-22)
(1.002545886 -0.00148645478 1.696629205e-21)
(1.002848148 -0.001814402911 0)
(1.002965872 -0.002364545869 1.712663277e-21)
(1.003099199 -0.003103696419 1.71232105e-21)
(1.003637059 -0.00401666593 -1.698415896e-21)
(1.003046749 -0.005379777179 -7.846952753e-25)
(1.003488814 -0.007283122326 0)
(1.001380643 -0.009120369786 0)
(0.9991228398 -0.01102493747 -1.691357478e-21)
(0.9879827458 -0.005299134961 1.045797496e-21)
(0.9732247528 -0.005255452375 4.088345106e-22)
(0.9899634897 -0.004711913522 -2.088358677e-22)
(1.001440999 -1.812443986e-05 1.656745153e-24)
(1.001451205 -5.483556031e-05 3.416214115e-27)
(1.001471866 -9.295822882e-05 -7.053989491e-27)
(1.001503506 -0.0001335281971 -8.892250826e-27)
(1.001546905 -0.0001777314584 3.333161832e-24)
(1.001603197 -0.0002269981355 -1.638995081e-24)
(1.001673876 -0.0002831091541 1.599203711e-24)
(1.001760876 -0.0003483721597 -8.831152021e-25)
(1.001866824 -0.0004258387329 0)
(1.001994978 -0.0005196285733 -4.144154076e-25)
(1.00214977 -0.0006354403876 0)
(1.002336501 -0.0007814908465 -2.587110709e-25)
(1.002560648 -0.0009708240888 1.065113739e-22)
(1.002833711 -0.001220144756 1.316940426e-24)
(1.003208664 -0.001530169992 7.032747346e-25)
(1.003608964 -0.001957357497 -1.04192875e-23)
(1.003885126 -0.002599382005 8.549858594e-22)
(1.004789805 -0.003568014949 -3.366906525e-21)
(1.005078633 -0.00521021171 -1.636998581e-21)
(1.006208947 -0.007900439422 -1.660483085e-21)
(1.004740568 -0.01154157788 -1.699971175e-21)
(0.9926184354 -0.005047271891 5.392629343e-22)
(0.9748291508 -0.009361406072 3.612153727e-22)
(0.9919746023 -0.01623633071 2.54020169e-22)
(0.9866170359 -0.00407513752 -1.286051799e-23)
(1.001472567 -1.26442792e-05 1.65679738e-24)
(1.001483568 -3.825097565e-05 1.656815577e-24)
(1.001505873 -6.483402836e-05 1.441753048e-36)
(1.001540099 -9.311154663e-05 -1.656909098e-24)
(1.001587204 -0.0001239136125 3.299855327e-24)
(1.001648566 -0.0001582484118 4.142930811e-27)
(1.001726053 -0.0001973777246 1.631980598e-26)
(1.00182216 -0.0002429472245 -8.286878623e-25)
(1.001940227 -0.0002971170502 -6.217944869e-26)
(1.002084649 -0.0003627923141 3.557386295e-25)
(1.002261396 -0.0004439363089 0)
(1.002478358 -0.0005460631899 -2.009131914e-25)
(1.002745925 -0.0006773619156 1.471823444e-24)
(1.003078392 -0.0008505854703 0)
(1.003507626 -0.001077131763 0)
(1.004046207 -0.001375700157 -1.043925955e-24)
(1.004595451 -0.001849520153 8.495250247e-22)
(1.00576762 -0.002550726255 -1.689509922e-21)
(1.007053288 -0.003822702046 1.085238718e-23)
(1.009841157 -0.006676426818 -1.707964836e-21)
(1.001207198 -0.002909790134 -1.694571931e-21)
(0.9789678744 -0.009356615111 0)
(1.011672003 -0.02582192811 1.532890382e-21)
(0.9679642317 -0.01310148257 -1.718963231e-23)
(0.974993179 -0.01497326956 -1.974631927e-22)
(1.00149255 -6.830832084e-06 -1.845057135e-28)
(1.001504034 -2.064730826e-05 -1.037705002e-27)
(1.001527337 -3.493864335e-05 -1.656473756e-24)
(1.001563136 -5.005516589e-05 -3.312775809e-24)
(1.001612504 -6.640602934e-05 5.830504869e-34)
(1.001676975 -8.448856656e-05 -1.184956487e-26)
(1.001758654 -0.0001049326377 1.645961103e-24)
(1.001860371 -0.0001285481605 -1.657438942e-24)
(1.001985912 -0.000156399571 0)
(1.00214034 -0.0001898963172 8.289510574e-25)
(1.002330488 -0.000230903562 -8.29108342e-25)
(1.002565615 -0.0002819400667 0)
(1.002858399 -0.0003464605181 1.65909003e-24)
(1.003226619 -0.0004292160623 1.735698895e-25)
(1.003696617 -0.0005349704647 -6.479430744e-24)
(1.00429617 -0.000670702345 0)
(1.005027871 -0.0008731803343 6.825609057e-25)
(1.006183833 -0.001056165691 -2.347755305e-24)
(1.007676843 -0.0009803387544 -3.029782699e-24)
(1.009927217 0.0005484311343 1.310357402e-23)
(0.9863044651 -0.00636302039 2.053743082e-23)
(1.017618681 -0.01501279584 4.279439086e-22)
(0.988461778 -0.01507295517 0)
(0.9669513703 -0.02607219888 0)
(0.9720507336 -0.03931548 0)
(1.001500437 -8.560536086e-07 1.656793127e-24)
(1.001512059 -2.549083545e-06 -1.656910275e-24)
(1.001535645 -4.182113438e-06 -1.932785057e-28)
(1.001571895 -5.712226626e-06 -1.657733501e-24)
(1.001621914 -7.092581579e-06 -3.315444983e-24)
(1.001687287 -8.270156099e-06 2.071538448e-28)
(1.001770189 -9.180148633e-06 1.658264839e-24)
(1.001873544 -9.738357092e-06 -1.664661794e-24)
(1.002001255 -9.816479779e-06 -7.199934809e-27)
(1.002158529 -9.197427933e-06 1.653079904e-24)
(1.00235235 -7.507948068e-06 -8.282972048e-25)
(1.002592175 -4.081818542e-06 5.751586951e-27)
(1.002890994 2.183599469e-06 0)
(1.003266931 1.297774233e-05 -1.943254614e-26)
(1.003745147 3.068181591e-05 -5.0480361e-24)
(1.004357027 5.71541327e-05 6.769861332e-26)
(1.005138495 8.62953447e-05 -1.318414282e-23)
(1.006192311 0.0001304056222 1.310047483e-23)
(1.007539083 0.0001220221507 -2.157523237e-25)
(1.008974954 -0.0004718177292 3.309365973e-26)
(1.009724199 -0.002848447945 3.340900188e-24)
(1.015155422 -0.006642183777 -5.374300837e-23)
(1.038128903 -0.01375396118 -4.478210839e-22)
(1.031015444 -0.03934883221 -2.649428103e-25)
(1.004893329 -0.09306218279 0)
(1.054761002 0.001959548401 -7.366480399e-28)
(1.141874744 0.009072143945 0)
(1.14190287 -0.01082602162 5.270791559e-26)
(0.8602822217 -0.009345119733 5.691772581e-24)
(1.000169971 -0.08970867551 0)
(0.870931015 -0.008274688065 -1.0444211e-31)
(0.9477608324 -0.003478319714 1.25425454e-23)
(1.05471197 -0.004772607196 1.690116062e-24)
(1.131468588 -0.009404653087 -3.351432802e-25)
(1.002530508 -0.087311964 0)
(1.131454771 0.007652163113 9.67221183e-26)
(1.014971337 -0.192893659 1.047001003e-22)
(1.077515464 -0.09994498736 -3.304514991e-23)
(1.015481382 -0.2299708791 3.508029912e-24)
(0.9218564303 -0.09532933364 -2.397363392e-23)
(0.9709776954 -0.1949503774 0)
(1.067151512 -0.1039117368 5.345209609e-23)
(1.003678759 -0.1943275302 4.547490225e-23)
(0.9395446585 -0.09900822209 6.687637671e-24)
(1.20140553 0.02428422703 2.484510865e-25)
(1.151030379 -0.1046685626 -2.955295756e-23)
(1.201684148 -0.02590312916 2.484953714e-25)
(1.060875295 -0.1505119201 -5.288942632e-23)
(1.133462276 -0.1259868948 -4.861226027e-23)
(1.335471099 -0.2703458994 -5.91384331e-23)
(0.880428484 -0.2581934574 0)
(0.8657571515 -0.1235432804 8.780029575e-23)
(0.9398963126 -0.1480717794 -9.694767787e-23)
(0.8023114227 -0.01693424526 -1.327376081e-24)
(0.8469312515 -0.1032155881 -4.37386066e-23)
(0.989401085 -0.01823196928 4.446955657e-24)
(0.978073726 -0.03595299383 2.581095915e-23)
(0.9848308864 -0.0212212322 1.369144139e-23)
(0.9738776925 -0.03471697991 0)
(0.9527775053 -0.003042520144 6.304657005e-24)