/*--------------------------------*- C++ -*----------------------------------*\
| =========                 |                                                 |
| \\      /  F ield         | OpenFOAM: The Open Source CFD Toolbox           |
|  \\    /   O peration     | Version:  v2106                                 |
|   \\  /    A nd           | Website:  www.openfoam.com                      |
|    \\/     M anipulation  |                                                 |
\*---------------------------------------------------------------------------*/
FoamFile
{
    version     2.0;
    format      ascii;
    arch        "LSB;label=32;scalar=64";
    class       volVectorField;
    location    "149.985";
    object      U;
}
// * * * * * * * * * * * * * * * * * * * * * * * * * * * * * * * * * * * * * //

dimensions      [0 1 -1 0 0 0 0];

internalField   nonuniform List<vector> 
11644
(
(1.00001 -0.000169095 0)
(1 -0.000507715 0)
(1 -0.00085127 0)
(1 -0.00120641 0)
(1 -0.00157743 0)
(0.999992 -0.00196969 0)
(0.999982 -0.0023819 0)
(0.999966 -0.00280829 0)
(0.999954 -0.00325153 0)
(0.999957 -0.00363891 0)
(1.00001 -0.00399232 0)
(1.00011 -0.0039733 0)
(1.00031 -0.00443557 0)
(1.00102 -0.00280007 0)
(0.99988 -0.00507449 0)
(0.999702 -0.00454834 0)
(1.00002 -0.00445224 0)
(0.999938 -0.00374566 0)
(0.999871 -0.00324662 0)
(0.999937 -0.00231566 1.50814e-30)
(0.999939 -0.00133655 -1.50814e-30)
(0.999822 -0.000264911 0)
(0.99998 0.000337333 0)
(0.999831 0.00156707 0)
(0.999661 0.00140536 0)
(1.00008 0.00236949 0)
(1.00127 -0.000323969 0)
(1.00022 0.00208725 0)
(1.00007 0.00173256 0)
(1.0001 0.00223998 0)
(1.00009 0.00220583 0)
(1.00007 0.00209511 0)
(1.00004 0.00193447 0)
(1.00002 0.00171596 0)
(1.00001 0.00147354 0)
(0.999999 0.00121455 0)
(0.999994 0.000945902 0)
(0.999992 0.000675109 0)
(0.999992 0.00040481 0)
(0.999994 0.000135007 0)
(1.0009 -0.000504806 0)
(1.00091 -0.00151934 0)
(1.00093 -0.00255603 0)
(1.00097 -0.00363273 0)
(1.00103 -0.00475629 0)
(1.0011 -0.00592241 0)
(1.00118 -0.00712551 0)
(1.00126 -0.00832514 0)
(1.0013 -0.00949385 0)
(1.00128 -0.0106735 0)
(1.0011 -0.0117978 0)
(1.00077 -0.0129691 0)
(1.00015 -0.0139555 0)
(0.999201 -0.0171326 0)
(1.00039 -0.0135037 0)
(0.999704 -0.0133186 0)
(0.998686 -0.0121471 0)
(0.998386 -0.0109894 0)
(0.997934 -0.00882165 0)
(0.997452 -0.00684624 -6.21277e-30)
(0.997342 -0.00470824 6.21277e-30)
(0.997643 -0.00243882 0)
(0.997572 0.00010762 0)
(0.998415 0.00162652 0)
(0.999327 0.00401853 0)
(0.999919 0.00495628 0)
(0.998255 0.0112036 0)
(0.998997 0.00793468 0)
(0.999826 0.00800068 0)
(1.00005 0.00746548 0)
(1.00031 0.00686847 0)
(1.00051 0.00636239 0)
(1.00062 0.00571001 0)
(1.00069 0.00500095 0)
(1.00073 0.00426016 0)
(1.00074 0.00349479 0)
(1.00074 0.00272379 0)
(1.00073 0.0019491 0)
(1.00072 0.00117256 0)
(1.00072 0.000391843 0)
(1.00264 -0.000806606 0)
(1.00268 -0.00242671 0)
(1.00278 -0.00407646 0)
(1.00292 -0.00578108 0)
(1.00309 -0.00755735 0)
(1.00327 -0.0094167 0)
(1.00343 -0.0113614 0)
(1.00354 -0.0134021 0)
(1.00354 -0.0154678 0)
(1.00339 -0.0175211 0)
(1.00315 -0.0195616 0)
(1.00269 -0.0209396 0)
(1.00213 -0.022529 0)
(1.00292 -0.0206003 0)
(1.00043 -0.0244028 0)
(0.998272 -0.0231517 0)
(0.996743 -0.0217878 0)
(0.994634 -0.0187226 0)
(0.993102 -0.0156186 0)
(0.992255 -0.0111091 -1.29786e-29)
(0.991858 -0.00621675 1.29786e-29)
(0.992059 -0.00140799 0)
(0.993212 0.0028416 0)
(0.994323 0.0069605 0)
(0.995332 0.010047 0)
(0.997024 0.0125407 0)
(1.00019 0.0085278 0)
(1.00007 0.0130183 0)
(1.00068 0.0129178 0)
(1.00113 0.0129098 0)
(1.00154 0.0122749 0)
(1.0018 0.0112827 0)
(1.00196 0.010082 0)
(1.00205 0.00878069 0)
(1.00208 0.00740782 0)
(1.0021 0.00602349 0)
(1.00209 0.00465059 0)
(1.00208 0.00330077 0)
(1.00207 0.00197378 0)
(1.00208 0.000657695 0)
(1.00516 -0.00105895 0)
(1.00524 -0.00319208 0)
(1.00541 -0.00538125 0)
(1.00567 -0.00766958 0)
(1.00598 -0.0100923 0)
(1.00632 -0.0126709 0)
(1.00665 -0.0154162 0)
(1.00693 -0.0183033 0)
(1.00708 -0.0213161 0)
(1.00701 -0.0243279 0)
(1.00661 -0.0273208 0)
(1.00592 -0.0302576 0)
(1.00447 -0.0321053 0)
(1.00102 -0.0375052 0)
(0.999995 -0.0330684 0)
(0.996729 -0.0330609 0)
(0.992956 -0.0298782 0)
(0.989387 -0.0263829 0)
(0.986297 -0.0203632 0)
(0.984077 -0.0139059 0)
(0.983419 -0.00695005 0)
(0.984425 0.00027262 0)
(0.986077 0.00697719 0)
(0.989283 0.0121339 0)
(0.992645 0.016354 0)
(0.995457 0.0186549 0)
(0.995978 0.0267119 0)
(0.999184 0.0222201 0)
(1.00107 0.0216479 0)
(1.00244 0.0201676 0)
(1.00339 0.0183978 0)
(1.004 0.0165481 0)
(1.00432 0.0146018 0)
(1.00444 0.0125922 0)
(1.00444 0.0105887 0)
(1.00438 0.00860139 0)
(1.0043 0.00664392 0)
(1.00423 0.00471803 0)
(1.00417 0.00282212 0)
(1.00416 0.000940486 0)
(1.00828 -0.00127565 0)
(1.00841 -0.00384768 0)
(1.0087 -0.00649037 0)
(1.00913 -0.00925387 0)
(1.00967 -0.0121762 0)
(1.0103 -0.0152908 0)
(1.01095 -0.0186108 0)
(1.01156 -0.022176 0)
(1.012 -0.0259224 0)
(1.01208 -0.0298641 0)
(1.01162 -0.0338684 0)
(1.01033 -0.0373311 0)
(1.00829 -0.0415732 0)
(1.00696 -0.0391512 0)
(1.00027 -0.0466391 0)
(0.994378 -0.0450239 0)
(0.988131 -0.0427968 0)
(0.981054 -0.036074 0)
(0.975128 -0.0280076 0)
(0.971592 -0.0170168 -3.03831e-29)
(0.970425 -0.00495674 3.03831e-29)
(0.971797 0.00652232 0)
(0.975965 0.016402 0)
(0.981084 0.0243072 0)
(0.986239 0.030136 0)
(0.991661 0.0334555 0)
(0.998684 0.0275279 0)
(1.00128 0.0322822 0)
(1.00364 0.0304558 0)
(1.00528 0.0285379 0)
(1.0065 0.025877 0)
(1.00719 0.0229607 0)
(1.00754 0.0199009 0)
(1.00764 0.0169276 0)
(1.00758 0.0140457 0)
(1.00745 0.0112929 0)
(1.0073 0.00865739 0)
(1.00715 0.00611663 0)
(1.00704 0.00364693 0)
(1.007 0.00121328 0)
(1.01191 -0.00142245 0)
(1.01211 -0.00429211 0)
(1.01256 -0.0072465 0)
(1.0132 -0.0103501 0)
(1.01402 -0.0136663 0)
(1.01497 -0.0172632 0)
(1.01598 -0.0212067 0)
(1.01691 -0.0255294 0)
(1.01765 -0.030306 0)
(1.01793 -0.0353361 0)
(1.01752 -0.0407526 0)
(1.01639 -0.0464856 0)
(1.01392 -0.0511366 0)
(1.00736 -0.0634697 0)
(1.00251 -0.0577312 0)
(0.992546 -0.0580164 0)
(0.981541 -0.0538817 0)
(0.969351 -0.0483311 0)
(0.959631 -0.0346337 0)
(0.952587 -0.0187905 -6.88724e-29)
(0.950868 -0.00169338 6.88721e-29)
(0.954717 0.0152252 0)
(0.962112 0.0301465 0)
(0.971909 0.0396035 0)
(0.982476 0.0452784 0)
(0.990879 0.0475174 0)
(0.996342 0.0546018 0)
(1.00354 0.0455948 0)
(1.00705 0.0420646 0)
(1.00976 0.0379153 0)
(1.0113 0.0337863 0)
(1.01202 0.0295075 0)
(1.01221 0.0254156 0)
(1.01209 0.0214515 0)
(1.01182 0.0176934 0)
(1.01149 0.0141441 0)
(1.01117 0.0107831 0)
(1.0109 0.00758219 0)
(1.01071 0.00450357 0)
(1.01063 0.00149486 0)
(1.01586 -0.0015123 0)
(1.01615 -0.00457052 0)
(1.01676 -0.00773921 0)
(1.01766 -0.0110984 0)
(1.01883 -0.0147278 0)
(1.02021 -0.0187123 0)
(1.02175 -0.0231385 0)
(1.02334 -0.0280942 0)
(1.02481 -0.0336323 0)
(1.02591 -0.0399544 0)
(1.02621 -0.0467371 0)
(1.02515 -0.0537436 0)
(1.02288 -0.062843 0)
(1.01971 -0.061414 0)
(1.00522 -0.0793309 0)
(0.990909 -0.0814011 0)
(0.979674 -0.0744995 0)
(0.963625 -0.0651276 0)
(0.946915 -0.0491046 0)
(0.934179 -0.0269172 -9.58797e-24)
(0.929323 -0.000610832 0)
(0.933469 0.0249924 9.56036e-23)
(0.94418 0.045002 0)
(0.959182 0.059706 0)
(0.976829 0.0718089 0)
(0.991055 0.0729496 0)
(1.00521 0.0622222 0)
(1.00964 0.0629095 0)
(1.01396 0.0556452 0)
(1.01655 0.0494683 0)
(1.01795 0.0427717 0)
(1.01845 0.0366245 0)
(1.01835 0.0309073 0)
(1.01788 0.0257361 0)
(1.01724 0.0210188 0)
(1.01657 0.0166844 0)
(1.01597 0.0126587 0)
(1.01547 0.00887265 0)
(1.01513 0.00525831 0)
(1.01498 0.00174319 0)
(1.02001 -0.00153069 0)
(1.0204 -0.00462741 0)
(1.02121 -0.00784132 0)
(1.02241 -0.0112631 0)
(1.024 -0.0149821 0)
(1.02593 -0.0191134 0)
(1.02815 -0.0237789 0)
(1.03055 -0.0291492 0)
(1.03298 -0.0354274 0)
(1.03509 -0.0427283 0)
(1.03653 -0.0515775 0)
(1.03648 -0.0610564 0)
(1.03399 -0.0705492 0)
(1.02705 -0.100381 0)
(1.01778 -0.0959383 0)
(1.00559 -0.0925321 0)
(0.977843 -0.10319 0)
(0.948347 -0.0980327 0)
(0.916293 -0.077103 0)
(0.892114 -0.0419825 1.14427e-23)
(0.883773 0.00280299 0)
(0.894065 0.0455379 -1.23584e-23)
(0.917118 0.0761307 0)
(0.946076 0.0929676 0)
(0.969054 0.100905 0)
(0.991792 0.0942373 0)
(1.00638 0.0816174 0)
(1.02001 0.0775664 0)
(1.0246 0.0691937 0)
(1.02704 0.0597604 0)
(1.02766 0.0510407 0)
(1.0272 0.0429766 0)
(1.02624 0.0359042 0)
(1.02503 0.0295848 0)
(1.02378 0.0239366 0)
(1.0226 0.018844 0)
(1.02157 0.0142032 0)
(1.02076 0.00990509 0)
(1.02021 0.00584958 0)
(1.01996 0.00193524 0)
(1.02408 -0.00148596 0)
(1.02457 -0.00449613 0)
(1.02559 -0.00763296 0)
(1.02713 -0.0109968 0)
(1.02919 -0.0146969 0)
(1.03175 -0.0188639 0)
(1.0348 -0.0236757 0)
(1.03827 -0.0293089 0)
(1.04205 -0.0360734 0)
(1.04596 -0.0443308 0)
(1.04958 -0.0544941 0)
(1.05241 -0.0677794 0)
(1.05335 -0.0811278 0)
(1.04239 -0.111327 0)
(1.03592 -0.116724 0)
(1.02026 -0.126466 0)
(0.988592 -0.142041 0)
(0.942641 -0.149635 0)
(0.884424 -0.127992 2.34085e-23)
(0.833705 -0.0764429 0)
(0.81178 0.00177143 -1.58734e-23)
(0.83177 0.0767337 0)
(0.878161 0.123981 -2.09141e-22)
(0.928439 0.141119 0)
(0.970387 0.140362 0)
(1.00323 0.129892 0)
(1.01992 0.110099 0)
(1.03724 0.096457 0)
(1.04006 0.0825572 0)
(1.04073 0.0691201 0)
(1.03968 0.0573477 0)
(1.03792 0.0476414 0)
(1.03574 0.0392797 0)
(1.03349 0.0320457 0)
(1.03134 0.0257166 0)
(1.02943 0.0201152 0)
(1.02783 0.0150836 0)
(1.02661 0.0104778 0)
(1.02578 0.00617052 0)
(1.02538 0.00203818 0)
(1.02802 -0.00138272 0)
(1.02862 -0.00418236 0)
(1.02987 -0.00709908 0)
(1.03177 -0.0102271 0)
(1.03434 -0.0136734 0)
(1.03763 -0.0175717 0)
(1.04164 -0.0221029 0)
(1.04641 -0.0275199 0)
(1.0519 -0.0341173 0)
(1.05807 -0.0424507 0)
(1.06485 -0.0534861 0)
(1.07195 -0.0675237 0)
(1.07836 -0.0846572 0)
(1.07184 -0.117564 0)
(1.07074 -0.134789 0)
(1.0517 -0.176461 0)
(1.01872 -0.202657 0)
(0.956098 -0.236891 0)
(0.849174 -0.245013 1.78266e-22)
(0.719394 -0.172741 0)
(0.654496 -0.00901391 5.10488e-22)
(0.713752 0.151858 5.85406e-22)
(0.831185 0.223725 -2.16045e-22)
(0.927468 0.224951 0)
(0.993711 0.200866 0)
(1.03547 0.167718 0)
(1.04864 0.134895 0)
(1.06259 0.110714 0)
(1.06117 0.092113 0)
(1.05815 0.0753697 0)
(1.05464 0.0615949 0)
(1.05062 0.0502945 0)
(1.04668 0.0409121 0)
(1.04295 0.0329994 0)
(1.03961 0.0262124 0)
(1.03676 0.0203382 0)
(1.03445 0.0151516 0)
(1.03271 0.0104763 0)
(1.03155 0.00614961 0)
(1.03098 0.00202792 0)
(1.0316 -0.00121966 0)
(1.0323 -0.00368637 0)
(1.03375 -0.0062485 0)
(1.03597 -0.0089863 0)
(1.03903 -0.0119926 0)
(1.04299 -0.0153928 0)
(1.04796 -0.0193474 0)
(1.05407 -0.0241013 0)
(1.06147 -0.0299753 0)
(1.07035 -0.0373923 0)
(1.08108 -0.047361 0)
(1.09397 -0.0617931 0)
(1.10835 -0.0747403 0)
(1.11008 -0.110636 0)
(1.12402 -0.138119 0)
(1.12354 -0.195721 0)
(1.10947 -0.261138 -1.589e-23)
(1.05759 -0.370037 2.01864e-23)
(0.88879 -0.500034 -3.77524e-22)
(0.498622 -0.501225 -3.13225e-20)
(0.188115 -0.0201904 0)
(0.488443 0.444191 -8.15536e-21)
(0.841434 0.454746 1.06631e-21)
(1.00202 0.349069 2.78901e-23)
(1.06464 0.262186 -2.10953e-24)
(1.09038 0.195485 0)
(1.09088 0.150329 0)
(1.09482 0.112723 0)
(1.08718 0.0931353 0)
(1.0797 0.0751702 0)
(1.07183 0.0603889 0)
(1.06483 0.0487192 0)
(1.05849 0.0393368 0)
(1.05291 0.0314319 0)
(1.04813 0.0248201 0)
(1.04418 0.019152 0)
(1.04105 0.0142126 0)
(1.03872 0.00979404 0)
(1.03718 0.00573571 0)
(1.03643 0.0018888 0)
(1.03477 -0.00102514 0)
(1.03554 -0.00309536 0)
(1.03714 -0.00522951 0)
(1.03961 -0.00747341 0)
(1.04304 -0.00987878 0)
(1.04755 -0.0125141 0)
(1.05331 -0.0154678 0)
(1.06053 -0.0188708 0)
(1.0696 -0.0229451 0)
(1.08084 -0.0279014 0)
(1.09496 -0.0342559 0)
(1.11298 -0.0437988 0)
(1.13647 -0.0536834 0)
(1.14801 -0.0818081 0)
(1.1844 -0.108976 0)
(1.21174 -0.167032 0)
(1.25468 -0.247065 -5.00332e-23)
(1.31715 -0.401183 1.07022e-21)
(1.03526 -0.548218 -7.31302e-20)
(1.01165 0.537192 8.70055e-21)
(1.20703 0.394424 3.46544e-23)
(1.17774 0.264717 0)
(1.16033 0.186303 0)
(1.1412 0.146701 0)
(1.13045 0.102549 0)
(1.11536 0.0856358 0)
(1.10121 0.0678708 0)
(1.08924 0.0537892 0)
(1.07899 0.0432942 0)
(1.07007 0.0344632 0)
(1.06252 0.0273174 0)
(1.05623 0.0213817 0)
(1.05114 0.016401 0)
(1.04715 0.0121107 0)
(1.04422 0.00831866 0)
(1.0423 0.0048604 0)
(1.04135 0.00159829 0)
(1.03739 -0.000802583 0)
(1.0382 -0.00241311 0)
(1.03989 -0.0040385 0)
(1.04251 -0.00568019 0)
(1.04615 -0.0073428 0)
(1.05095 -0.00903229 0)
(1.0571 -0.0107635 0)
(1.06489 -0.0124957 0)
(1.07466 -0.0143194 0)
(1.0872 -0.0160814 0)
(1.10273 -0.0177699 0)
(1.12478 -0.0205223 0)
(1.15176 -0.0206686 0)
(1.17575 -0.0340279 0)
(1.2247 -0.0456551 0)
(1.27975 -0.078019 0)
(1.36615 -0.119335 0)
(1.50616 -0.162964 1.68018e-21)
(0.0218776 0.00425912 5.24019e-19)
(0.0338963 -0.0034799 -8.93249e-20)
(1.34255 0.258061 0)
(1.26799 0.20272 0)
(1.22115 0.148248 0)
(1.18727 0.118629 0)
(1.16414 0.0810042 0)
(1.14145 0.0670864 0)
(1.12153 0.0518664 0)
(1.10548 0.0413913 0)
(1.0918 0.0329315 0)
(1.08035 0.0261308 0)
(1.07085 0.0205786 0)
(1.06313 0.0160436 0)
(1.05697 0.0122416 0)
(1.05221 0.00899604 0)
(1.04874 0.00615402 0)
(1.04648 0.00358218 0)
(1.04535 0.00117461 0)
(1.03944 -0.000573541 0)
(1.04027 -0.00171979 0)
(1.04197 -0.00284303 0)
(1.04458 -0.00390859 0)
(1.04819 -0.00487057 0)
(1.05292 -0.00565789 0)
(1.05895 -0.00614587 0)
(1.06657 -0.00620868 0)
(1.07609 -0.00531286 0)
(1.08817 -0.00388448 0)
(1.10361 0.00071619 0)
(1.12274 0.00481061 0)
(1.14955 0.0183166 0)
(1.17809 0.0198578 0)
(1.22689 0.0285735 0)
(1.28967 0.031146 0)
(1.37965 0.031947 0)
(1.45749 0.0534754 1.07208e-23)
(0.222974 0.0139799 0)
(0.0546642 0.00942064 3.4561e-21)
(1.27525 0.123934 0)
(1.30449 0.128354 0)
(1.25684 0.09701 0)
(1.22071 0.0782303 0)
(1.18755 0.0480374 0)
(1.15997 0.0395379 0)
(1.13666 0.0300648 0)
(1.11735 0.0235569 0)
(1.10125 0.018503 0)
(1.0879 0.0143916 0)
(1.07698 0.0112525 0)
(1.06813 0.00871869 0)
(1.06112 0.00662899 0)
(1.05576 0.00487011 0)
(1.05188 0.00332918 0)
(1.04937 0.00193509 0)
(1.0481 0.000632793 0)
(1.04092 -0.000356688 0)
(1.04172 -0.0010664 0)
(1.04334 -0.00172928 0)
(1.04583 -0.00227338 0)
(1.04922 -0.00261708 0)
(1.0536 -0.0026255 0)
(1.05906 -0.00209853 0)
(1.06572 -0.000799961 0)
(1.07374 0.00172652 0)
(1.08333 0.00629087 0)
(1.09498 0.0133519 0)
(1.10952 0.0256447 0)
(1.12699 0.0416351 0)
(1.15498 0.0643095 0)
(1.19009 0.0929731 0)
(1.24607 0.129254 0)
(1.32969 0.170019 0)
(1.42092 0.226395 -1.14479e-22)
(0.625138 0.0726111 -2.6025e-23)
(0.151856 -0.199039 -3.0632e-22)
(-0.18417 -0.207733 -2.06346e-22)
(-0.190185 0.0375346 -2.32668e-21)
(0.0753671 0.0308041 -7.6146e-22)
(1.15748 0.0657663 4.00035e-23)
(1.32075 0.0734711 0)
(1.27896 0.0453512 0)
(1.2415 0.0332307 0)
(1.20156 0.0113268 0)
(1.17103 0.00746284 0)
(1.14485 0.00410257 0)
(1.12378 0.00302118 0)
(1.1059 0.00177711 0)
(1.09148 0.00115697 0)
(1.07974 0.000749452 0)
(1.07032 0.000479014 0)
(1.06293 0.000324761 0)
(1.05728 0.00022119 0)
(1.0532 0.000148288 0)
(1.05056 7.98593e-05 0)
(1.04923 2.1282e-05 0)
(1.04185 -0.000171392 0)
(1.04262 -0.000511565 0)
(1.04416 -0.000801553 0)
(1.04647 -0.000963015 0)
(1.04954 -0.000923599 0)
(1.05338 -0.000560727 0)
(1.05791 0.000333088 0)
(1.06313 0.002028 0)
(1.06886 0.00518589 0)
(1.07521 0.00991159 0)
(1.08111 0.0193235 0)
(1.08795 0.0297525 0)
(1.09372 0.0554053 0)
(1.11049 0.0839061 0)
(1.12091 0.130042 0)
(1.14048 0.19643 0)
(1.19369 0.293802 0)
(1.25913 0.457711 0)
(0.932322 0.562669 7.52725e-23)
(0.250236 0.487277 -3.64723e-22)
(-0.325166 0.457557 0)
(-0.255444 0.404026 0)
(0.363745 0.230032 -3.552e-22)
(1.19079 0.0695752 0)
(1.35365 0.0211145 0)
(1.29756 -0.0155787 0)
(1.25192 -0.0176198 0)
(1.20444 -0.032513 0)
(1.17226 -0.0277784 0)
(1.14506 -0.0244823 0)
(1.12347 -0.0199013 0)
(1.10538 -0.0166392 0)
(1.09085 -0.0132356 0)
(1.079 -0.010542 0)
(1.0696 -0.0082023 0)
(1.06223 -0.00623281 0)
(1.05664 -0.00456801 0)
(1.05263 -0.00311305 0)
(1.05003 -0.00181747 0)
(1.04873 -0.000600712 0)
(1.04231 -2.09979e-06 0)
(1.04304 -1.62611e-05 0)
(1.04447 -1.04282e-05 0)
(1.04659 5.96494e-05 0)
(1.04934 0.000254171 0)
(1.05263 0.000639278 0)
(1.0563 0.00142041 0)
(1.06011 0.00268344 0)
(1.0637 0.00514858 0)
(1.06616 0.00855551 0)
(1.06773 0.0151089 0)
(1.06402 0.0248928 0)
(1.05893 0.038811 0)
(1.04624 0.0684111 0)
(1.03872 0.126158 0)
(1.01319 0.181719 0)
(0.997524 0.306734 0)
(0.941802 0.470489 0)
(0.756996 0.714708 0)
(0.261432 0.855661 0)
(-0.22861 0.879392 1.21798e-23)
(0.0990432 0.5587 -2.98435e-22)
(0.744358 0.211781 0)
(1.34404 -0.0256066 0)
(1.39218 -0.0963057 0)
(1.30296 -0.0966068 0)
(1.23391 -0.0907606 0)
(1.19369 -0.080448 0)
(1.16095 -0.0627229 0)
(1.13599 -0.0524269 0)
(1.11488 -0.0416995 0)
(1.0983 -0.0337963 0)
(1.08488 -0.0267074 0)
(1.07407 -0.0210842 0)
(1.0655 -0.0162793 0)
(1.05877 -0.0123247 0)
(1.05368 -0.00897169 0)
(1.05001 -0.00608731 0)
(1.04764 -0.00353012 0)
(1.04645 -0.00115919 0)
(1.04224 0.000152953 0)
(1.04297 0.000430992 0)
(1.04438 0.000677584 0)
(1.04643 0.000892839 0)
(1.04906 0.00106039 0)
(1.0521 0.00117026 0)
(1.05536 0.00118714 0)
(1.05833 0.00116612 0)
(1.06055 0.000841639 0)
(1.06078 0.0009078 0)
(1.05788 0.000357698 0)
(1.05 0.00210046 0)
(1.03358 0.0039281 0)
(1.00434 0.010997 0)
(0.979546 0.0588152 0)
(0.906567 0.0902642 0)
(0.831117 0.175985 0)
(0.684596 0.292066 0)
(0.419174 0.514946 0)
(0.0508198 0.754988 0)
(0.17767 0.522232 0)
(0.642584 0.128168 0)
(1.08374 -0.115844 0)
(1.45927 -0.267239 0)
(1.3688 -0.238687 0)
(1.27384 -0.188769 0)
(1.20744 -0.157522 0)
(1.16378 -0.118098 0)
(1.13702 -0.097084 0)
(1.11541 -0.0768285 0)
(1.09861 -0.0605565 0)
(1.08506 -0.0479695 0)
(1.07402 -0.0375597 0)
(1.0653 -0.0293026 0)
(1.05831 -0.0225475 0)
(1.05285 -0.0170186 0)
(1.04869 -0.0123755 0)
(1.04569 -0.00839455 0)
(1.04374 -0.0048626 0)
(1.04276 -0.00159432 0)
(1.04165 0.000327044 0)
(1.04245 0.000940894 0)
(1.04394 0.00146662 0)
(1.04612 0.00185741 0)
(1.04893 0.00199284 0)
(1.05224 0.0017712 0)
(1.05583 0.000996607 0)
(1.05947 -0.000597026 0)
(1.06237 -0.00324873 0)
(1.06433 -0.00787632 0)
(1.0624 -0.0138643 0)
(1.05708 -0.0259006 0)
(1.03792 -0.0364315 0)
(1.00541 -0.0644368 0)
(0.965028 -0.0437151 0)
(0.871822 -0.0640504 0)
(0.748236 -0.0340494 0)
(0.41229 0.115727 0)
(0.198971 0.159813 0)
(0.277169 -0.00801333 0)
(0.607648 -0.24014 0)
(0.979197 -0.442416 0)
(1.30647 -0.555399 0)
(1.33931 -0.449331 0)
(1.26394 -0.338872 0)
(1.2093 -0.261165 0)
(1.12738 -0.183387 0)
(1.12015 -0.153269 0)
(1.10247 -0.115226 0)
(1.08749 -0.0926055 0)
(1.0764 -0.0720059 0)
(1.06718 -0.0568595 0)
(1.05985 -0.0443075 0)
(1.05382 -0.034368 0)
(1.04898 -0.0263418 0)
(1.04513 -0.0197992 0)
(1.04218 -0.0143758 0)
(1.04004 -0.00973853 0)
(1.03865 -0.00564147 0)
(1.03794 -0.00184824 0)
(1.0405 0.000575799 0)
(1.04138 0.00167973 0)
(1.04303 0.0026652 0)
(1.04551 0.00345127 0)
(1.04881 0.00389593 0)
(1.05293 0.00380334 0)
(1.05776 0.00298225 0)
(1.06322 0.000710522 0)
(1.06884 -0.00310351 0)
(1.07443 -0.0107993 0)
(1.07892 -0.0218762 0)
(1.08046 -0.042688 0)
(1.07576 -0.0672007 0)
(1.05988 -0.123273 0)
(1.01008 -0.143694 0)
(0.919232 -0.200015 0)
(0.646097 -0.177225 0)
(0.455772 -0.237333 0)
(0.448323 -0.433897 0)
(0.575613 -0.645759 0)
(0.811473 -0.776718 0)
(1.03032 -0.77106 0)
(1.1345 -0.641871 0)
(1.15001 -0.495085 0)
(1.11008 -0.350407 0)
(1.12472 -0.28671 0)
(1.09209 -0.218757 0)
(1.06562 -0.163799 0)
(1.05781 -0.128842 0)
(1.05473 -0.0996942 0)
(1.04998 -0.0762645 0)
(1.04625 -0.0595353 0)
(1.04325 -0.0457729 0)
(1.04063 -0.0353921 0)
(1.03841 -0.0270069 0)
(1.03652 -0.0202777 0)
(1.03499 -0.0146887 0)
(1.03382 -0.00994048 0)
(1.03304 -0.00574881 0)
(1.03265 -0.00188214 0)
(1.03846 0.0008863 0)
(1.03944 0.00261894 0)
(1.0413 0.00425958 0)
(1.04414 0.00573425 0)
(1.04804 0.00690974 0)
(1.05308 0.00753861 0)
(1.05939 0.00737085 0)
(1.06703 0.00569196 0)
(1.07653 0.0021018 0)
(1.08756 -0.00530331 0)
(1.10185 -0.0167506 0)
(1.11745 -0.0371272 0)
(1.14134 -0.0698684 0)
(1.15427 -0.121419 0)
(1.11428 -0.191199 0)
(0.995017 -0.280644 0)
(0.674885 -0.357756 0)
(0.685576 -0.479745 0)
(0.684593 -0.627948 0)
(0.734994 -0.730651 0)
(0.821212 -0.748075 -4.70984e-33)
(0.899744 -0.682999 0)
(0.951904 -0.574845 0)
(0.986909 -0.46647 0)
(0.974935 -0.32814 0)
(1.02272 -0.270162 0)
(0.979756 -0.194969 0)
(0.999109 -0.142602 0)
(1.00978 -0.116672 0)
(1.01696 -0.0894702 0)
(1.02148 -0.0696407 0)
(1.02499 -0.0539321 0)
(1.02668 -0.0413632 0)
(1.02766 -0.0318256 0)
(1.028 -0.0242717 0)
(1.02806 -0.0182495 0)
(1.02792 -0.0132665 0)
(1.02772 -0.0090147 0)
(1.02754 -0.0052281 0)
(1.02745 -0.00171373 0)
(1.03554 0.00127665 0)
(1.03659 0.00381786 0)
(1.03858 0.00633439 0)
(1.04167 0.00880412 0)
(1.04603 0.0111341 0)
(1.05189 0.0132323 0)
(1.0596 0.0148334 0)
(1.06961 0.015822 0)
(1.08266 0.0155203 0)
(1.09974 0.0135797 0)
(1.1221 0.00716545 0)
(1.15309 -0.000867373 0)
(1.19659 -0.0240184 0)
(1.24378 -0.0426537 0)
(1.30669 -0.106594 0)
(1.18298 -0.274409 0)
(0.825656 -0.537683 0)
(0.806621 -0.698605 0)
(0.811881 -0.778537 0)
(0.792242 -0.802933 0)
(0.779583 -0.751433 1.21729e-33)
(0.786251 -0.644132 0)
(0.822603 -0.523795 0)
(0.861267 -0.42385 0)
(0.907701 -0.34755 0)
(0.894913 -0.159226 0)
(0.923953 -0.141207 0)
(0.956773 -0.119188 0)
(0.977249 -0.0878725 0)
(0.989194 -0.0675845 0)
(0.999447 -0.0519921 0)
(1.00735 -0.0399167 0)
(1.0131 -0.0309896 0)
(1.01705 -0.0239557 0)
(1.01961 -0.0184436 0)
(1.02119 -0.0139476 0)
(1.02211 -0.010226 0)
(1.02262 -0.00698913 0)
(1.02288 -0.00407671 0)
(1.02301 -0.0013407 0)
(1.03139 0.00167138 0)
(1.0324 0.00504458 0)
(1.03435 0.00851988 0)
(1.03743 0.0121591 0)
(1.04185 0.016031 0)
(1.04791 0.0201705 0)
(1.056 0.0246896 0)
(1.06686 0.0292731 0)
(1.08089 0.0346109 0)
(1.10011 0.0391245 0)
(1.12534 0.0448508 0)
(1.16022 0.0504243 0)
(1.20407 0.0581935 0)
(1.26856 0.0730482 0)
(1.3658 0.0866654 0)
(1.4496 0.100664 0)
(1.35928 0.00632044 0)
(1.17131 -0.120532 0)
(0.989233 -0.283263 0)
(0.791887 -0.287161 -2.13168e-33)
(0.603367 -0.363034 3.98349e-33)
(0.526267 -0.345678 0)
(0.536093 -0.33134 0)
(0.646066 -0.272352 0)
(0.799417 -0.197333 0)
(0.897638 -0.175771 0)
(0.922447 -0.144137 0)
(0.930326 -0.102259 0)
(0.949754 -0.0694886 0)
(0.968177 -0.0463419 0)
(0.983999 -0.0310512 0)
(0.995509 -0.0228015 0)
(1.00422 -0.0170382 0)
(1.01005 -0.0134542 0)
(1.01405 -0.010637 0)
(1.01658 -0.00836846 0)
(1.01816 -0.00632768 0)
(1.01908 -0.00444064 0)
(1.01958 -0.00263347 0)
(1.01981 -0.000872614 0)
(1.02625 0.00200758 0)
(1.02711 0.00610368 0)
(1.02878 0.0104455 0)
(1.03141 0.0151887 0)
(1.03519 0.0205041 0)
(1.04037 0.0265631 0)
(1.04737 0.0336426 0)
(1.0566 0.041809 0)
(1.06902 0.0521221 0)
(1.08534 0.0639085 0)
(1.10671 0.0808377 0)
(1.13589 0.0996896 0)
(1.17156 0.129163 0)
(1.22408 0.162616 0)
(1.29168 0.222139 0)
(1.35086 0.302168 0)
(1.31996 0.383067 0)
(1.21896 0.387075 0)
(1.05293 0.347166 0)
(0.878677 0.286841 -4.32353e-34)
(0.737108 0.201877 4.32353e-34)
(0.667451 0.0724972 0)
(0.653582 -0.0227154 0)
(0.678995 -0.136717 0)
(0.735764 -0.188838 0)
(0.804425 -0.159686 0)
(0.830643 -0.0864089 0)
(0.863924 -0.0409965 0)
(0.904023 -0.0112518 0)
(0.942296 -0.00227032 0)
(0.970939 0.00111226 0)
(0.989376 0.000811412 0)
(1.00079 9.56501e-05 0)
(1.00795 -0.000933498 0)
(1.01231 -0.00160935 0)
(1.01494 -0.00198789 0)
(1.01649 -0.00196457 0)
(1.01736 -0.00164288 0)
(1.01781 -0.00108363 0)
(1.01801 -0.000378829 0)
(1.02026 0.00219988 0)
(1.02084 0.00671488 0)
(1.02198 0.0115646 0)
(1.02378 0.0169731 0)
(1.02638 0.02319 0)
(1.03001 0.030569 0)
(1.03491 0.0395485 0)
(1.04167 0.0505504 0)
(1.05055 0.0644784 0)
(1.06196 0.0819077 0)
(1.07793 0.103084 0)
(1.09683 0.130729 0)
(1.11927 0.165006 0)
(1.14235 0.21092 0)
(1.16588 0.270921 0)
(1.19103 0.34966 0)
(1.20342 0.429206 0)
(1.17199 0.481092 0)
(1.07451 0.493808 0)
(0.961753 0.486902 0)
(0.868376 0.437689 0)
(0.811126 0.372364 0)
(0.795074 0.336505 0)
(0.842335 0.239524 0)
(0.827484 0.159775 0)
(0.764441 0.135607 0)
(0.750614 0.142377 0)
(0.816825 0.134458 0)
(0.896671 0.100935 0)
(0.948162 0.0699222 0)
(0.97907 0.0468475 0)
(0.996591 0.0302844 0)
(1.00671 0.0191198 0)
(1.01229 0.011633 0)
(1.0153 0.00674263 0)
(1.01675 0.00364016 0)
(1.01737 0.00177649 0)
(1.01758 0.000737061 0)
(1.0176 0.000232977 0)
(1.01758 4.13308e-05 0)
(1.01409 0.00215404 0)
(1.01431 0.00660263 0)
(1.01477 0.0114649 0)
(1.01553 0.0170094 0)
(1.01666 0.0236314 0)
(1.01831 0.0316744 0)
(1.02069 0.0419098 0)
(1.02399 0.0543146 0)
(1.02882 0.0704036 0)
(1.03512 0.0894703 0)
(1.04465 0.11345 0)
(1.05422 0.141521 0)
(1.06672 0.171081 0)
(1.08222 0.209299 0)
(1.09971 0.239362 0)
(1.12043 0.290721 0)
(1.13342 0.343133 0)
(1.09484 0.428319 0)
(1.03046 0.484909 0)
(0.952178 0.545111 0)
(0.879134 0.573472 0)
(0.824294 0.604472 0)
(0.812676 0.6153 0)
(0.893489 0.600015 0)
(0.900352 0.566478 0)
(0.824271 0.508905 0)
(0.821953 0.394741 0)
(0.902003 0.283874 0)
(0.977482 0.18395 0)
(1.01295 0.120127 0)
(1.02138 0.0779514 0)
(1.02409 0.0493345 0)
(1.02457 0.0314925 0)
(1.02393 0.0193109 0)
(1.02276 0.0116193 0)
(1.02149 0.00664842 0)
(1.02028 0.00364083 0)
(1.01927 0.00183973 0)
(1.01856 0.000819161 0)
(1.01816 0.000221798 0)
(1.00826 0.0018803 0)
(1.00809 0.00579524 0)
(1.00781 0.0101415 0)
(1.00737 0.0152297 0)
(1.00678 0.0214408 0)
(1.00599 0.0292878 0)
(1.00519 0.0393208 0)
(1.00435 0.0525338 0)
(1.00423 0.0694662 0)
(1.00506 0.0913933 0)
(1.00814 0.118198 0)
(1.01561 0.152359 0)
(1.03069 0.183005 0)
(1.04533 0.218367 0)
(1.05721 0.266274 0)
(1.0485 0.322174 0)
(1.02876 0.387908 0)
(0.976345 0.466361 0)
(0.922756 0.540368 0)
(0.855277 0.607874 -4.3413e-34)
(0.782114 0.680143 4.3413e-34)
(0.761754 0.713103 0)
(0.781024 0.740749 0)
(0.889722 0.728986 0)
(0.958596 0.690574 0)
(0.981935 0.579549 0)
(1.03483 0.404049 0)
(1.09219 0.260129 0)
(1.11091 0.165086 0)
(1.09611 0.108791 0)
(1.07505 0.0703743 0)
(1.05899 0.0454321 0)
(1.04693 0.0286689 0)
(1.03835 0.0176345 0)
(1.03189 0.0104217 0)
(1.02718 0.00584194 0)
(1.0237 0.00303709 0)
(1.02128 0.00142499 0)
(1.01972 0.000566394 0)
(1.01891 0.000138149 0)
(1.0036 0.00133263 0)
(1.00305 0.00412091 0)
(1.002 0.00725777 0)
(1.00028 0.0110149 0)
(0.997674 0.0157625 0)
(0.994007 0.0221192 0)
(0.988877 0.0308883 0)
(0.982569 0.043381 0)
(0.974892 0.0613404 0)
(0.967582 0.088383 0)
(0.96122 0.122771 0)
(0.962268 0.170732 0)
(0.967838 0.226716 0)
(0.956918 0.293789 0)
(0.956905 0.365342 0)
(0.952585 0.420618 0)
(0.936546 0.45889 0)
(0.89182 0.504652 0)
(0.83302 0.54665 0)
(0.772528 0.576545 0)
(0.727444 0.592949 0)
(0.749436 0.575998 0)
(0.819912 0.545278 0)
(0.973802 0.490592 0)
(1.11096 0.424841 0)
(1.20053 0.32061 0)
(1.24391 0.205905 0)
(1.23799 0.125571 0)
(1.1957 0.0789243 0)
(1.14938 0.0529909 0)
(1.11214 0.0340997 0)
(1.08399 0.0215585 0)
(1.06415 0.0122398 0)
(1.04959 0.00653588 0)
(1.03914 0.00281111 0)
(1.03152 0.000708078 0)
(1.02618 -0.000364901 0)
(1.02253 -0.000711141 0)
(1.02025 -0.000603741 0)
(1.01908 -0.000231851 0)
(1.00078 0.000555311 0)
(0.999929 0.00171004 0)
(0.998274 0.00301053 0)
(0.995509 0.00457576 0)
(0.991216 0.00673101 0)
(0.984835 0.00978012 0)
(0.975558 0.0149118 0)
(0.962324 0.0226742 0)
(0.943785 0.0370546 0)
(0.920136 0.0593903 0)
(0.893498 0.102147 0)
(0.866932 0.15738 0)
(0.850418 0.233939 0)
(0.853747 0.30516 0)
(0.892433 0.33509 0)
(0.923139 0.359734 0)
(0.901735 0.362348 0)
(0.861251 0.381273 0)
(0.820991 0.377112 0)
(0.787888 0.348833 0)
(0.782766 0.302231 0)
(0.836351 0.23089 0)
(0.951397 0.147934 0)
(1.09598 0.0799568 0)
(1.21799 0.0199886 0)
(1.29707 -0.0126852 0)
(1.31138 -0.0248909 0)
(1.27601 -0.0220081 0)
(1.21629 -0.0172907 0)
(1.16213 -0.0145648 0)
(1.12116 -0.0113407 0)
(1.09104 -0.0116278 0)
(1.06901 -0.00984744 0)
(1.0526 -0.00942703 0)
(1.04073 -0.00809799 0)
(1.03211 -0.00687757 0)
(1.02596 -0.00540709 0)
(1.02176 -0.00391116 0)
(1.01914 -0.00235504 0)
(1.01779 -0.000789323 0)
(1.00036 -0.000361506 0)
(0.999518 -0.00115083 0)
(0.997851 -0.00212659 0)
(0.994965 -0.00339589 0)
(0.990321 -0.00505635 0)
(0.982933 -0.00711751 0)
(0.971471 -0.00969142 0)
(0.953243 -0.0120728 0)
(0.925058 -0.013865 0)
(0.883384 -0.0113394 0)
(0.827828 0.000995754 0)
(0.776749 0.0340572 0)
(0.772278 0.0718093 0)
(0.834669 0.0938033 0)
(0.901664 0.0900442 0)
(0.917231 0.106387 0)
(0.891169 0.121172 0)
(0.87912 0.123015 0)
(0.874183 0.101883 0)
(0.864049 0.0533989 0)
(0.887419 -0.00161153 0)
(0.94832 -0.0866683 0)
(1.04945 -0.151137 0)
(1.16167 -0.204851 0)
(1.23483 -0.230006 0)
(1.26355 -0.221336 0)
(1.2533 -0.180706 0)
(1.22481 -0.13594 0)
(1.18447 -0.0983204 0)
(1.14178 -0.0726277 0)
(1.10771 -0.05534 0)
(1.08179 -0.0414789 0)
(1.06177 -0.0324248 0)
(1.04717 -0.0249646 0)
(1.03614 -0.0192805 0)
(1.02819 -0.0146054 0)
(1.02251 -0.010697 0)
(1.01864 -0.00729297 0)
(1.0162 -0.00423911 0)
(1.01495 -0.0013897 0)
(1.00262 -0.00114809 0)
(1.00216 -0.00362324 0)
(1.00121 -0.00663909 0)
(0.999457 -0.0106054 0)
(0.996393 -0.0161025 0)
(0.991282 -0.0238701 0)
(0.982534 -0.0349617 0)
(0.968223 -0.0514213 0)
(0.943173 -0.075174 0)
(0.897888 -0.10682 0)
(0.829226 -0.151431 0)
(0.770797 -0.187125 0)
(0.777202 -0.230933 0)
(0.845623 -0.249084 0)
(0.888305 -0.236547 0)
(0.87828 -0.208707 0)
(0.876556 -0.183691 0)
(0.902007 -0.161662 0)
(0.916199 -0.174547 0)
(0.929928 -0.196166 0)
(0.971954 -0.22771 0)
(1.02549 -0.272379 0)
(1.10262 -0.293529 0)
(1.18089 -0.296217 0)
(1.22337 -0.281026 0)
(1.21763 -0.248982 0)
(1.18753 -0.214015 0)
(1.15925 -0.176027 0)
(1.12943 -0.140082 0)
(1.10305 -0.108503 0)
(1.08033 -0.0831267 0)
(1.06113 -0.0644918 0)
(1.04629 -0.0493483 0)
(1.03495 -0.037374 0)
(1.02661 -0.0280206 0)
(1.0204 -0.0206758 0)
(1.01604 -0.014738 0)
(1.01307 -0.00984479 0)
(1.01124 -0.00563435 0)
(1.0103 -0.00182994 0)
(1.00684 -0.0015597 0)
(1.00702 -0.00494602 0)
(1.00736 -0.00909303 0)
(1.00779 -0.0146161 0)
(1.00821 -0.0222614 0)
(1.00839 -0.033392 0)
(1.00817 -0.0492488 0)
(1.00655 -0.0732799 0)
(1.00077 -0.109218 0)
(0.978028 -0.162057 0)
(0.929361 -0.243446 0)
(0.8713 -0.345425 0)
(0.844376 -0.45881 0)
(0.850553 -0.521184 0)
(0.840006 -0.517406 0)
(0.817992 -0.486496 0)
(0.838903 -0.45763 0)
(0.882296 -0.420507 0)
(0.912176 -0.405512 0)
(0.945365 -0.39734 0)
(0.993828 -0.402402 0)
(1.03908 -0.39964 0)
(1.09034 -0.388326 0)