/*--------------------------------*- C++ -*----------------------------------*\
  =========                 |
  \\      /  F ield         | OpenFOAM: The Open Source CFD Toolbox
   \\    /   O peration     | Website:  https://openfoam.org
    \\  /    A nd           | Version:  6
     \\/     M anipulation  |
\*---------------------------------------------------------------------------*/
FoamFile
{
    version     2.0;
    format      ascii;
    class       volScalarField;
    location    "250";
    object      alphat;
}
// * * * * * * * * * * * * * * * * * * * * * * * * * * * * * * * * * * * * * //

dimensions      [1 -1 -1 0 0 0 0];

internalField   nonuniform List<scalar> 
16000
(
4.6478093e-06
2.3711892e-05
2.8710641e-05
3.7640023e-05
3.1551021e-05
4.0127718e-05
3.7828002e-05
4.3075594e-05
4.2895049e-05
4.3632147e-05
4.3506066e-05
4.2439921e-05
4.2213943e-05
4.1173069e-05
4.106528e-05
4.0616622e-05
4.0771178e-05
4.0852702e-05
4.1313035e-05
4.1840571e-05
4.2635777e-05
4.3571472e-05
4.4734862e-05
4.6085184e-05
4.7668559e-05
4.9486858e-05
5.1578161e-05
5.3969633e-05
5.670712e-05
5.9840314e-05
6.3438959e-05
6.7586622e-05
7.2384918e-05
7.7958444e-05
8.4436298e-05
9.1991085e-05
0.0001008391
0.00011126418
0.00012362224
0.00013831902
0.00015585116
0.00017684988
0.0002020954
0.0002325422
0.00026936636
0.00031402492
0.00036830908
0.00043442177
0.00051507088
0.00061356929
0.00073395683
0.00088114063
0.0010610858
0.0012181326
0.0012193442
0.0012194551
0.001218838
0.0012178429
0.0012166352
0.0012151411
0.0012131715
0.0012107017
0.0012076994
0.0012041923
0.0012003291
0.0011964278
0.001192792
0.0011895812
0.0011867144
0.0011842579
0.0011820193
0.0011803364
0.0011785274
0.0011777623
0.0011759172
0.0011771119
0.0011745896
0.0011798169
0.0011719348
0.0011789364
3.9199555e-06
2.346753e-05
2.5687593e-05
3.4392906e-05
2.9039081e-05
3.6244132e-05
3.478519e-05
3.8720551e-05
3.9275348e-05
3.9159538e-05
3.9479333e-05
3.8019652e-05
3.7989064e-05
3.6884709e-05
3.6885633e-05
3.6430554e-05
3.6615002e-05
3.6682824e-05
3.7121761e-05
3.7604204e-05
3.8334222e-05
3.9184704e-05
4.023987e-05
4.1460684e-05
4.2889788e-05
4.4529024e-05
4.6412798e-05
4.8566242e-05
5.1031016e-05
5.3852656e-05
5.7090162e-05
6.0812072e-05
6.5110303e-05
7.0096725e-05
7.5907427e-05
8.2705223e-05
9.0673028e-05
0.00010003804
0.00011110451
0.00012426821
0.00013997581
0.00015877409
0.00018135644
0.00020857806
0.00024147907
0.00028134872
0.00032977646
0.00038871038
0.00046054666
0.0005482212
0.0006553176
0.0007862036
0.00094618981
0.0011417832
0.0012184432
0.0012186889
0.0012181101
0.0012171088
0.0012159125
0.0012145291
0.0012128357
0.0012106073
0.0012078038
0.0012044329
0.0012006201
0.001196692
0.0011930046
0.0011897392
0.0011868464
0.001184332
0.0011821027
0.0011803192
0.0011786038
0.0011776548
0.0011759924
0.0011766581
0.0011745259
0.0011792212
0.0011720606
0.0011787548
3.3743569e-06
2.3241399e-05
2.3672463e-05
3.1607879e-05
2.7027601e-05
3.2891365e-05
3.2460968e-05
3.4777936e-05
3.6188979e-05
3.496348e-05
3.5763501e-05
3.3862922e-05
3.4091962e-05
3.2927814e-05
3.3036839e-05
3.2586518e-05
3.2801881e-05
3.2866229e-05
3.3288937e-05
3.3737861e-05
3.4413904e-05
3.5195373e-05
3.6160995e-05
3.7275618e-05
3.8577697e-05
4.0070047e-05
4.1783517e-05
4.3741553e-05
4.5981664e-05
4.8545247e-05
5.1485745e-05
5.4867795e-05
5.8771437e-05
6.3290463e-05
6.8548938e-05
7.4698898e-05
8.1928986e-05
9.0447725e-05
0.00010049612
0.00011241543
0.00012664183
0.00014367237
0.00016411434
0.00018874099
0.00021849142
0.00025451416
0.00029823319
0.00035139023
0.00041612003
0.00049504153
0.00059134766
0.00070893228
0.00085252874
0.001027918
0.0012175631
0.0012179595
0.0012174231
0.0012164054
0.0012151904
0.0012138171
0.0012122309
0.0012102881
0.0012077261
0.0012045343
0.0012008075
0.0011968777
0.0011931503
0.0011898458
0.0011869286
0.0011843792
0.0011821449
0.001180305
0.0011786385
0.001177552
0.0011760566
0.0011763661
0.0011745074
0.0011786499
0.0011720663
0.0011781695
2.9956866e-06
2.2974361e-05
2.1901417e-05
2.9000009e-05
2.5140487e-05
2.9821839e-05
3.0232117e-05
3.1215744e-05
3.3208019e-05
3.1180251e-05
3.2260507e-05
3.0179306e-05
3.0546905e-05
2.9408117e-05
2.9571717e-05
2.9158602e-05
2.9383878e-05
2.9457253e-05
2.9858639e-05
3.0282114e-05
3.0908436e-05
3.1631187e-05
3.2518585e-05
3.3542164e-05
3.4735059e-05
3.6101837e-05
3.7669861e-05
3.9461485e-05
4.1510734e-05
4.3855733e-05
4.6545188e-05
4.9638013e-05
5.3207075e-05
5.7341722e-05
6.2151097e-05
6.7767326e-05
7.4360101e-05
8.2145887e-05
9.1362287e-05
0.00010227923
0.00011528447
0.00013086458
0.00014957093
0.00017209447
0.0001993024
0.00023223974
0.00027219749
0.00032076369
0.00037987461
0.00045190785
0.00053976313
0.00064697614
0.00077785071
0.00093762745
0.0011327336
0.0012172689
0.0012167823
0.0012157423
0.0012144959
0.0012131045
0.0012115323
0.0012097065
0.0012074333
0.0012044692
0.0012008709
0.0011969686
0.0011932177
0.0011898892
0.0011869571
0.0011843881
0.0011821499
0.0011802762
0.0011786446
0.0011774647
0.0011761061
0.0011761251
0.0011745054
0.0011780093
0.0011721371
0.0011778281
2.6782577e-06
2.2631169e-05
2.0385881e-05
2.6592951e-05
2.3417121e-05
2.7021828e-05
2.8167167e-05
2.7972154e-05
3.0363289e-05
2.7730742e-05
2.896441e-05
2.687024e-05
2.7297283e-05
2.6233007e-05
2.641769e-05
2.6058172e-05
2.6281222e-05
2.6369532e-05
2.6748029e-05
2.7151281e-05
2.7732812e-05
2.8404988e-05
2.9224118e-05
3.0168981e-05
3.1267315e-05
3.2525504e-05
3.3967751e-05
3.5615468e-05
3.7499704e-05
3.9655875e-05
4.2128701e-05
4.4972565e-05
4.8254707e-05
5.2056937e-05
5.6480077e-05
6.1648654e-05
6.7711993e-05
7.4859796e-05
8.3337955e-05
9.341205e-05
0.00010539918
0.00011974101
0.00013697939
0.00015773565
0.000182804
0.00021315604
0.00024997077
0.00029470928
0.00034914993
0.00041547201
0.00049633854
0.00059499405
0.00071539382
0.00086234953
0.0010417524
0.0012165972
0.0012161738
0.0012151092
0.001213824
0.001212403
0.0012108181
0.0012090213
0.0012069131
0.0012042292
0.0012008064
0.0011969636
0.0011932065
0.0011898685
0.0011869325
0.0011843574
0.0011821193
0.0011802284
0.0011786214
0.0011773828
0.0011761346
0.0011758924
0.0011745181
0.001177414
0.0011722082
0.0011773821
2.4130808e-06
2.2166182e-05
1.9108536e-05
2.4344986e-05
2.1832089e-05
2.4434204e-05
2.621521e-05
2.499533e-05
2.7618689e-05
2.4651594e-05
2.5905742e-05
2.390325e-05
2.4329574e-05
2.3376281e-05
2.3558669e-05
2.3263489e-05
2.347768e-05
2.358524e-05
2.3942367e-05
2.4330641e-05
2.487396e-05
2.55041e-05
2.6265619e-05
2.7144197e-05
2.816271e-05
2.932916e-05
3.0665078e-05
3.2191097e-05
3.3935838e-05
3.5932472e-05
3.8222439e-05
4.0856354e-05
4.389675e-05
4.7419908e-05
5.151957e-05
5.6310807e-05
6.1935995e-05
6.8566913e-05
7.642088e-05
8.57741e-05
9.6922828e-05
0.00011025309
0.00012627222
0.00014557879
0.00016889263
0.00019712664
0.0002313758
0.00027299358
0.00032363498
0.00038531925
0.00046051873
0.00055224429
0.00066416875
0.00080076111
0.00096748244
0.0011710165
0.0012155894
0.0012145004
0.0012131708
0.0012117133
0.0012101037
0.0012083044
0.0012062492
0.0012037991
0.0012006055
0.0011968592
0.0011931147
0.0011897818
0.0011868542
0.0011842856
0.0011820543
0.0011801597
0.0011785717
0.0011773004
0.0011761419
0.0011756948
0.0011745349
0.0011768835
0.0011723094
0.0011770918
2.1902734e-06
2.019454e-05
1.8007363e-05
2.2227105e-05
2.0374222e-05
2.2022449e-05
2.4354223e-05
2.2265017e-05
2.4959205e-05
2.1897378e-05
2.3076622e-05
2.1238513e-05
2.162452e-05
2.080158e-05
2.0967671e-05
2.0739944e-05
2.0942371e-05
2.1070262e-05
2.1408413e-05
2.1785158e-05
2.2296127e-05
2.2890923e-05
2.3603709e-05
2.4426059e-05
2.5376827e-05
2.6465245e-05
2.7710699e-05
2.913313e-05
3.0759156e-05
3.2620111e-05
3.475471e-05
3.7210393e-05
4.0045862e-05
4.33326e-05
4.7158551e-05
5.1631935e-05
5.6885811e-05
6.3083737e-05
7.0423888e-05
7.9164491e-05
8.9604098e-05
0.00010209758
0.00011710041
0.00013519825
0.0001570599
0.00018353746
0.00021566572
0.00025470784
0.00030221843
0.00036008804
0.00043063256
0.00051667327
0.00062165176
0.00074975879
0.000906108
0.001096958
0.0012150166
0.0012139067
0.0012125288
0.0012110304
0.0012093897
0.0012075749
0.0012055346
0.0012031719
0.0012002612
0.0011966536
0.0011929417
0.0011896286
0.0011867221
0.0011841723
0.0011819561
0.0011800692
0.0011784978
0.0011772148
0.0011761275
0.0011755254
0.0011745539
0.0011763693
0.0011724079
0.0011768118
1.9917333e-06
1.7969277e-05
1.6872063e-05
2.0208159e-05
1.904982e-05
1.9768401e-05
2.2576453e-05
1.9831266e-05
2.2405868e-05
1.9441759e-05
2.0483511e-05
1.8852549e-05
1.9175066e-05
1.8487346e-05
1.863028e-05
1.846742e-05
1.8657814e-05
1.8805083e-05
1.9127291e-05
1.9494977e-05
1.9979155e-05
2.0544449e-05
2.1216548e-05
2.1991704e-05
2.2885577e-05
2.3908357e-05
2.5077717e-05
2.6412955e-05
2.7939111e-05
2.9685965e-05
3.1690077e-05
3.3996187e-05
3.6659899e-05
3.9748822e-05
4.3346098e-05
4.7554277e-05
5.2499352e-05
5.8335808e-05
6.5254642e-05
7.3492334e-05
8.3338678e-05
9.5134688e-05
0.00010931146
0.00012640927
0.00014707908
0.0001721162
0.00020250714
0.00023944385
0.00028439728
0.00033915492
0.00040590447
0.00048731278
0.00058663239
0.00070782615
0.0008557255
0.0010362397
0.0012144429
0.0012133195
0.0012118908
0.0012103487
0.0012086733
0.0012068366
0.001204797
0.0012024845
0.001199765
0.0011963466
0.0011926882
0.0011894095
0.001186537
0.001184018
0.0011818265
0.0011799571
0.0011784027
0.0011771243
0.0011760925
0.0011753821
0.0011745728
0.0011758999
0.0011725141
0.0011765894
1.8087645e-06
1.7362664e-05
1.5631742e-05
1.8292713e-05
1.7834558e-05
1.7688156e-05
2.0831171e-05
1.7664303e-05
2.0002356e-05
1.7248566e-05
1.8115001e-05
1.6712381e-05
1.6961715e-05
1.640504e-05
1.6523951e-05
1.6420537e-05
1.6600921e-05
1.6765827e-05
1.7075663e-05
1.7436378e-05
1.7898927e-05
1.8439911e-05
1.9078444e-05
1.9814366e-05
2.0660922e-05
2.1628894e-05
2.2734722e-05
2.3997076e-05
2.5439755e-05
2.7091267e-05
2.8986408e-05
3.116771e-05
3.3688226e-05
3.6612416e-05
4.0019592e-05
4.4007593e-05
4.86967e-05
5.4235157e-05
6.0805044e-05
6.8628944e-05
7.7987242e-05
8.9210462e-05
0.00010270696
0.00011898719
0.00013868201
0.00016254557
0.00019152051
0.00022674407
0.00026961767
0.00032184595
0.00038551216
0.00046315713
0.00055787921
0.00067345455
0.00081448585
0.00098659784
0.0011966532
0.0012127298
0.0012112491
0.0012096619
0.0012079499
0.0012060879
0.0012040403
0.0012017513
0.0011991212
0.0011959392
0.0011923565
0.0011891265
0.0011863007
0.0011838241
0.0011816675
0.0011798247
0.0011782901
0.0011770287
0.0011760395
0.0011752623
0.0011745917
0.0011754788
0.0011726254
0.001176375
1.6519602e-06
1.6708061e-05
1.4511332e-05
1.6475393e-05
1.6699267e-05
1.5814889e-05
1.9068909e-05
1.5714648e-05
1.7737971e-05
1.5274771e-05
1.5953979e-05
1.4783517e-05
1.4962205e-05
1.4527106e-05
1.462624e-05
1.4576071e-05
1.4750362e-05
1.4931472e-05
1.5232999e-05
1.5588966e-05
1.6034969e-05
1.6556595e-05
1.7168216e-05
1.7872226e-05
1.8680209e-05
1.9603258e-05
2.0656912e-05
2.1859289e-05
2.3233207e-05
2.4806168e-05
2.661156e-05
2.8690081e-05
3.1092763e-05
3.3881556e-05
3.7132673e-05
4.0940065e-05
4.5419718e-05
5.0714748e-05
5.6998042e-05
6.4488657e-05
7.3453491e-05
8.4211832e-05
9.7152627e-05
0.00011277747
0.00013168673
0.00015460766
0.00018244482
0.00021629264
0.00025749663
0.00030769447
0.00036888529
0.00044350759
0.00053453453
0.00064559003
0.00078109188
0.00094643503
0.0011482051
0.0012121287
0.0012105962
0.001208964
0.001207215
0.0012053266
0.0012032675
0.0012009923
0.0011984277
0.0011954331
0.0011919504
0.0011887826
0.0011860157
0.0011835929
0.0011814817
0.001179674
0.0011781637
0.0011769286
0.0011759717
0.0011751645
0.0011746098
0.0011751118
0.0011727529
0.001176198
1.5150524e-06
1.5991663e-05
1.3454256e-05
1.4724358e-05
1.5624155e-05
1.4117025e-05
1.726847e-05
1.3950661e-05
1.5620634e-05
1.3491972e-05
1.3991435e-05
1.3041955e-05
1.3160013e-05
1.2833247e-05
1.2919248e-05
1.2915743e-05
1.3088355e-05
1.3284395e-05
1.352865e-05
1.3873362e-05
1.4300797e-05
1.4802075e-05
1.538767e-05
1.6061271e-05
1.6832975e-05
1.7713782e-05
1.8718335e-05
1.9864062e-05
2.1172767e-05
2.2670965e-05
2.4390756e-05
2.6371019e-05
2.8660956e-05
3.1320205e-05
3.4422175e-05
3.8057355e-05
4.233789e-05
4.7402567e-05
5.3769471e-05
6.0994948e-05
6.9647859e-05
8.0035773e-05
9.2535145e-05
0.00010764264
0.00012593068
0.00014810717
0.00017504668
0.00020780891
0.00024769601
0.00029629168
0.00035552829
0.00042776201
0.00051586547
0.00062333969
0.0007544533
0.00091441665
0.0011095898
0.0012115077
0.0012099249
0.001208249
0.0012064642
0.0012045497
0.0012024778
0.0012002101
0.0011976906
0.0011948307
0.0011914755
0.0011883825
0.0011856856
0.0011833272
0.0011812718
0.0011795077
0.0011780279
0.0011768253
0.0011758936
0.0011750874
0.0011746267
0.001174806
0.0011729013
0.0011760151
1.395823e-06
1.5179663e-05
1.2464841e-05
1.3052322e-05
1.4576919e-05
1.2576321e-05
1.5470314e-05
1.2349251e-05
1.36595e-05
1.1878307e-05
1.2218627e-05
1.1469108e-05
1.1540673e-05
1.1307556e-05
1.133757e-05
1.1355971e-05
1.1520566e-05
1.1724739e-05
1.2016231e-05
1.2366809e-05
1.2791166e-05
1.3285274e-05
1.3857808e-05
1.4513864e-05
1.5262917e-05
1.611615e-05
1.7087778e-05
1.8194885e-05
1.9458668e-05
2.0905045e-05
2.2565411e-05
2.4477283e-05
2.668872e-05
2.9257863e-05
3.2256249e-05
3.5771972e-05
3.9914455e-05
4.4820629e-05
5.0653589e-05
5.76189e-05
6.596696e-05
7.5995337e-05
8.8756201e-05
0.00010346666
0.00012127796
0.00014288317
0.00016913582
0.00020106611
0.00023994426
0.00028731111
0.0003450469
0.00041544295
0.00050129261
0.00060599957
0.00073371408
0.00088950051
0.0010795399
0.0012108594
0.0012092288
0.0012075117
0.0012056934
0.0012037547
0.0012016707
0.0011994078
0.0011969194
0.0011941351
0.0011909386
0.0011879319
0.0011853151
0.0011830308
0.0011810409
0.0011793288
0.0011778869
0.0011767206
0.0011758102
0.0011750288
0.0011746413
0.0011745652
0.0011730698
0.0011758434
1.2921838e-06
1.4255193e-05
1.1540328e-05
1.1536773e-05
1.3527319e-05
1.1170168e-05
1.3702808e-05
1.0889959e-05
1.1862582e-05
1.041605e-05
1.06261e-05
1.0050359e-05
1.0017092e-05
9.8404233e-06
9.9099092e-06
9.9786576e-06
1.0160465e-05
1.0385983e-05
1.0685352e-05
1.1041594e-05
1.1464864e-05
1.1954344e-05
1.2517676e-05
1.3160915e-05
1.38931e-05
1.472553e-05
1.5672124e-05
1.674966e-05
1.7978854e-05
1.9385177e-05
2.0999663e-05
2.2858606e-05
2.5009323e-05
2.7508901e-05
3.0427578e-05
3.3851678e-05
3.7888127e-05
4.2672831e-05
4.8365579e-05
5.5168747e-05
6.3328262e-05
7.3136561e-05
8.4962779e-05
9.9270535e-05
0.00011660989
0.0001387956
0.00016454759
0.00019586911
0.00023400838
0.00028047363
0.00033710544
0.00040614567
0.00049032683
0.00059297785
0.00071815776
0.00087081862
0.0010570041
0.0012101771
0.0012085024
0.0012067477
0.0012048992
0.0012029394
0.0012008457
0.0011985887
0.0011961291
0.001193411
0.0011903482
0.0011874377
0.0011849097
0.0011827079
0.0011807923
0.0011791404
0.0011777446
0.0011766172
0.0011757267
0.0011749864
0.0011746528
0.0011743858
0.001173249
0.0011757088
1.20217e-06
1.3204984e-05
1.0674874e-05
1.0163617e-05
1.244018e-05
9.8861398e-06
1.1990446e-05
9.5600922e-06
1.0236262e-05
9.0927298e-06
9.1205614e-06
8.6519824e-06
8.6572953e-06
8.5691467e-06
8.6607974e-06
8.7701373e-06
8.9683913e-06
9.2120273e-06
9.5197232e-06
9.8819485e-06
1.030618e-05
1.0793645e-05
1.1351436e-05
1.1986311e-05
1.270697e-05
1.3524794e-05
1.4453509e-05
1.550965e-05
1.6713525e-05
1.8090254e-05
1.9598457e-05
2.140371e-05
2.3492629e-05
2.592123e-05
2.8758521e-05
3.2089257e-05
3.6221389e-05
4.0918557e-05
4.6510834e-05
5.3198765e-05
6.1226896e-05
7.0880213e-05
8.2525337e-05
9.6620464e-05
0.00011371345
0.00013446957
0.00015970262
0.00019205062
0.00022968885
0.00027554067
0.00033141771
0.00039952603
0.00048255359
0.00058377448
0.00070718042
0.00085764146
0.0010411013
0.0012094556
0.0012077416
0.0012059537
0.0012040793
0.0012021022
0.0012000022
0.0011977533
0.0011953221
0.0011926637
0.0011897136
0.001186908
0.0011844757
0.0011823633
0.0011805291
0.0011789455
0.001177604
0.0011765174
0.0011756478
0.0011749572
0.0011746598
0.0011742595
0.0011734287
0.0011756104
1.1245052e-06
1.2031482e-05
9.8599465e-06
8.9177997e-06
1.1297069e-05
8.7109137e-06
1.0360152e-05
8.3474056e-06
8.7807217e-06
7.7660858e-06
7.7664587e-06
7.4538168e-06
7.4769115e-06
7.4588429e-06
7.5724058e-06
7.714826e-06
7.9290561e-06
8.1886469e-06
8.5052738e-06
8.8741824e-06
9.3014231e-06
9.7894753e-06
1.0345156e-05
1.0952119e-05
1.1659799e-05
1.2461837e-05
1.337154e-05
1.4404984e-05
1.5581867e-05
1.6926543e-05
1.846876e-05
2.0245103e-05
2.230065e-05
2.4691074e-05
2.7485032e-05
3.0767268e-05
3.464296e-05
3.9241568e-05
4.4720795e-05
5.1280356e-05
5.9163789e-05
6.9165557e-05
8.0699137e-05
9.4666853e-05
0.00011161137
0.00013219271
0.00015721824
0.00018767435
0.00022680653
0.00027229848
0.00032772801
0.00039527744
0.00047760466
0.00057794661
0.00070024902
0.00084932702
0.0010310579
0.0012086916
0.0012069435
0.0012051276
0.0012032321
0.0012012424
0.0011991403
0.0011969028
0.0011945011
0.0011918982
0.0011890452
0.0011863514
0.0011840203
0.0011820018
0.0011802542
0.001178746
0.0011774669
0.0011764235
0.0011755775
0.001174939
0.0011746602
0.0011741754
0.0011736043
0.0011755435
1.0587001e-06
1.0746e-05
9.0887723e-06
7.785152e-06
1.011878e-05
7.632303e-06
8.8387033e-06
7.184144e-06
7.3105883e-06
6.6098314e-06
6.6036902e-06
6.4135465e-06
6.4571583e-06
6.494327e-06
6.6295327e-06
6.7993812e-06
7.0291901e-06
7.3033846e-06
7.6296387e-06
8.0061658e-06
8.4212901e-06
8.9075638e-06
9.4595294e-06
1.0084111e-05
1.0790205e-05
1.1588558e-05
1.2492475e-05
1.3517969e-05
1.4684525e-05
1.6016402e-05
1.7543205e-05
1.9301378e-05
2.1335911e-05
2.3702385e-05
2.6469362e-05
2.9721619e-05
3.3564485e-05
3.8126698e-05
4.3565398e-05
5.0082929e-05
5.7924046e-05
6.7358944e-05
7.8746897e-05
9.2553722e-05
0.00011021795
0.00013073111
0.00015567409
0.00018603343
0.00022300317
0.00027055007
0.0003258007
0.00039311748
0.00047514137
0.00057508786
0.00069687558
0.00084528865
0.0010261683
0.0012078833
0.0012061073
0.001204269
0.0012023578
0.0012003604
0.0011982609
0.0011960388
0.0011936691
0.0011911203
0.0011883536
0.0011857768
0.0011835507
0.0011816289
0.0011799707
0.0011785431
0.0011773331
0.0011763366
0.0011755195
0.0011749298
0.0011746519
0.0011741237
0.001173768
0.0011754938
1.0049106e-06
9.3623929e-06
8.353967e-06
6.7553518e-06
8.8963658e-06
6.6421871e-06
7.461787e-06
6.030551e-06
6.0917945e-06
5.614681e-06
5.6099215e-06
5.5142571e-06
5.5811309e-06
5.662041e-06
5.8184335e-06
6.0117258e-06
6.2568261e-06
6.5449248e-06
6.8661371e-06
7.2475147e-06
7.6827321e-06
8.1758442e-06
8.7328484e-06
9.3609299e-06
1.0069048e-05
1.086795e-05
1.1770956e-05
1.2794119e-05
1.3956696e-05
1.5282979e-05
1.6802561e-05
1.855193e-05
2.057621e-05
2.2931165e-05
2.5685607e-05
2.8924919e-05
3.2754953e-05
3.7303923e-05
4.2729985e-05
4.9239295e-05
5.7073955e-05
6.6496811e-05
7.7878555e-05
9.1693097e-05
0.00010846772
0.00012884874
0.00015495616
0.00018534838
0.00022235797
0.00026743378
0.00032540611
0.00039277109
0.000474834
0.00057480327
0.0006965863
0.00084495779
0.001025749
0.0012070311
0.0012052336
0.001203379
0.0012014576
0.0011994579
0.0011973656
0.0011951634
0.0011928291
0.0011903354
0.0011876493
0.0011851931
0.0011830743
0.0011812499
0.0011796814
0.0011783369
0.0011772004
0.0011762556
0.0011754747
0.0011749287
0.0011746387
0.0011741011
0.0011739234
0.0011754434
9.6478392e-07
7.8941225e-06
7.6300932e-06
5.8171831e-06
7.6455094e-06
5.7069794e-06
6.7432212e-06
5.0780706e-06
5.0515744e-06
4.7563791e-06
4.7661847e-06
4.7414037e-06
4.8334828e-06
4.9501181e-06
5.1270454e-06
5.3411678e-06
5.5882906e-06
5.8867278e-06
6.2316998e-06
6.624604e-06
7.0695125e-06
7.5710306e-06
8.1352832e-06
8.7696103e-06
9.483043e-06
1.0286258e-05
1.1192608e-05
1.2193846e-05
1.3350507e-05
1.4668341e-05
1.6176708e-05
1.7911928e-05
1.9919038e-05
2.2253728e-05
2.4984919e-05
2.8198481e-05
3.2000298e-05
3.6518035e-05
4.1912246e-05
4.8707139e-05
5.6563944e-05
6.6009453e-05
7.7433939e-05
9.1311078e-05
0.00010816022
0.00012863656
0.00015354246
0.00018548001
0.00022265985
0.00026794065
0.0003230841
0.00039395439
0.00047634202
0.00057668533
0.0006988928
0.00084774829
0.0010290959
0.0012061375
0.0012043251
0.0012024604
0.0012005346
0.0011985376
0.0011964574
0.0011942791
0.0011919842
0.0011895486
0.0011869421
0.0011846086
0.001182598
0.0011808703
0.0011793899
0.0011781276
0.0011770652
0.0011761763
0.0011754398
0.0011749334
0.0011746241
0.0011741001
0.0011740676
0.0011753811
9.431945e-07
6.5022888e-06
6.8927196e-06
4.9669451e-06
6.6230103e-06
5.3188826e-06
4.8903945e-06
4.2126043e-06
4.1983332e-06
4.0167943e-06
4.054217e-06
4.0849513e-06
4.2021609e-06
4.3491506e-06
4.5358444e-06
4.7651972e-06
5.0378455e-06
5.3517687e-06
5.7098324e-06
6.1145347e-06
6.5701285e-06
7.0815761e-06
7.6550975e-06
8.2980952e-06
9.0078338e-06
9.8145379e-06
1.0722769e-05
1.1748305e-05
1.2910524e-05
1.4233312e-05
1.5746221e-05
1.7485897e-05
1.949782e-05
2.1838232e-05
2.4577013e-05
2.7801392e-05
3.1617943e-05
3.6155531e-05
4.1580499e-05
4.810232e-05
5.5940218e-05
6.5840889e-05
7.7348518e-05
9.1330423e-05
0.00010830573
0.00012893882
0.00015403475
0.00018457702
0.00022373211
0.00026934481
0.00032487959
0.00039250367
0.00047929916
0.0005802955
0.00070326901
0.00085302818
0.0010354492
0.0012052072
0.0012033867
0.0012015182
0.0011995937
0.0011976044
0.0011955403
0.0011933893
0.0011911367
0.0011887632
0.0011862411
0.0011840304
0.0011821276
0.001180495
0.0011790996
0.001177916
0.0011769243
0.0011760924
0.0011754076
0.00117494
0.0011746098
0.0011741068
0.0011741846
0.001175297
9.4308713e-07
6.0252996e-06
6.1997509e-06
5.3875571e-06
6.2013886e-06
3.9098438e-06
3.9472023e-06
3.4883307e-06
3.4892362e-06
3.4000436e-06
3.4622174e-06
3.5383928e-06
3.6786506e-06
3.8414151e-06
4.0530734e-06
4.3019983e-06
4.5904826e-06
4.9187098e-06
5.2896675e-06
5.70655e-06
6.1737733e-06
6.6965135e-06
7.2742658e-06
7.9254313e-06
8.6542054e-06
9.4711831e-06
1.0389261e-05
1.1424237e-05
1.2595563e-05
1.3927282e-05
1.5449237e-05
1.719852e-05
1.9221137e-05
2.1574065e-05
2.4328513e-05
2.7573083e-05
3.1414553e-05
3.5983942e-05
4.145468e-05
4.8034927e-05
5.5934908e-05
6.544078e-05
7.7546016e-05
9.1664263e-05
0.00010880535
0.00012964109
0.00015498088
0.0001858156
0.00022537881
0.00027141383
0.00032744845
0.00039566324
0.00048329565
0.00058514188
0.00070912442
0.00086008737
0.0010439534
0.0012042468
0.0012024249
0.0012005588
0.0011986414
0.0011966647
0.0011946201
0.001192498
0.0011902879
0.0011879779
0.0011855539
0.0011834641
0.0011816673
0.0011801274
0.0011788138
0.0011777037
0.0011767761
0.0011759982
0.0011753679
0.0011749385
0.0011745902
0.0011741097
0.0011742701
0.0011751845
9.6335273e-07
6.2093049e-06
5.5165726e-06
5.2549786e-06
4.8853909e-06
3.1445159e-06
3.1944435e-06
2.8916241e-06
2.9065548e-06
2.8917638e-06
2.9781376e-06
3.0907237e-06
3.2438889e-06
3.4356383e-06
3.6660534e-06
3.9317219e-06
4.2347223e-06
4.5765719e-06
4.9604554e-06
5.389981e-06
5.8696735e-06
6.4001668e-06
6.995163e-06
7.6588325e-06
8.3999128e-06
9.2289654e-06
1.015887e-05
1.120546e-05
1.2388294e-05
1.3731641e-05
1.5265708e-05
1.7028093e-05
1.9065392e-05
2.1435598e-05
2.4211491e-05
2.7482451e-05
3.1355227e-05
3.5966043e-05
4.1496495e-05
4.8144928e-05
5.611133e-05
6.6192905e-05
7.7945242e-05
9.2220758e-05
0.0001095512
0.00013061594
0.00015623098
0.00018739513
0.00022737481
0.00027387946
0.00033047201
0.00039934917
0.00048785729
0.00059065545
0.000715775
0.00086810264
0.0010536162
0.0012032641
0.0012014475
0.0011995903
0.0011976858
0.0011957269
0.0011937055
0.0011916134
0.0011894412
0.0011871786
0.0011848866
0.0011829135
0.0011812191
0.0011797688
0.0011785336
0.0011774923
0.0011766217
0.0011758924
0.0011753117
0.0011749118
0.0011745509
0.0011741086
0.0011743197
0.0011750343
7.8653195e-07
6.650078e-06
4.7203277e-06
3.0519842e-06
3.241927e-06
2.588945e-06
2.5617696e-06
2.4118169e-06
2.4387434e-06
2.4800011e-06
2.5900447e-06
2.7253609e-06
2.9038711e-06
3.1157619e-06
3.3623547e-06
3.6428727e-06
3.9595466e-06
4.3146617e-06
4.7115605e-06
5.1540659e-06
5.6441429e-06
6.1911165e-06
6.799428e-06
7.4763394e-06
8.2305355e-06
9.0725391e-06
1.0015226e-05
1.1074478e-05
1.2269996e-05
1.3626324e-05
1.5174083e-05
1.6951365e-05
1.9005479e-05
2.1395735e-05
2.4196233e-05
2.7496118e-05
3.1403534e-05
3.606383e-05
4.1661503e-05
4.8372029e-05
5.6789983e-05
6.6571949e-05
7.8465952e-05
9.2899397e-05
0.00011042265
0.00013171822
0.00015761187
0.00018910856
0.0002294632
0.00027643453
0.00033358241
0.00040312047
0.00049243991
0.0005961825
0.00072243416
0.00087612597
0.0010632931
0.0012022685
0.0012004637
0.0011986216
0.0011967361
0.0011948007
0.0011928083
0.0011907514
0.0011886218
0.0011864107
0.0011842436
0.0011823806
0.0011807833
0.0011794179
0.0011782575
0.0011772804
0.001176462
0.0011757774
0.0011752387
0.0011748559
0.001174487
0.0011740932
0.0011743076
0.001174834
6.077093e-07
3.8853284e-06
3.5682334e-06
2.5380206e-06
2.4973973e-06
2.1027472e-06
2.0743643e-06
2.0147133e-06
2.0687683e-06
2.1509069e-06
2.2845675e-06
2.4440166e-06
2.6416875e-06
2.8704325e-06
3.1315621e-06
3.4258183e-06
3.7556573e-06
4.1237878e-06
4.5336377e-06
4.9891079e-06
5.4947483e-06
6.0534275e-06
6.6749993e-06
7.365086e-06
8.1323258e-06
8.9872131e-06
9.9426382e-06
1.1014554e-05
1.2222826e-05
1.3592281e-05
1.5153929e-05
1.6946355e-05
1.9017753e-05
2.1428814e-05
2.4254111e-05
2.7582247e-05
3.152588e-05
3.6434135e-05
4.2133943e-05
4.894222e-05
5.7101165e-05
6.6992997e-05
7.9012518e-05
9.3587808e-05
0.00011128669
0.00013279025
0.00015893486
0.00019240358
0.00023135795
0.00027873486
0.00033636484
0.00040647705
0.00049642121
0.0006009724
0.00072819572
0.0008830619
0.0010716572
0.0012012704
0.0011994832
0.0011976619
0.001195801
0.0011938944
0.001191936
0.0011899192
0.0011878366
0.0011856807
0.0011836281
0.0011818665
0.0011803585
0.001179072
0.0011779809
0.0011770632
0.0011762935
0.0011756522
0.0011751508
0.0011747799
0.001174413
0.0011740705
0.0011742547
0.001174609
4.7760236e-07
2.522285e-06
2.7765048e-06
1.9992568e-06
1.935267e-06
1.708595e-06
1.7007034e-06
1.703377e-06
1.784682e-06
1.8985338e-06
2.0527658e-06
2.2333991e-06
2.4469155e-06
2.6900139e-06
2.9642175e-06
3.2711252e-06
3.6133287e-06
3.9937368e-06
4.4157902e-06
4.8833928e-06
5.4010452e-06
5.9739516e-06
6.6082105e-06
7.3110608e-06
8.0912142e-06
8.9592876e-06
9.9283502e-06
1.1014618e-05
1.2238331e-05
1.3624814e-05
1.5205647e-05
1.7020171e-05
1.911791e-05
2.1560873e-05
2.4423442e-05
2.7795561e-05
3.1798801e-05
3.6590505e-05
4.2322295e-05
4.9152e-05
5.7364368e-05
6.7343401e-05
7.9456159e-05
9.4141127e-05
0.00011196935
0.00013475165
0.00016126783
0.00019349672
0.00023268012
0.00028032695
0.00033827537
0.00041262458
0.00049899528
0.0006040601
0.00073190324
0.00088752296
0.0010770417
0.0012002804
0.0011985163
0.0011967209
0.0011948893
0.0011930162
0.0011910961
0.0011891231
0.0011870909
0.0011849931
0.0011830424
0.0011813711
0.0011799429
0.001178727
0.0011776982
0.0011768337
0.0011761089
0.0011755084
0.00117504
0.00117468
0.0011743265
0.0011740378
0.0011741829
0.0011743953
3.7917601e-07
1.9723955e-06
2.0788864e-06
1.587527e-06
1.5171687e-06
1.4008273e-06
1.415802e-06
1.4642291e-06
1.5696237e-06
1.7076375e-06
1.8785971e-06
2.0761449e-06
2.3023349e-06
2.5571739e-06
2.8423722e-06
3.1599526e-06
3.5125581e-06
3.9031782e-06
4.3352406e-06
4.8126309e-06
5.3398113e-06
5.9219455e-06
6.5650852e-06
7.27642e-06
8.0646133e-06
8.9402384e-06
9.9163353e-06
1.100913e-05
1.2238933e-05
1.3631138e-05
1.5217392e-05
1.7037438e-05
1.9141556e-05
2.1591409e-05
2.4460101e-05
2.784162e-05
3.1865671e-05
3.6678428e-05
4.2405223e-05
4.9232131e-05
5.7485525e-05
6.8011023e-05
8.025628e-05
9.5097533e-05
0.00011310527
0.00013497014
0.00016153278
0.00019381479
0.00023305894
0.00028077351
0.00034188572
0.00041295405
0.00049938131
0.00060451445
0.00073244355
0.00088817571
0.0010778456
0.0011993114
0.0011975748
0.0011958097
0.0011940115
0.0011921754
0.0011902966
0.0011883699
0.0011863901
0.0011843515
0.0011824877
0.0011808933
0.0011795333
0.001178378
0.0011774026
0.0011765839
0.0011758986
0.0011753346
0.0011748936
0.001174544
0.0011742111
0.0011739685
0.001174066
0.0011741552
2.7023298e-07
1.5301913e-06
1.5337785e-06
1.2782464e-06
1.2095498e-06
1.1677531e-06
1.2085629e-06
1.292672e-06
1.4204047e-06
1.5785348e-06
1.764735e-06
1.976779e-06
2.2154101e-06
2.4817789e-06
2.777851e-06
3.105545e-06
3.468215e-06
3.8686348e-06
4.3102179e-06
4.7968543e-06
5.3329953e-06
5.9237769e-06
6.5752196e-06
7.2944661e-06
8.0901276e-06
8.9727206e-06
9.9552413e-06
1.1053901e-05
1.2288999e-05
1.3685873e-05
1.5276243e-05
1.7100318e-05
1.9208407e-05
2.1660429e-05
2.4619464e-05
2.8029694e-05
3.2093015e-05
3.6930252e-05
4.2663816e-05
4.9530345e-05
5.7860563e-05
6.7957468e-05
8.0174232e-05
9.4982987e-05
0.00011294491
0.00013475042
0.00016123389
0.00019513787
0.00023453287
0.00028240742
0.00034059948
0.00041134855
0.00049738552
0.00060204412
0.00072939951
0.00088444139
0.0010732847
0.0011983716
0.0011966666
0.0011949353
0.0011931735
0.0011913772
0.0011895418
0.001187663
0.001185736
0.001183756
0.0011819621
0.0011804296
0.0011791244
0.0011780177
0.0011770849
0.0011763029
0.0011756502
0.001175116
0.0011746959
0.0011743562
0.0011740467
0.0011738401
0.0011738889
0.0011738864
2.5483716e-07
1.2425481e-06
1.1150889e-06
1.0322394e-06
9.9110398e-07
9.9611843e-07
1.0593365e-06
1.1667035e-06
1.3086231e-06
1.4777501e-06
1.671536e-06
1.889576e-06
2.1328244e-06
2.4028768e-06
2.7018085e-06
3.0320686e-06
3.3964296e-06
3.7978874e-06
4.2394578e-06
4.7251137e-06
5.2593081e-06
5.8471739e-06
6.4946996e-06
7.2089871e-06
7.9985869e-06
8.8739412e-06
9.8479656e-06
1.0936775e-05
1.2160502e-05
1.354428e-05
1.511982e-05
1.6927253e-05
1.9015429e-05
2.1442411e-05
2.4284844e-05
2.7649202e-05
3.165036e-05
3.6383698e-05
4.2001022e-05
4.8774342e-05
5.6990347e-05
6.6923798e-05
7.9552866e-05
9.4230504e-05
0.00011202964
0.00013363178
0.00015986393
0.00019173221
0.00023046026
0.00027753758
0.00033477834
0.00040439425
0.00048908377
0.00059214265
0.00071760153
0.00087039753
0.0010565833
0.0011974725
0.001195804
0.0011941108
0.0011923892
0.0011906354
0.0011888458
0.0011870164
0.0011851432
0.0011832223
0.0011814768
0.0011799873
0.0011787204
0.0011776475
0.001176744
0.0011759868
0.0011753565
0.001174842
0.0011744338
0.0011741006
0.0011738123