/*--------------------------------*- C++ -*----------------------------------*\
  =========                 |
  \\      /  F ield         | OpenFOAM: The Open Source CFD Toolbox
   \\    /   O peration     | Website:  https://openfoam.org
    \\  /    A nd           | Version:  6
     \\/     M anipulation  |
\*---------------------------------------------------------------------------*/
FoamFile
{
    version     2.0;
    format      ascii;
    class       volScalarField;
    location    "250";
    object      k;
}
// * * * * * * * * * * * * * * * * * * * * * * * * * * * * * * * * * * * * * //

dimensions      [0 2 -2 0 0 0 0];

internalField   nonuniform List<scalar> 
16000
(
0.11244214
0.031449689
0.022558284
0.017464417
0.015279252
0.01416298
0.013238034
0.012839469
0.012402872
0.012164605
0.011921838
0.011748106
0.011591
0.011461502
0.011355487
0.01126856
0.011195899
0.011134796
0.011082784
0.01103821
0.010999695
0.010966209
0.010936907
0.010911128
0.010888334
0.010868088
0.010850028
0.010833853
0.010819312
0.010806191
0.010794305
0.010783492
0.010773585
0.010764501
0.010756106
0.010748324
0.010741076
0.010734271
0.01072782
0.010721646
0.010715666
0.010709797
0.010703964
0.010698099
0.010692136
0.010686007
0.010679641
0.010672965
0.010665909
0.010658397
0.010650354
0.010641698
0.010632342
0.010622188
0.010611119
0.010598973
0.010585519
0.010570414
0.010553005
0.010531493
0.010502961
0.010467048
0.010423297
0.010372162
0.010316027
0.01025971
0.010208004
0.010163028
0.010124088
0.01009122
0.010063306
0.010042336
0.010023635
0.010015144
0.010002086
0.010017312
0.010009258
0.010069333
0.010010869
0.010071175
0.096703067
0.031968217
0.021978108
0.017312617
0.015063509
0.014066125
0.013122014
0.01275747
0.012318153
0.012087596
0.011847784
0.011675045
0.01152205
0.011401251
0.011302289
0.011221186
0.011153391
0.011096404
0.011047907
0.011006358
0.010970466
0.010939266
0.010911967
0.010887949
0.010866707
0.010847831
0.010830979
0.010815872
0.01080227
0.010789972
0.010778806
0.010768625
0.010759299
0.010750704
0.010742708
0.010735247
0.010728219
0.010721585
0.010715256
0.010709156
0.010703206
0.010697328
0.010691451
0.010685509
0.010679443
0.010673189
0.01066668
0.010659848
0.010652626
0.010644942
0.010636724
0.010627894
0.010618369
0.010608054
0.01059684
0.010584586
0.010571093
0.010556095
0.010539213
0.010519744
0.010495789
0.010463886
0.010423453
0.010374648
0.010319473
0.010262947
0.010210573
0.010164987
0.010125647
0.010092249
0.01006419
0.010042461
0.01002423
0.010014704
0.01000204
0.010012881
0.010006075
0.010063798
0.010011266
0.010071136
0.084674408
0.032480693
0.021341144
0.017138962
0.014841483
0.013955461
0.013002565
0.012666858
0.01223111
0.012004866
0.011771583
0.011599503
0.011457
0.01134456
0.011252409
0.01117692
0.011113827
0.011060814
0.011015713
0.010977085
0.010943723
0.010914728
0.010889359
0.010867035
0.010847282
0.010829716
0.010814018
0.010799924
0.010787209
0.010775683
0.010765185
0.010755576
0.010746734
0.010738548
0.010730921
0.010723745
0.010716932
0.010710407
0.010704136
0.010698055
0.010692079
0.010686137
0.010680157
0.010674081
0.010667853
0.010661415
0.010654704
0.010647657
0.010640209
0.010632295
0.010623844
0.010614783
0.01060503
0.010594497
0.010583078
0.010570646
0.010557023
0.010541971
0.010525188
0.010506239
0.010484281
0.010457103
0.01042068
0.010374892
0.010321264
0.010264926
0.010212111
0.010166129
0.010126514
0.010092825
0.010064634
0.010042491
0.010024533
0.010014021
0.010002371
0.010010394
0.0100044
0.010058322
0.010009853
0.010065132
0.076178719
0.032843405
0.020697693
0.016943471
0.014618406
0.013828973
0.012882623
0.012565669
0.012142616
0.011915068
0.011693003
0.011528156
0.011395766
0.011291336
0.01120575
0.01113566
0.011077097
0.011027909
0.010986078
0.010950259
0.01091933
0.010892451
0.01086893
0.010848225
0.010829891
0.01081357
0.010798962
0.010785819
0.010773931
0.010763119
0.01075323
0.010744135
0.010735717
0.010727876
0.010720519
0.010713561
0.010706919
0.01070049
0.010694221
0.010688096
0.010682042
0.010675979
0.010669843
0.010663578
0.010657136
0.010650461
0.010643497
0.010636184
0.010628463
0.010620269
0.010611537
0.010602197
0.010592171
0.010581373
0.010569703
0.010557041
0.010543227
0.010528042
0.010511215
0.010492399
0.010471042
0.010446027
0.010414381
0.010372394
0.010320999
0.01026532
0.010212349
0.010166198
0.010126499
0.010092704
0.010064495
0.010042128
0.010024484
0.010013254
0.010002706
0.010008191
0.010003202
0.01005108
0.01000952
0.010061429
0.068705144
0.032959572
0.020059913
0.01672474
0.014395934
0.013686026
0.012762784
0.012453511
0.012052813
0.011819499
0.011613837
0.011461139
0.011338473
0.011241711
0.01116244
0.011097535
0.011043331
0.010997819
0.010959131
0.01092601
0.010897415
0.010872561
0.010850806
0.010831642
0.010814654
0.010799507
0.010785921
0.010773662
0.010762535
0.01075237
0.010743026
0.010734378
0.010726319
0.010718755
0.0107116
0.010704775
0.010698207
0.010691824
0.010685535
0.010679293
0.010673094
0.010666852
0.0106605
0.010653988
0.010647274
0.010640308
0.010633037
0.010625405
0.010617358
0.010608834
0.010599773
0.010590107
0.010579761
0.010568653
0.010556687
0.010543749
0.010529692
0.010514315
0.010497364
0.010478536
0.010457397
0.010433212
0.010404462
0.010367106
0.010318691
0.01026418
0.01021134
0.010165248
0.010125659
0.010091943
0.010063831
0.010041406
0.010024061
0.010012402
0.010002877
0.010005782
0.0100024
0.01004413
0.01000919
0.010055618
0.062130117
0.032704221
0.019440645
0.0164817
0.014176014
0.013525776
0.01264382
0.012329744
0.011961607
0.011729601
0.011539654
0.011398494
0.011285154
0.011195724
0.011122513
0.01106258
0.011012559
0.010970573
0.010934896
0.010904358
0.010877992
0.010855069
0.010834991
0.010817284
0.010801562
0.010787511
0.01077487
0.010763421
0.010752979
0.010743388
0.010734512
0.010726238
0.010718464
0.010711103
0.010704074
0.010697307
0.010690735
0.010684295
0.010677924
0.010671535
0.010665112
0.010658631
0.010652004
0.010645187
0.010638146
0.010630834
0.010623205
0.010615206
0.010606786
0.010597889
0.010588455
0.010578421
0.010567715
0.010556258
0.010543959
0.010530707
0.010516365
0.010500749
0.01048362
0.010464701
0.010443618
0.010419798
0.010392236
0.010358814
0.010314224
0.010261458
0.010209051
0.01016325
0.010123968
0.010090516
0.010062625
0.010040299
0.010023244
0.010011397
0.01000279
0.010003627
0.010001734
0.010037783
0.010009204
0.01005156
0.056346113
0.031960695
0.018850966
0.016213123
0.013960275
0.013347491
0.012526238
0.012198266
0.011867528
0.011645458
0.011470519
0.011340313
0.011235895
0.011153467
0.01108606
0.011030884
0.010984868
0.010946253
0.010913455
0.010885379
0.010861133
0.01084004
0.010821543
0.010805203
0.010790658
0.010777617
0.010765835
0.01075511
0.010745269
0.010736166
0.010727676
0.01071969
0.010712117
0.010704875
0.010697891
0.0106911
0.010684443
0.010677863
0.010671306
0.010664716
0.010658013
0.010651226
0.010644265
0.010637083
0.010629659
0.010621951
0.010613914
0.010605502
0.010596667
0.010587354
0.010577509
0.01056707
0.01055597
0.01054413
0.010531464
0.010517866
0.010503206
0.010487313
0.010469965
0.010450902
0.010429791
0.010406148
0.010379198
0.010347469
0.010307532
0.010257172
0.010205508
0.010160226
0.010121449
0.010088443
0.010060907
0.01003882
0.010022059
0.01001023
0.010002404
0.010001666
0.01000109
0.01003135
0.010008964
0.010047243
0.051258762
0.030767441
0.018297248
0.015917147
0.013750254
0.013150358
0.012410044
0.012074507
0.011771443
0.011567141
0.011406491
0.011286679
0.011190775
0.011115023
0.01105316
0.011002526
0.010960333
0.01092493
0.01089487
0.010869129
0.010846888
0.010827514
0.010810495
0.01079542
0.010781953
0.010769823
0.010758804
0.010748705
0.010739368
0.010730657
0.010722454
0.010714661
0.010707194
0.010699978
0.010692948
0.010686045
0.010679216
0.010672414
0.01066559
0.010658698
0.010651685
0.01064451
0.010637155
0.010629553
0.010621695
0.010613541
0.010605053
0.010596187
0.010586898
0.010577136
0.010566847
0.010555974
0.010544449
0.010532201
0.010519142
0.010505173
0.010490169
0.010473972
0.010456374
0.01043713
0.010415939
0.010392379
0.010365822
0.010335214
0.010298528
0.010251347
0.010200747
0.010156205
0.010118129
0.010085744
0.010058705
0.010036984
0.010020539
0.010008893
0.01000171
0.0099998775
0.010000427
0.01002529
0.010008609
0.010043368
0.04678531
0.029454754
0.017771655
0.015592061
0.013547724
0.012942326
0.012293892
0.011959285
0.011682354
0.011494731
0.011347642
0.011237689
0.011149886
0.01108049
0.011023905
0.010977596
0.010939037
0.010906684
0.010879214
0.010855675
0.010835312
0.010817538
0.01080188
0.010787955
0.010775454
0.010764125
0.010753756
0.010744172
0.010735227
0.010726795
0.010718771
0.010711063
0.010703595
0.010696303
0.010689126
0.010682015
0.010674924
0.010667813
0.010660639
0.010653368
0.010645961
0.010638344
0.010630542
0.010622469
0.010614129
0.010605488
0.010596511
0.010587157
0.010577383
0.010567143
0.010556385
0.010545054
0.010533084
0.010520407
0.010506937
0.010492579
0.010477215
0.010460695
0.010442825
0.010423377
0.010402072
0.010378536
0.010352233
0.01032233
0.010287325
0.010244037
0.010194836
0.010151245
0.010114056
0.01008246
0.010056062
0.010034826
0.010018736
0.010007396
0.010000729
0.0099982356
0.0099997102
0.010019677
0.01000802
0.010039205
0.042847685
0.028254422
0.017262502
0.015237376
0.013353607
0.012747711
0.01217591
0.011852587
0.01160024
0.011428292
0.011294034
0.011193427
0.011113313
0.011049957
0.010998384
0.010956179
0.010921062
0.010891588
0.010866551
0.010845069
0.010826445
0.010810137
0.010795709
0.010782806
0.010771141
0.010760482
0.010750634
0.010741437
0.010732756
0.010724479
0.010716508
0.010708764
0.01070118
0.010693698
0.010686269
0.01067885
0.010671404
0.010663896
0.010656293
0.010648567
0.01064068
0.010632586
0.010624282
0.010615692
0.01060683
0.010597667
0.01058817
0.010578301
0.01056802
0.010557283
0.010546039
0.010534234
0.010521807
0.010508687
0.010494797
0.01048004
0.010464305
0.010447452
0.010429299
0.010409633
0.010388196
0.01036465
0.010338534
0.010309172
0.010275467
0.010235312
0.01018787
0.010145423
0.010109293
0.010078643
0.010053031
0.010032389
0.010016711
0.010005762
0.0099995046
0.0099967255
0.009998935
0.010014605
0.010007305
0.010035344
0.039374088
0.027140286
0.016774493
0.014852759
0.013166716
0.012566924
0.012053539
0.01175439
0.011525089
0.011367889
0.011245737
0.011153986
0.01108115
0.011023522
0.01097669
0.010938365
0.010906489
0.010879713
0.01085694
0.010837354
0.010820315
0.010805321
0.010791971
0.010779939
0.01076896
0.010758822
0.010749347
0.010740388
0.010731826
0.01072356
0.010715507
0.010707595
0.010699768
0.01069198
0.010684188
0.01067636
0.010668465
0.010660477
0.010652369
0.01064412
0.010635696
0.010627076
0.01061822
0.010609078
0.010599662
0.010589951
0.010579914
0.010569513
0.010558712
0.010547466
0.010535727
0.010523443
0.010510553
0.010496989
0.010482674
0.010467517
0.010451411
0.010434222
0.010415784
0.010395895
0.010374319
0.010350749
0.010324776
0.010295836
0.010263101
0.010225248
0.010179967
0.010138841
0.010103922
0.010074363
0.010049673
0.010029734
0.010014536
0.010004029
0.0099981006
0.0099953372
0.0099981031
0.010010171
0.010006494
0.010031269
0.036302855
0.026088591
0.016308401
0.014447459
0.012985458
0.012400575
0.011937503
0.011664664
0.011456902
0.011313593
0.011202838
0.01111947
0.011053502
0.011001291
0.010958924
0.010924244
0.010895394
0.010871121
0.010850423
0.010832551
0.010816918
0.010803061
0.010790614
0.010779278
0.01076881
0.010759019
0.010749745
0.010740857
0.010732251
0.01072384
0.010715554
0.010707333
0.010699134
0.010690918
0.010682654
0.010674317
0.010665886
0.010657341
0.010648663
0.010639833
0.010630827
0.010621637
0.010612196
0.010602476
0.010592489
0.010582216
0.010571628
0.01056069
0.010549365
0.01053761
0.010525379
0.010512618
0.010499269
0.010485265
0.010470532
0.010454981
0.010438509
0.010420992
0.010402274
0.010382168
0.010360456
0.010336859
0.010311012
0.010282427
0.010250417
0.010213941
0.010171273
0.010131618
0.010098042
0.0100697
0.010046057
0.010026925
0.010012287
0.010002248
0.0099965932
0.0099940644
0.0099972258
0.010006436
0.010005733
0.010027324
0.033580072
0.025073631
0.015865547
0.014078113
0.012807401
0.012248501
0.011831789
0.011583373
0.011395696
0.011265483
0.01116543
0.011089986
0.01103048
0.010983369
0.010945181
0.010913896
0.01088784
0.01086585
0.010847016
0.010830649
0.010816214
0.010803286
0.010791534
0.010780687
0.010770527
0.010760883
0.010751616
0.010742612
0.010733783
0.010725059
0.010716383
0.01070771
0.010699007
0.010690247
0.010681408
0.010672473
0.010663428
0.010654262
0.010644959
0.010635506
0.010625884
0.010616089
0.010606052
0.010595744
0.010585181
0.010574346
0.01056321
0.01055174
0.010539899
0.010527645
0.010514931
0.010501706
0.01048791
0.01047348
0.010458342
0.010442411
0.010425588
0.010407757
0.010388773
0.010368463
0.010346627
0.010323012
0.010297293
0.010269046
0.010237695
0.010202423
0.010161955
0.010123897
0.01009177
0.010064746
0.010042258
0.010024032
0.010010043
0.010000481
0.0099950631
0.0099928985
0.0099963103
0.010003362
0.010005073
0.010023993
0.031159676
0.024069289
0.015445009
0.013742623
0.012629114
0.012110297
0.011736195
0.011510513
0.011341528
0.011223659
0.011133634
0.01106566
0.011012203
0.010969863
0.010935556
0.010907393
0.010883867
0.010863906
0.010846685
0.010831575
0.010818089
0.010805844
0.010794543
0.010783945
0.010773859
0.010764137
0.010754661
0.010745339
0.0107361
0.01072689
0.010717668
0.010708403
0.010699074
0.010689665
0.010680162
0.010670557
0.01066084
0.010651006
0.010641044
0.010630944
0.010620689
0.010610277
0.010599648
0.010588754
0.010577623
0.010566238
0.01055457
0.010542585
0.010530247
0.010517513
0.010504337
0.010490668
0.010476447
0.010461612
0.01044609
0.0104298
0.010412648
0.010394524
0.010375295
0.0103548
0.01033286
0.010309245
0.010283667
0.010255753
0.010225019
0.010190814
0.010152196
0.010115835
0.010085234
0.010059603
0.010038351
0.010021126
0.010007871
0.009998793
0.0099935905
0.009991831
0.0099953488
0.01000083
0.010004413
0.010021184
0.02900164
0.023046698
0.015045761
0.013439328
0.012453593
0.011985562
0.011650551
0.011446083
0.011294471
0.011188231
0.011107574
0.011046613
0.010998796
0.010960878
0.010930116
0.010904761
0.010883456
0.010865222
0.010849314
0.010835161
0.01082233
0.010810478
0.010799344
0.010788722
0.010778449
0.010768403
0.010758492
0.010748643
0.010738805
0.010728943
0.010719031
0.010709051
0.010698994
0.010688851
0.010678619
0.010668293
0.010657871
0.010647346
0.010636715
0.010625965
0.010615082
0.010604068
0.010592859
0.010581398
0.010569721
0.010557811
0.010545638
0.010533167
0.01052036
0.010507175
0.010493566
0.010479482
0.010464866
0.010449654
0.010433777
0.010417157
0.010399704
0.010381315
0.010361866
0.010341214
0.010319194
0.010295603
0.010270185
0.010242613
0.010212474
0.010179236
0.010142193
0.0101076
0.010078576
0.010054379
0.010034413
0.010018266
0.010005832
0.0099972515
0.0099922575
0.0099908687
0.0099943384
0.0099987009
0.010003673
0.010018883
0.027071615
0.021974911
0.014666098
0.013166812
0.012295803
0.011873933
0.011574755
0.011390115
0.011254629
0.01115932
0.011087407
0.01103299
0.010990365
0.010956468
0.010928863
0.010905942
0.010886489
0.010869617
0.010854661
0.010841111
0.010828588
0.010816794
0.010805508
0.01079456
0.010783822
0.0107732
0.010762625
0.01075205
0.010741443
0.010730784
0.010720063
0.010709274
0.010698415
0.010687487
0.010676491
0.010665426
0.01065429
0.010643081
0.010631794
0.010620414
0.01060893
0.010597347
0.010585587
0.010573592
0.010561408
0.010549011
0.01053637
0.01052345
0.010510213
0.010496615
0.010482609
0.010468146
0.010453169
0.010437616
0.010421419
0.010404503
0.010386783
0.010368162
0.010348528
0.010327749
0.01030568
0.01028214
0.010256906
0.010229694
0.010200146
0.010167814
0.010132144
0.010099365
0.010071941
0.010049187
0.010030522
0.010015502
0.010003959
0.009995912
0.0099911445
0.0099900413
0.0099933039
0.0099968964
0.010002704
0.010016943
0.025340608
0.020821111
0.0143035
0.012922948
0.012154793
0.011775089
0.011508763
0.011342664
0.011222127
0.011137097
0.011073276
0.011024882
0.01098694
0.010956594
0.010931683
0.010910744
0.010892696
0.010876746
0.010862312
0.010848951
0.01083634
0.010824234
0.010812455
0.010800872
0.010789393
0.010777952
0.010766509
0.010755037
0.010743522
0.01073196
0.010720351
0.010708699
0.010697007
0.010685281
0.010673523
0.010661733
0.01064991
0.01063805
0.010626146
0.010614179
0.010602141
0.010590039
0.01057777
0.01056529
0.010552647
0.01053981
0.010526748
0.010513426
0.010499803
0.010485836
0.010471477
0.010456677
0.010441381
0.010425527
0.010409051
0.010391879
0.010373931
0.010355117
0.010335334
0.010314464
0.010292377
0.010268919
0.010243896
0.010217066
0.01018812
0.01015667
0.010122246
0.010091299
0.010065476
0.010044147
0.01002676
0.010012874
0.010002264
0.0099948003
0.0099903069
0.0099893905
0.0099923116
0.0099954253
0.010001715
0.010015129
0.023785113
0.019551825
0.013954221
0.01270602
0.012029888
0.011688884
0.011452632
0.01130379
0.01119714
0.011121693
0.011065257
0.011022285
0.010988428
0.010961065
0.010938283
0.010918773
0.010901591
0.010886043
0.010871634
0.010857999
0.010844875
0.010832073
0.01081946
0.010806949
0.010794481
0.01078202
0.010769549
0.010757061
0.010744555
0.010732038
0.010719516
0.010706997
0.010694488
0.010681993
0.010669514
0.01065705
0.010644596
0.010632146
0.010619686
0.010607196
0.010594674
0.010582113
0.010569385
0.010556479
0.010543434
0.010530214
0.010516787
0.010503114
0.010489156
0.010474869
0.010460205
0.010445116
0.010429546
0.010413438
0.010396726
0.010379343
0.010361211
0.010342247
0.010322356
0.010301433
0.010279365
0.010256017
0.01023123
0.010204802
0.010176476
0.010145913
0.010112685
0.010083565
0.010059323
0.010039376
0.010023212
0.010010421
0.010000738
0.0099939006
0.0099897518
0.0099889478
0.0099914223
0.0099942349
0.010000813
0.010013309
0.022387413
0.018370961
0.013613014
0.0125147
0.011920633
0.011615174
0.011406523
0.011273756
0.011179846
0.011113188
0.011063319
0.011025032
0.010994527
0.010969436
0.010948091
0.010929346
0.010912394
0.010896661
0.010881741
0.010867349
0.010853289
0.010839429
0.010825686
0.010812008
0.010798369
0.010784757
0.010771173
0.010757621
0.010744111
0.010730651
0.010717251
0.010703917
0.010690654
0.010677463
0.010664342
0.010651284
0.010638281
0.010625323
0.010612388
0.010599455
0.010586527
0.01057357
0.01056045
0.01054719
0.010533806
0.010520265
0.010506531
0.010492564
0.010478326
0.010463771
0.010448854
0.010433525
0.010417732
0.010401417
0.010384519
0.010366972
0.010348705
0.010329638
0.010309685
0.010288752
0.010266738
0.010243529
0.010218995
0.010192978
0.010165277
0.010135626
0.010103631
0.010076305
0.010053607
0.010034988
0.010019974
0.010008198
0.0099993755
0.0099931698
0.0099894364
0.0099887298
0.009990704
0.0099932239
0.0099998995
0.01001141
0.021129821
0.017362366
0.013313043
0.012348149
0.011826665
0.011553721
0.011369894
0.011252688
0.011170307
0.011111459
0.011067165
0.011032634
0.011004569
0.010980881
0.010960146
0.010941404
0.010923993
0.010907459
0.010891496
0.0108759
0.010860542
0.010845343
0.010830261
0.010815276
0.010800384
0.010785589
0.010770899
0.010756323
0.010741872
0.010727551
0.010713367
0.01069932
0.010685409
0.010671629
0.010657971
0.010644424
0.010630974
0.010617603
0.010604284
0.010590997
0.010577749
0.010564467
0.010551031
0.010537487
0.010523832
0.010510033
0.010496052
0.010481851
0.010467389
0.010452622
0.010437505
0.010421989
0.010406023
0.010389553
0.01037252
0.010354861
0.010336509
0.01031739
0.010297425
0.010276527
0.010254608
0.010231568
0.0102073
0.010181679
0.01015457
0.010125815
0.01009523
0.010069638
0.010048428
0.010031075
0.010017137
0.010006278
0.0099982078
0.0099925762
0.0099892801
0.0099886957
0.00999021
0.0099923761
0.0099989064
0.010009302
0.019996286
0.016505828
0.013049988
0.012205697
0.011747731
0.011504058
0.011343667
0.011240592
0.011168283
0.011115971
0.011076007
0.01104407
0.011017346
0.010994052
0.010973025
0.010953491
0.010934942
0.010917047
0.010899597
0.010882464
0.010865576
0.010848893
0.010832402
0.010816102
0.010799997
0.010784096
0.010768404
0.010752927
0.010737668
0.010722627
0.0107078
0.010693181
0.010678759
0.010664521
0.010650452
0.010636534
0.010622749
0.01060907
0.010595462
0.010581918
0.010568437
0.010554902
0.010541224
0.010527466
0.010513608
0.010499615
0.01048545
0.010471073
0.010456444
0.010441521
0.010426258
0.010410609
0.010394524
0.010377952
0.010360836
0.010343118
0.010324734
0.010305616
0.010285691
0.010264881
0.010243105
0.010220274
0.01019629
0.010171048
0.010144427
0.010116295
0.010087603
0.010063655
0.010043857
0.0100277
0.010014766
0.010004734
0.0099973031
0.009992147
0.0099892182
0.0099887107
0.0099898286
0.009991672
0.0099977902
0.010006999
0.018970127
0.015768829
0.012817928
0.012081797
0.01168244
0.011466643
0.011327429
0.011236749
0.01117276
0.011125427
0.011088301
0.011057609
0.011031011
0.011007067
0.010984868
0.010963831
0.010943597
0.010923948
0.010904753
0.010885943
0.010867479
0.010849344
0.010831535
0.010814053
0.010796897
0.010780067
0.010763562
0.010747374
0.010731495
0.010715915
0.010700619
0.01068559
0.010670811
0.010656259
0.010641911
0.010627747
0.01061374
0.010599854
0.010586059
0.010572359
0.010558726
0.010544997
0.010531151
0.01051725
0.010503256
0.010489134
0.010474845
0.010460352
0.010445614
0.01043059
0.010415236
0.010399508
0.010383357
0.010366736
0.01034959
0.010331866
0.010313505
0.010294443
0.010274614
0.010253947
0.010232369
0.010209801
0.010186157
0.010161342
0.010135255
0.010107781
0.010080849
0.010058426
0.010039935
0.010024889
0.010012886
0.010003604
0.0099967306
0.0099919709
0.0099893038
0.0099887589
0.0099895067
0.0099911006
0.0099964596
0.010004392
0.018037177
0.015115291
0.012615682
0.011972819
0.01163023
0.011441284
0.011320257
0.011239798
0.011181953
0.011137707
0.011101717
0.011070825
0.011043174
0.011017652
0.01099359
0.01097058
0.010948382
0.010926855
0.010905919
0.010885528
0.010865655
0.010846283
0.010827398
0.010808988
0.010791039
0.010773535
0.010756459
0.01073979
0.010723508
0.010707588
0.010692008
0.01067674
0.010661758
0.010647033
0.010632538
0.010618247
0.010604125
0.010590131
0.010576252
0.010562488
0.010548749
0.010534893
0.010520969
0.010506992
0.010492927
0.010478737
0.010464386
0.010449834
0.010435044
0.010419974
0.010404583
0.010388829
0.010372666
0.010356049
0.010338927
0.01032125
0.010302965
0.010284012
0.010264332
0.010243862
0.010222535
0.010200282
0.010177027
0.010152688
0.010127178
0.010100398
0.010075052
0.010054001
0.01003669
0.010022647
0.010011485
0.010002878
0.0099965064
0.0099921089
0.0099896536
0.0099890311
0.0099894841
0.0099909093
0.0099954888
0.010001995
0.017192467
0.014517344
0.012443378
0.011884965
0.011591734
0.011426393
0.011319931
0.011246964
0.011192752
0.011149545
0.011113027
0.011080681
0.011051089
0.011023425
0.010997208
0.010972149
0.010948075
0.010924877
0.010902483
0.010880842
0.010859913
0.010839659
0.010820046
0.010801041
0.010782611
0.010764722
0.01074734
0.010730433
0.010713965
0.010697905
0.010682219
0.010666873
0.010651834
0.01063707
0.010622549
0.01060824
0.010594101
0.010580095
0.010566225
0.01055247
0.010538678
0.010524778
0.010510844
0.010496857
0.010482783
0.010468586
0.01045423
0.010439677
0.010424889
0.010409829
0.010394456
0.010378729
0.010362607
0.010346046
0.010329001
0.010311424
0.010293266
0.010274474
0.010254994
0.010234769
0.010213741
0.010191848
0.010169026
0.010145202
0.010120303
0.010094246
0.01007028
0.010050423
0.010034138
0.010020969
0.010010539
0.010002517
0.009996589
0.0099925214
0.009990252
0.0099895739
0.0099898551
0.0099912122
0.0099951699
0.010000524
0.016435787
0.013987793
0.012298896
0.011815093
0.011564051
0.011418184
0.011322264
0.011253771
0.01120076
0.011156833
0.011118596
0.011084101
0.011052274
0.011022478
0.010994334
0.010967598
0.010942105
0.010917733
0.010894388
0.010871991
0.010850473
0.010829771
0.010809827
0.010790585
0.010771996
0.010754009
0.010736579
0.010719661
0.010703213
0.010687193
0.010671564
0.010656285
0.010641321
0.010626636
0.010612198
0.010597968
0.010583899
0.010569976
0.010556202
0.010542502
0.010528711
0.010514846
0.010500967
0.010487034
0.010473012
0.010458867
0.010444563
0.010430064
0.010415335
0.010400338
0.010385036
0.01036939
0.010353361
0.010336908
0.010319989
0.010302561
0.010284579
0.010265996
0.010246761
0.010226825
0.010206137
0.010184641
0.010162283
0.010139001
0.01011473
0.010089404
0.010066585
0.010047719
0.010032284
0.01001984
0.010010014
0.010002474
0.0099969163
0.0099931264
0.0099910014
0.0099902796
0.0099904699
0.0099917837
0.0099951983
0.0099995508
0.015769028
0.013550471
0.012180126
0.011759729
0.011542466
0.011411118
0.011321675
0.011254966
0.011201409
0.011155851
0.011115603
0.011079115
0.011045499
0.011014191
0.010984821
0.010957127
0.010930911
0.010906018
0.01088232
0.010859704
0.010838075
0.010817344
0.010797437
0.010778281
0.010759813
0.010741975
0.010724711
0.010707971
0.010691708
0.010675876
0.010660434
0.01064534
0.010630557
0.010616049
0.01060178
0.010587706
0.010573789
0.010560033
0.010546416
0.010532787
0.010519064
0.010505321
0.010491556
0.010477734
0.010463821
0.010449784
0.010435588
0.010421198
0.010406581
0.010391701
0.010376522
0.010361008
0.010345123
0.010328828
0.010312085
0.010294853
0.010277092
0.010258759
0.010239809
0.010220198
0.01019988
0.010178809
0.010156934
0.010134204
0.010110562
0.010085951
0.010064018
0.010045914
0.010031132
0.010019239
0.010009867
0.010002688
0.0099974083
0.0099938248
0.0099917941
0.0099910354
0.0099911853
0.009992461
0.0099954158
0.0099989768
0.015176495
0.013184803
0.012078144
0.011710458
0.011518383
0.011397132
0.011311212
0.011244913
0.011190464
0.011143653
0.011102197
0.011064723
0.011030382
0.010998598
0.010968965
0.01094118
0.010915009
0.010890267
0.010866801
0.010844477
0.010823178
0.010802804
0.010783266
0.010764485
0.010746392
0.010728922
0.010712019
0.01069563
0.010679705
0.010664199
0.010649069
0.010634273
0.010619776
0.010605543
0.01059153
0.010577692
0.01056402
0.010550516
0.010537096
0.010523597
0.010510038
0.010496488
0.010482907
0.010469266
0.01045553
0.010441667
0.010427644
0.010413427
0.010398985
0.010384283
0.010369288
0.010353965
0.01033828
0.010322198
0.010305682
0.010288695
0.0102712
0.010253157
0.010234528
0.01021527
0.010195346
0.010174713
0.010153331
0.010131155
0.010108139
0.010084239
0.010062857
0.010045227
0.010030847
0.010019288
0.010010183
0.010003205
0.0099980726
0.0099945834
0.0099925606
0.009991732
0.0099918467
0.0099930862
0.0099956766
0.0099986623
0.014480777
0.012769797
0.011916289
0.011610278
0.011447658
0.011342877
0.011266818
0.011206757
0.011156571
0.011112948
0.011074028
0.011038666
0.011006121
0.01097588
0.010947573
0.010920924
0.010895716
0.01087178
0.010849088
0.010827515
0.010806938
0.01078725
0.010768362
0.010750194
0.010732677
0.010715746
0.010699347
0.010683429
0.010667945
0.010652851
0.010638106
0.010623674
0.010609522
0.010595614
0.010581905
0.010568365
0.010555004
0.010541787
0.010528548
0.010515233
0.010501925
0.010488614
0.010475267
0.010461854
0.010448343
0.010434703
0.010420901
0.010406908
0.010392691
0.010378217
0.010363456
0.010348373
0.010332937
0.010317113
0.010300867
0.010284164
0.010266969
0.010249245
0.010230954
0.010212058
0.010192521
0.010172305
0.010151371
0.01012968
0.010107189
0.010083857
0.010062775
0.010045397
0.010031224
0.010019825
0.010010832
0.010003918
0.0099988107
0.0099952956
0.0099931713
0.009992197
0.0099922044
0.009993268
0.0099953627
0.0099978143
0.014008448
0.01256988
0.011806799
0.011530441
0.011381426
0.011284469
0.011213555
0.011157377
0.011110344
0.011069489
0.01103312
0.011000193
0.010970017
0.010942107
0.010916104
0.010891733
0.010868774
0.010847049
0.010826307
0.01080643
0.010787336
0.010768953
0.010751218
0.010734074
0.010717469
0.010701355
0.010685688
0.010670429
0.010655539
0.010640982
0.010626725
0.010612737
0.010598991
0.010585476
0.010572151
0.010559007
0.010546035
0.010533126
0.010520161
0.010507176
0.010494214
0.01048124
0.010468226
0.01045514
0.010441953
0.010428635
0.010415156
0.010401484
0.010387591
0.010373444
0.010359014
0.010344268
0.010329176
0.010313705
0.010297822
0.010281493
0.010264686
0.010247364
0.010229492
0.010211034
0.010191955
0.010172219
0.010151789
0.010130627
0.010108695
0.010085954
0.010064553
0.010046933
0.010032575
0.01002103
0.010011914
0.010004894
0.0099996881
0.0099960638
0.0099938045
0.0099927003
0.0099926118
0.0099934993
0.0099952301
0.009997438
0.013650839
0.012402655
0.011677138
0.011428025
0.01129436
0.011208972
0.011146714
0.011097499
0.011056146
0.011020021
0.010987629
0.010958074
0.010930774
0.010905327
0.010881444
0.010858907
0.010837544
0.01081722
0.010797822
0.01077926
0.010761459
0.010744348
0.010727867
0.010711958
0.01069657
0.010681654
0.010667167
0.010653067
0.010639313
0.010625868
0.010612699
0.010599773
0.010587049
0.010574462
0.010562002
0.01054968
0.010537446
0.010525145
0.010512774
0.010500414
0.010488035
0.010475615
0.010463128
0.010450546
0.010437844
0.010424995
0.010411971
0.010398746
0.01038529
0.010371575
0.010357573
0.010343255
0.010328589
0.010313547
0.010298096
0.010282205
0.010265842
0.010248973
0.010231563
0.010213578
0.010194983
0.010175745
0.010155826
0.010135192
0.010113803
0.010091622
0.010069431
0.010051131
0.010036184
0.010024128
0.010014566
0.010007154
0.010001601
0.0099976558
0.0099950964
0.0099937281
0.0099934043
0.0099940107
0.0099954006
0.0099974091
59.505026
109.10931
62.210815
41.215924
28.176469
19.513957
13.734016
9.8136018
7.0821423
5.1298117
3.7129054
2.6859892
1.9338652
1.3903955
0.98976575
0.7016783
0.49220893
0.3432571
0.23850196
0.16529199
0.11453543
0.079728115
0.056135216
0.040343058
0.029915086
0.023121806
0.018761205
0.015998172
0.014267854
0.01319437
0.012531572
0.012121163
0.01186345
0.011696922
0.011584428
0.011503981
0.011442817
0.011393633
0.011352238
0.011316482
0.011284871
0.011256499
0.011231083
0.011207936
0.011186683
0.011167074
0.011148753
0.011130674
0.011106883
0.011067984
0.011014894
0.0109548
0.010894955
0.010840065
0.010790852
0.010746881
0.010707104