/*--------------------------------*- C++ -*----------------------------------*\
  =========                 |
  \\      /  F ield         | OpenFOAM: The Open Source CFD Toolbox
   \\    /   O peration     | Website:  https://openfoam.org
    \\  /    A nd           | Version:  6
     \\/     M anipulation  |
\*---------------------------------------------------------------------------*/
FoamFile
{
    version     2.0;
    format      ascii;
    class       volScalarField;
    location    "250";
    object      nut;
}
// * * * * * * * * * * * * * * * * * * * * * * * * * * * * * * * * * * * * * //

dimensions      [0 2 -1 0 0 0 0];

internalField   nonuniform List<scalar> 
16000
(
4.0260728e-06
2.0427402e-05
2.4774711e-05
3.2439405e-05
2.7205597e-05
3.4579454e-05
3.2601685e-05
3.7109302e-05
3.6951703e-05
3.7574884e-05
3.7460586e-05
3.6532347e-05
3.633013e-05
3.5424582e-05
3.5322984e-05
3.492716e-05
3.50503e-05
3.5109956e-05
3.5494934e-05
3.5936983e-05
3.6608397e-05
3.7399676e-05
3.8385624e-05
3.9531053e-05
4.0875397e-05
4.2420066e-05
4.4197523e-05
4.6230832e-05
4.8559039e-05
5.1224435e-05
5.4286425e-05
5.7816188e-05
6.1900237e-05
6.664464e-05
7.216028e-05
7.8593135e-05
8.6127316e-05
9.5004515e-05
0.00010552796
0.00011804302
0.0001329724
0.00015085352
0.00017235059
0.00019827607
0.00022963115
0.00026765623
0.00031387623
0.00037016672
0.00043883335
0.0005226971
0.00062519832
0.00075051644
0.00090373266
0.0010374451
0.0010384474
0.0010385273
0.0010380018
0.0010371685
0.0010361679
0.0010349365
0.0010333127
0.0010312748
0.0010287951
0.0010258954
0.0010227044
0.0010194878
0.0010165131
0.0010139
0.0010116104
0.0010096465
0.0010079449
0.0010066159
0.0010053947
0.0010047243
0.001003769
0.0010043688
0.0010036134
0.0010066165
0.0010028652
0.0010055896
3.3950408e-06
2.0212944e-05
2.2163566e-05
2.9635291e-05
2.5035377e-05
3.1225904e-05
2.9972618e-05
3.3348759e-05
3.3824324e-05
3.3712972e-05
3.3982471e-05
3.2715983e-05
3.2682034e-05
3.1722446e-05
3.1714571e-05
3.1313683e-05
3.1462751e-05
3.151097e-05
3.1877773e-05
3.2281334e-05
3.2896938e-05
3.3615234e-05
3.4508424e-05
3.5542845e-05
3.6754941e-05
3.8146116e-05
3.9745691e-05
4.1574998e-05
4.3669503e-05
4.6067949e-05
4.8820557e-05
5.1985648e-05
5.5641471e-05
5.9883287e-05
6.4826839e-05
7.0611033e-05
7.7392002e-05
8.5362208e-05
9.4780668e-05
0.0001059844
0.00011935352
0.00013535335
0.00015457403
0.00017774339
0.00020574666
0.00023968118
0.00028089992
0.00033106117
0.0003922049
0.00046683079
0.00055799031
0.00066940311
0.00080559242
0.00097210125
0.0010373613
0.0010375772
0.0010371046
0.0010362854
0.0010353126
0.0010341925
0.0010328197
0.0010310021
0.0010287052
0.0010259345
0.0010227972
0.0010195696
0.001016558
0.0010139109
0.0010115991
0.0010096054
0.0010078955
0.0010065237
0.0010053286
0.0010045995
0.0010036656
0.0010040178
0.001003331
0.0010061994
0.0010027773
0.0010054662
2.9216541e-06
2.0011764e-05
2.0419508e-05
2.7226607e-05
2.3293824e-05
2.8327081e-05
2.7959606e-05
2.9941016e-05
3.1153197e-05
3.008702e-05
3.076953e-05
2.9124676e-05
2.9314144e-05
2.8303992e-05
2.8389283e-05
2.799309e-05
2.8168978e-05
2.8214621e-05
2.8567712e-05
2.8942766e-05
2.9512213e-05
3.0171459e-05
3.0987946e-05
3.1931386e-05
3.3034619e-05
3.4299907e-05
3.5753519e-05
3.7415357e-05
3.9317334e-05
4.1494655e-05
4.3992789e-05
4.6866725e-05
5.0184559e-05
5.4026069e-05
5.8496838e-05
6.3726209e-05
6.987457e-05
7.712046e-05
8.5667827e-05
9.5806899e-05
0.00010790898
0.00012239705
0.00013978773
0.00016073898
0.00018604987
0.0002166978
0.00025389462
0.00029912277
0.00035419937
0.00042135395
0.00050330506
0.00060336842
0.00072557528
0.00087484976
0.001036272
0.0010366397
0.0010362258
0.0010354139
0.0010344452
0.0010333523
0.0010320882
0.00103053
0.0010284536
0.0010258494
0.0010227978
0.0010195807
0.0010165445
0.0010138752
0.0010115478
0.0010095375
0.0010078198
0.0010064243
0.001005244
0.0010044588
0.0010035812
0.0010037738
0.0010031314
0.0010057843
0.001002588
0.0010050145
2.5926168e-06
1.9772588e-05
1.8883869e-05
2.496802e-05
2.1657004e-05
2.5669954e-05
2.6025835e-05
2.6858832e-05
2.8570091e-05
2.6814727e-05
2.7737725e-05
2.5938984e-05
2.6247525e-05
2.5260201e-05
2.5392546e-05
2.5028956e-05
2.5213556e-05
2.5267325e-05
2.5602274e-05
2.5955691e-05
2.6482576e-05
2.7091541e-05
2.784097e-05
2.870635e-05
2.9715946e-05
3.0873539e-05
3.2202411e-05
3.3721534e-05
3.545984e-05
3.7449738e-05
3.9732641e-05
4.2358648e-05
4.5389718e-05
4.890183e-05
5.2987788e-05
5.7759944e-05
6.3362624e-05
6.9979791e-05
7.7814572e-05
8.7095643e-05
9.8152525e-05
0.00011139943
0.00012730533
0.0001464579
0.00016959491
0.00019760547
0.00023158808
0.00027289412
0.00032317157
0.00038444422
0.0004591807
0.00055039146
0.00066174158
0.00079769463
0.00096372571
0.0010357056
0.00103536
0.0010345536
0.0010335811
0.001032494
0.0010312615
0.001029821
0.0010280071
0.0010256121
0.0010226839
0.001019503
0.0010164577
0.0010137785
0.0010114459
0.0010094291
0.0010077097
0.0010063009
0.0010051376
0.0010043113
0.0010034949
0.0010035437
0.0010029568
0.0010052696
0.0010024604
0.0010047003
2.3165024e-06
1.9465455e-05
1.7567015e-05
2.2880872e-05
2.0159504e-05
2.3243744e-05
2.4231146e-05
2.4050157e-05
2.6102738e-05
2.3829247e-05
2.4883278e-05
2.3075238e-05
2.3434696e-05
2.2512554e-05
2.2663127e-05
2.2346228e-05
2.2529098e-05
2.2596047e-05
2.29115e-05
2.3247747e-05
2.3736292e-05
2.430195e-05
2.4992853e-05
2.5790732e-05
2.6719221e-05
2.7783667e-05
2.9004646e-05
3.0400327e-05
3.1997096e-05
3.3825043e-05
3.5922173e-05
3.8334706e-05
4.1119788e-05
4.434695e-05
4.8101884e-05
5.2490428e-05
5.7639494e-05
6.3710346e-05
7.0911869e-05
7.9471117e-05
8.9656399e-05
0.00010184337
0.00011649305
0.0001341337
0.00015544078
0.00018124083
0.00021253682
0.00025057193
0.00029685948
0.00035325426
0.00042202311
0.00050592831
0.00060833782
0.00073334954
0.00088598158
0.0010347696
0.0010345058
0.0010337049
0.0010327239
0.0010316345
0.0010304123
0.0010290159
0.0010273603
0.0010252201
0.0010224559
0.0010193392
0.0010163004
0.0010136238
0.0010112964
0.0010092833
0.0010075686
0.0010061557
0.0010050083
0.0010041571
0.0010033973
0.0010033004
0.0010028031
0.0010047708
0.0010023348
0.0010042764
2.0855549e-06
1.9051272e-05
1.6454128e-05
2.0929782e-05
1.8779766e-05
2.0999864e-05
2.2532179e-05
2.1471035e-05
2.3720868e-05
2.1162633e-05
2.2233172e-05
2.0505995e-05
2.0864606e-05
2.0038969e-05
2.0187674e-05
1.9926632e-05
2.0102063e-05
2.0185845e-05
2.0483085e-05
2.0806623e-05
2.1262447e-05
2.1792089e-05
2.2433579e-05
2.3174586e-05
2.4034574e-05
2.5020284e-05
2.6150002e-05
2.7441234e-05
2.8918287e-05
3.0609329e-05
3.2549558e-05
3.4781966e-05
3.7359673e-05
4.0347471e-05
4.3824995e-05
4.7889999e-05
5.2663437e-05
5.8291243e-05
6.4958074e-05
7.2898691e-05
8.2365894e-05
9.3686439e-05
0.00010729212
0.00012369181
0.00014349748
0.00016748559
0.00019658747
0.00023195451
0.00027499488
0.00032742692
0.00039135495
0.00046934203
0.00056451535
0.00068068065
0.00082248934
0.00099563524
0.0010336587
0.0010328652
0.0010318727
0.0010307765
0.0010295555
0.0010281773
0.0010265854
0.0010246611
0.0010221075
0.0010190866
0.0010160709
0.0010134093
0.0010110981
0.0010090987
0.0010073954
0.0010059871
0.0010048551
0.0010039924
0.0010032836
0.0010030699
0.0010026561
0.001004306
0.0010022307
0.0010039582
1.8912525e-06
1.7341261e-05
1.5491915e-05
1.90904e-05
1.7508527e-05
1.8907529e-05
2.0910507e-05
1.9104674e-05
2.1412466e-05
1.8776293e-05
1.9781329e-05
1.8197496e-05
1.852128e-05
1.7808679e-05
1.7943514e-05
1.7740917e-05
1.7906418e-05
1.8007906e-05
1.8288976e-05
1.8602731e-05
1.9030849e-05
1.9530191e-05
2.0129865e-05
2.0822606e-05
2.162443e-05
2.2543135e-05
2.3595174e-05
2.4797459e-05
2.6172582e-05
2.7747136e-05
2.9553988e-05
3.1633407e-05
3.403523e-05
3.6820143e-05
4.0062813e-05
4.3855124e-05
4.8310063e-05
5.3566522e-05
5.9792795e-05
6.7208238e-05
7.6067009e-05
8.6670499e-05
9.9405472e-05
0.00011476991
0.00013333221
0.00015581695
0.00018310412
0.0002162681
0.00025663146
0.00030580281
0.00036575309
0.00043888373
0.00052812479
0.00063704476
0.00076999883
0.00093231821
0.001032815
0.0010320329
0.0010310264
0.0010299203
0.0010286957
0.0010273253
0.0010257651
0.0010239324
0.001021635
0.0010187462
0.0010157703
0.0010131364
0.0010108522
0.0010088765
0.001007192
0.001005796
0.0010046796
0.0010038172
0.0010031516
0.0010028492
0.0010025099
0.0010038371
0.0010021153
0.0010036324
1.7179395e-06
1.5413951e-05
1.4499427e-05
1.733624e-05
1.635121e-05
1.6951483e-05
1.9359769e-05
1.6994275e-05
1.9196282e-05
1.6647786e-05
1.7533715e-05
1.6129794e-05
1.639897e-05
1.5803417e-05
1.5918545e-05
1.5772069e-05
1.5927418e-05
1.6045733e-05
1.6313225e-05
1.6619279e-05
1.7024441e-05
1.7498468e-05
1.8063207e-05
1.8715405e-05
1.9468346e-05
2.0330651e-05
2.1317305e-05
2.2444671e-05
2.3733987e-05
2.5210515e-05
2.6905271e-05
2.8856212e-05
3.1110518e-05
3.3725552e-05
3.6771865e-05
4.0336482e-05
4.4526337e-05
4.9472552e-05
5.5337272e-05
6.2321271e-05
7.067058e-05
8.0676034e-05
9.2702704e-05
0.00010721002
0.00012475113
0.00014600214
0.00017180185
0.0002031639
0.00024133953
0.00028784946
0.00034455531
0.00041372688
0.00049813302
0.00060114788
0.00072688601
0.00088038071
0.0010319697
0.0010312058
0.0010301835
0.0010290653
0.0010278342
0.0010264662
0.0010249254
0.0010231525
0.0010210332
0.0010183192
0.0010154009
0.0010128068
0.0010105602
0.001008618
0.00100696
0.0010055835
0.0010044839
0.0010036309
0.0010030012
0.0010026375
0.0010023627
0.0010033904
0.0010019967
0.0010033379
1.5581349e-06
1.4874613e-05
1.3416344e-05
1.5671759e-05
1.5287084e-05
1.5145986e-05
1.7836984e-05
1.5114453e-05
1.7110458e-05
1.4746258e-05
1.548093e-05
1.4274802e-05
1.4481223e-05
1.3998923e-05
1.4093661e-05
1.3998539e-05
1.4145476e-05
1.4279067e-05
1.4536028e-05
1.4836137e-05
1.522275e-05
1.567589e-05
1.621178e-05
1.6830239e-05
1.7542492e-05
1.8357661e-05
1.928968e-05
2.0354371e-05
2.1571908e-05
2.2966461e-05
2.456753e-05
2.641118e-05
2.8542397e-05
3.1015844e-05
3.3898783e-05
3.72742e-05
4.1244125e-05
4.5934335e-05
5.1499332e-05
5.8128016e-05
6.6058383e-05
7.5571735e-05
8.7014629e-05
0.00010082056
0.00011752558
0.00013777061
0.00016235705
0.00019225185
0.00022864694
0.00027299239
0.00032706075
0.00039301436
0.00047349058
0.00057170435
0.00069157513
0.00083789358
0.0010165059
0.001030382
0.0010293426
0.001028211
0.0010269714
0.0010256023
0.0010240733
0.0010223369
0.0010203085
0.0010178088
0.0010149665
0.0010124236
0.001010225
0.0010083254
0.0010067021
0.0010053517
0.001004271
0.0010034348
0.0010028339
0.0010024338
0.0010022129
0.0010029704
0.0010018686
0.0010030332
1.4209862e-06
1.4292875e-05
1.2436329e-05
1.4092851e-05
1.4291292e-05
1.3519701e-05
1.6300487e-05
1.3422912e-05
1.514639e-05
1.3034959e-05
1.3608587e-05
1.2603107e-05
1.2749134e-05
1.2371731e-05
1.2449768e-05
1.2400568e-05
1.2542444e-05
1.2690022e-05
1.293991e-05
1.3235943e-05
1.3608339e-05
1.404481e-05
1.4557532e-05
1.5148508e-05
1.5827544e-05
1.6604032e-05
1.7491131e-05
1.8504189e-05
1.9662538e-05
2.0989479e-05
2.2513306e-05
2.4268507e-05
2.6298327e-05
2.8655274e-05
3.1403946e-05
3.4623989e-05
3.8413743e-05
4.2894578e-05
4.8213139e-05
5.455525e-05
6.2147456e-05
7.1260925e-05
8.2226451e-05
9.5469471e-05
0.00011150012
0.00013093629
0.0001545469
0.00018326237
0.00021822691
0.00026083347
0.00031278291
0.00037615024
0.00045346609
0.00054781553
0.00066296031
0.00080349506
0.00097502957
0.00102956
0.0010285027
0.0010273568
0.0010261075
0.0010247354
0.0010232142
0.0010215054
0.0010195466
0.0010172187
0.0010144722
0.0010119913
0.0010098501
0.001008002
0.0010064214
0.0010051032
0.0010040449
0.0010032302
0.0010026527
0.0010022377
0.0010020609
0.0010025831
0.0010017374
0.001002751
1.3010695e-06
1.3657094e-05
1.1510937e-05
1.2572702e-05
1.3347022e-05
1.2045654e-05
1.473303e-05
1.1892633e-05
1.3311299e-05
1.1489654e-05
1.1909128e-05
1.1094246e-05
1.1188635e-05
1.0904546e-05
1.0971605e-05
1.0962575e-05
1.1103152e-05
1.1263565e-05
1.1464892e-05
1.1751343e-05
1.210785e-05
1.2526862e-05
1.3017233e-05
1.3582074e-05
1.4229929e-05
1.497011e-05
1.581501e-05
1.6779388e-05
1.7881706e-05
1.9144416e-05
2.0594704e-05
2.2265499e-05
2.4198473e-05
2.6444144e-05
2.9064701e-05
3.2136816e-05
3.5755528e-05
4.0038482e-05
4.5423862e-05
5.1537631e-05
5.8861265e-05
6.7655628e-05
7.8241434e-05
9.1039444e-05
0.00010653604
0.00012533256
0.00014817232
0.00017595609
0.00020979109
0.00025102423
0.00030129936
0.00036262133
0.00043743498
0.00052872056
0.00064011253
0.00077604804
0.00094194435
0.0010287385
0.0010276631
0.0010265025
0.001025243
0.0010238671
0.0010223513
0.0010206632
0.0010187557
0.0010165533
0.001013925
0.0010115156
0.0010094404
0.0010076518
0.0010061216
0.0010048418
0.0010038098
0.0010030199
0.0010024614
0.0010020492
0.0010019073
0.0010022343
0.001001605
0.001002462
1.1964638e-06
1.2939132e-05
1.0644044e-05
1.1122658e-05
1.2426876e-05
1.0708274e-05
1.3170088e-05
1.0503908e-05
1.1613302e-05
1.0091678e-05
1.0375107e-05
9.7323507e-06
9.7873424e-06
9.5837779e-06
9.6036299e-06
9.6136701e-06
9.7476252e-06
9.9150944e-06
1.0156467e-05
1.0447817e-05
1.0801554e-05
1.121426e-05
1.1693267e-05
1.2242884e-05
1.2871128e-05
1.3587461e-05
1.4403915e-05
1.5334947e-05
1.6398497e-05
1.7616501e-05
1.9015531e-05
2.0627345e-05
2.2492625e-05
2.4660596e-05
2.7191829e-05
3.0160936e-05
3.3660604e-05
3.7806852e-05
4.2737915e-05
4.8628072e-05
5.568971e-05
6.4175026e-05
7.4975627e-05
8.7431408e-05
0.00010251736
0.00012082212
0.00014307102
0.00017013967
0.00020310799
0.00024328635
0.00029227412
0.00035202081
0.00042490359
0.00051381971
0.00062230259
0.00075466478
0.00091617074
0.0010279167
0.0010268235
0.0010256484
0.0010243788
0.0010229988
0.0010214874
0.0010198163
0.0010179464
0.0010158181
0.0010133329
0.0010110036
0.0010090017
0.0010072796
0.0010058069
0.0010045714
0.0010035705
0.001002807
0.001002265
0.0010018683
0.0010017532
0.0010019278
0.0010014796
0.001002185
1.1053264e-06
1.2125205e-05
9.8332759e-06
9.8089297e-06
1.1505326e-05
9.4882186e-06
1.1636599e-05
9.2392642e-06
1.0059348e-05
8.8258872e-06
8.9983757e-06
8.5049125e-06
8.4714077e-06
8.3166289e-06
8.370247e-06
8.4233059e-06
8.5719614e-06
8.7575711e-06
9.0055654e-06
9.3015969e-06
9.6542287e-06
1.0062779e-05
1.0533701e-05
1.1072124e-05
1.1685693e-05
1.2383968e-05
1.3178724e-05
1.4084157e-05
1.5117787e-05
1.6301161e-05
1.766053e-05
1.9226604e-05
2.1039416e-05
2.3147271e-05
2.5609617e-05
2.8499532e-05
3.1907558e-05
3.594879e-05
4.0758624e-05
4.6508588e-05
5.3407219e-05
6.1702348e-05
7.170825e-05
8.3817867e-05
9.8498172e-05
0.00011728557
0.00013910267
0.00016564682
0.00019797913
0.00023738212
0.00028542132
0.00034400402
0.0004154555
0.00050260915
0.00060892056
0.00073860637
0.00089681368
0.0010270945
0.0010259841
0.0010247951
0.0010235161
0.0010221325
0.0010206255
0.0010189705
0.0010171345
0.0010150705
0.0010127056
0.0010104634
0.0010085406
0.001006891
0.0010054818
0.0010042965
0.0010033317
0.0010025956
0.0010020685
0.0010016953
0.0010015994
0.0010016619
0.0010013644
0.001001947
1.0259291e-06
1.1205005e-05
9.0736776e-06
8.6194286e-06
1.0552979e-05
8.374884e-06
1.0154099e-05
8.0878802e-06
8.6548414e-06
7.6816119e-06
7.6999406e-06
7.2989442e-06
7.2985062e-06
7.2193313e-06
7.2919556e-06
7.3795848e-06
7.542214e-06
7.7431451e-06
7.9980945e-06
8.2990431e-06
8.6522931e-06
9.0588987e-06
9.5248537e-06
1.005588e-05
1.065934e-05
1.134486e-05
1.2124045e-05
1.3010881e-05
1.4022537e-05
1.5180248e-05
1.6449473e-05
1.7969396e-05
1.9729082e-05
2.1775911e-05
2.4168264e-05
2.6977862e-05
3.0464278e-05
3.4429542e-05
3.9152158e-05
4.4802068e-05
5.1586572e-05
5.9747168e-05
6.9595865e-05
8.1521089e-05
9.5987779e-05
0.00011356092
0.00013493193
0.00016233514
0.00019423469
0.00023310852
0.00028049745
0.00033827823
0.00040873805
0.00049466354
0.00059945275
0.00072725228
0.00088312381
0.0010262724
0.0010251458
0.0010239441
0.0010226567
0.0010212704
0.0010197684
0.0010181292
0.0010163249
0.0010143177
0.0010120536
0.001009904
0.0010080649
0.0010064919
0.001005151
0.0010040213
0.0010030979
0.0010023898
0.0010018768
0.00100153
0.0010014461
0.0010014303
0.0010012536
0.0010017424
9.571365e-07
1.0181782e-05
8.3579929e-06
7.5412396e-06
9.5549736e-06
7.3568983e-06
8.7459677e-06
7.0393113e-06
7.3997522e-06
6.5389005e-06
6.534415e-06
6.2664824e-06
6.2814533e-06
6.2619599e-06
6.3532812e-06
6.4689777e-06
6.6451105e-06
6.859464e-06
7.1218432e-06
7.4282788e-06
7.7838733e-06
8.1907462e-06
8.6546604e-06
9.1620133e-06
9.7542445e-06
1.0426133e-05
1.1188931e-05
1.2056227e-05
1.304467e-05
1.4174842e-05
1.5471881e-05
1.6966708e-05
1.8697428e-05
2.0711109e-05
2.3065813e-05
2.5833227e-05
2.9102347e-05
3.2982761e-05
3.7608014e-05
4.3147303e-05
4.9807021e-05
5.8257728e-05
6.8008834e-05
7.9822598e-05
9.4159507e-05
0.00011158003
0.00013277008
0.00015856782
0.00019172237
0.00023028387
0.00027728523
0.00033458288
0.00040443837
0.00048960657
0.00059344623
0.00072005698
0.00087444373
0.0010254515
0.0010243103
0.0010230972
0.0010218028
0.0010204151
0.0010189193
0.0010172964
0.0010155225
0.0010135667
0.001011388
0.0010093353
0.0010075828
0.0010060888
0.0010048193
0.0010037498
0.0010028729
0.001002194
0.0010016953
0.0010013735
0.0010012936
0.0010012254
0.0010011429
0.0010015702
8.9847883e-07
9.0664762e-06
7.6804795e-06
6.5622269e-06
8.5298753e-06
6.4239068e-06
7.4352082e-06
6.0364997e-06
6.1380894e-06
5.5445161e-06
5.5349989e-06
5.3712889e-06
5.403899e-06
5.4312934e-06
5.5409871e-06
5.6798587e-06
5.8690961e-06
6.0956796e-06
6.3660512e-06
6.6787541e-06
7.0241055e-06
7.4293215e-06
7.8899259e-06
8.4117844e-06
9.0024231e-06
9.6709302e-06
1.0428549e-05
1.1288813e-05
1.2268183e-05
1.338715e-05
1.4670722e-05
1.6149689e-05
1.7862062e-05
1.9854818e-05
2.2185918e-05
2.4927058e-05
2.8167343e-05
3.2015721e-05
3.6605246e-05
4.210731e-05
4.8729262e-05
5.6700052e-05
6.6325571e-05
7.8000386e-05
9.2940449e-05
0.00011029969
0.00013141588
0.00015712723
0.00018844871
0.00022874097
0.00027558463
0.00033267829
0.00040226904
0.00048709337
0.00059048685
0.00071652255
0.00087017444
0.0010246341
0.00102348
0.0010222573
0.0010209574
0.00101957
0.0010180818
0.0010164763
0.0010147327
0.0010128249
0.0010107206
0.0010087674
0.0010071029
0.0010056888
0.0010044916
0.0010034854
0.0010026592
0.0010020119
0.0010015288
0.0010012278
0.0010011435
0.0010010431
0.0010010239
0.0010014218
8.5002473e-07
7.8723001e-06
7.034901e-06
5.6735532e-06
7.4712357e-06
5.5690451e-06
6.2519908e-06
5.0466683e-06
5.0936279e-06
4.6900947e-06
4.6822484e-06
4.5986633e-06
4.6511176e-06
4.7155048e-06
4.8430909e-06
5.0016852e-06
5.2037333e-06
5.4419232e-06
5.7080899e-06
6.0247785e-06
6.3868005e-06
6.7976087e-06
7.2622856e-06
7.7869158e-06
8.379077e-06
9.047856e-06
9.8045045e-06
1.0662582e-05
1.1638353e-05
1.2752328e-05
1.4029494e-05
1.5500665e-05
1.7203958e-05
1.9186486e-05
2.150641e-05
2.4235922e-05
2.746455e-05
3.1300791e-05
3.587855e-05
4.1372403e-05
4.7987398e-05
5.5946338e-05
6.5564952e-05
7.7244256e-05
9.1431965e-05
0.00010867686
0.00013077257
0.00015650882
0.00018786081
0.00022606039
0.00027520099
0.00033233133
0.00040195057
0.00048678913
0.00059017297
0.00071616698
0.00086973646
0.0010238231
0.0010226582
0.0010214278
0.0010201244
0.0010187388
0.0010172598
0.001015673
0.0010139605
0.0010120995
0.0010100627
0.0010082102
0.0010066341
0.0010052989
0.001004173
0.0010032307
0.001002458
0.0010018455
0.0010013812
0.0010010959
0.0010010001
0.001000884
0.0010009082
0.0010012839
8.1306705e-07
6.6124067e-06
6.3999859e-06
4.8656199e-06
6.3933911e-06
4.7640772e-06
5.6246577e-06
4.2303528e-06
4.2044082e-06
3.9547536e-06
3.9595995e-06
3.9359303e-06
4.0097316e-06
4.1042046e-06
4.2490494e-06
4.4250976e-06
4.6289286e-06
4.875755e-06
5.1616828e-06
5.4879437e-06
5.8580001e-06
6.2757678e-06
6.7464369e-06
7.2762213e-06
7.8727566e-06
8.5450678e-06
9.3044305e-06
1.0144182e-05
1.1114904e-05
1.2221679e-05
1.3489293e-05
1.4948409e-05
1.6637056e-05
1.8602277e-05
2.0902312e-05
2.3609747e-05
2.6814127e-05
3.0623482e-05
3.5173739e-05
4.0906559e-05
4.7539274e-05
5.5516405e-05
6.5170223e-05
7.690127e-05
9.1150748e-05
0.00010847496
0.00012955554
0.00015659467
0.00018808936
0.00022646106
0.00027320807
0.00033330163
0.00040319462
0.00048834879
0.00059209098
0.00071849382
0.00087253341
0.0010230226
0.0010218492
0.0010206134
0.0010193084
0.0010179265
0.001016458
0.0010148912
0.0010132108
0.0010113972
0.0010094253
0.0010076734
0.0010061848
0.0010049264
0.0010038691
0.0010029888
0.0010022694
0.0010016946
0.0010012534
0.0010009799
0.001000867
0.0010007454
0.0010008018
0.0010011489
7.9154475e-07
5.4230596e-06
5.7555012e-06
4.1352022e-06
5.5116009e-06
4.4183486e-06
4.0586481e-06
3.4915577e-06
3.4764022e-06
3.3228116e-06
3.3511217e-06
3.3741912e-06
3.4691542e-06
3.5890779e-06
3.7422201e-06
3.9310347e-06
4.1561103e-06
4.4158441e-06
4.7126845e-06
5.0487853e-06
5.4277625e-06
5.8538307e-06
6.3322595e-06
6.869314e-06
7.4628797e-06
8.1381634e-06
8.8991566e-06
9.7591786e-06
1.0734584e-05
1.1845529e-05
1.3116954e-05
1.4579792e-05
1.6272438e-05
1.8242394e-05
2.0548703e-05
2.3265096e-05
2.6481693e-05
3.0307546e-05
3.4883469e-05
4.0386773e-05
4.7003165e-05
5.5362856e-05
6.5086619e-05
7.690594e-05
9.1261858e-05
0.00010871851
0.00012995984
0.00015582157
0.0001889848
0.00022763817
0.00027471756
0.00033206653
0.00040569122
0.00049140116
0.00059579558
0.00072296807
0.00087792197
0.0010222379
0.0010210586
0.0010198197
0.0010185153
0.0010171387
0.0010156819
0.0010141356
0.001012488
0.0010107233
0.0010088185
0.0010071658
0.0010057628
0.0010045784
0.0010035858
0.0010027633
0.0010020939
0.0010015573
0.0010011435
0.0010008813
0.0010007485
0.0010006218
0.0010006992
0.0010010125
7.8760792e-07
5.0002845e-06
5.1499078e-06
4.4616273e-06
5.132428e-06
3.2299271e-06
3.2574536e-06
2.8749802e-06
2.873031e-06
2.7970959e-06
2.8463591e-06
2.9074985e-06
3.0217876e-06
3.1550295e-06
3.3289676e-06
3.5340991e-06
3.7723891e-06
4.0440729e-06
4.3517054e-06
4.6980208e-06
5.0867721e-06
5.5223518e-06
6.0044782e-06
6.5484872e-06
7.1580214e-06
7.8420328e-06
8.6114104e-06
9.4794876e-06
1.0462678e-05
1.1581268e-05
1.2860438e-05
1.4331492e-05
1.6033268e-05
1.8013885e-05
2.0333505e-05
2.3067017e-05
2.6304723e-05
3.0157513e-05
3.4772179e-05
4.0324897e-05
4.6993849e-05
5.5022432e-05
6.5249533e-05
7.7184703e-05
9.1681568e-05
0.00010931065
0.00013075962
0.00015687057
0.00019038138
0.00022939508
0.0002769012
0.00033475472
0.00040909364
0.00049552998
0.000600787
0.00072898867
0.00088517794
0.0010214749
0.0010202925
0.0010190533
0.0010177519
0.0010163823
0.0010149381
0.0010134119
0.0010117952
0.0010100787
0.0010082513
0.0010066946
0.0010053743
0.0010042609
0.001003329
0.0010025591
0.0010019339
0.0010014325
0.0010010475
0.0010007982
0.0010006478
0.0010005123
0.0010005964
0.0010008674
8.0000736e-07
5.1239398e-06
4.5555146e-06
4.3261486e-06
4.0181685e-06
2.5813437e-06
2.6196795e-06
2.3684773e-06
2.3787819e-06
2.3650704e-06
2.4347078e-06
2.5262191e-06
2.651445e-06
2.8087693e-06
2.9983431e-06
3.2174512e-06
3.4678903e-06
3.7510027e-06
4.0695085e-06
4.4264854e-06
4.8257767e-06
5.2680369e-06
5.7646877e-06
6.3193343e-06
6.9393645e-06
7.6337012e-06
8.413219e-06
9.2912791e-06
1.0284385e-05
1.1413009e-05
1.2702639e-05
1.4185004e-05
1.589944e-05
1.7894926e-05
2.0232951e-05
2.2989062e-05
2.6253566e-05
3.0141763e-05
3.4807321e-05
4.0418114e-05
4.714386e-05
5.5658182e-05
6.5590264e-05
7.7659851e-05
9.2318604e-05
0.00011014358
0.00013182812
0.00015822114
0.00019208864
0.00023150485
0.00027948933
0.00033791097
0.00041300058
0.00050025363
0.00060648619
0.00073585867
0.00089346109
0.0010207405
0.0010195581
0.0010183216
0.001017026
0.0010156659
0.0010142356
0.0010127284
0.0010111372
0.001009454
0.0010077312
0.0010062657
0.0010050242
0.0010039779
0.0010031031
0.001002381
0.0010017939
0.0010013223
0.0010009624
0.0010007235
0.0010005589
0.001000416
0.0010004911
0.001000714
6.4901297e-07
5.4529502e-06
3.8714212e-06
2.4950623e-06
2.647938e-06
2.110772e-06
2.0866076e-06
1.9625776e-06
1.9834129e-06
2.0163209e-06
2.1057521e-06
2.2162645e-06
2.3625259e-06
2.5366128e-06
2.7396995e-06
2.9712468e-06
3.2331802e-06
3.5274756e-06
3.856984e-06
4.2249605e-06
4.6331476e-06
5.0893404e-06
5.5973493e-06
6.163321e-06
6.7946002e-06
7.5000772e-06
8.2906233e-06
9.1796423e-06
1.0183755e-05
1.1323668e-05
1.2625217e-05
1.4120548e-05
1.5849605e-05
1.786248e-05
2.0221783e-05
2.3002885e-05
2.6297299e-05
3.0228033e-05
3.4951162e-05
4.0615341e-05
4.772216e-05
5.598728e-05
6.6040911e-05
7.8246339e-05
9.3070927e-05
0.00011109451
0.00013301882
0.00015969812
0.00019388919
0.00023370753
0.00028217063
0.00034116196
0.0004169513
0.00050501855
0.00061222698
0.00074277505
0.0009018019
0.0010200424
0.0010188633
0.0010176327
0.0010163461
0.0010149988
0.0010135856
0.0010121006
0.0010105377
0.0010088899
0.0010072647
0.0010058839
0.0010047156
0.001003732
0.0010029103
0.0010022318
0.0010016784
0.0010012324
0.0010008917
0.0010006567
0.0010004792
0.0010003324
0.001000378
0.0010005463
4.9768291e-07
3.1619752e-06
2.9037773e-06
2.0590558e-06
2.024129e-06
1.70171e-06
1.677599e-06
1.6285138e-06
1.6721038e-06
1.7388818e-06
1.8479397e-06
1.978482e-06
2.1406776e-06
2.3288271e-06
2.5441016e-06
2.7872087e-06
3.0602593e-06
3.3655771e-06
3.7060836e-06
4.0850983e-06
4.5064864e-06
4.9727465e-06
5.4921285e-06
6.0694351e-06
6.7119724e-06
7.4286091e-06
8.230229e-06
9.1302966e-06
1.0145573e-05
1.1297006e-05
1.2610761e-05
1.4119407e-05
1.5863638e-05
1.7894721e-05
2.0275675e-05
2.3081451e-05
2.6407402e-05
3.0547414e-05
3.5357884e-05
4.1106051e-05
4.7998043e-05
5.6358154e-05
6.652053e-05
7.8849043e-05
9.3825936e-05
0.00011202997
0.000134172
0.00016252396
0.00019554086
0.00023571166
0.00028459378
0.00034408412
0.00042041862
0.00050918874
0.00061724147
0.00074880941
0.00090907569
0.0010193894
0.0010182168
0.0010169953
0.0010157209
0.0010143895
0.0010129963
0.0010115365
0.0010100045
0.0010083945
0.0010068573
0.0010055532
0.001004451
0.0010035242
0.0010027508
0.0010021119
0.0010015891
0.0010011668
0.0010008425
0.0010006089
0.0010004223
0.0010002755
0.0010002894
0.001000393
3.8760496e-07
2.0351952e-06
2.2396484e-06
1.6083665e-06
1.5557997e-06
1.3723074e-06
1.3658271e-06
1.3682175e-06
1.4344385e-06
1.5273776e-06
1.6534842e-06
1.8015737e-06
1.9769882e-06
2.177168e-06
2.4034581e-06
2.6572651e-06
2.9408104e-06
3.2565815e-06
3.6075106e-06
3.9969204e-06
4.4286356e-06
4.9070735e-06
5.4374044e-06
6.0257579e-06
6.679503e-06
7.4076114e-06
8.22112e-06
9.1337161e-06
1.016248e-05
1.1328781e-05
1.2659275e-05
1.4187175e-05
1.5954311e-05
1.8013071e-05
2.0426346e-05
2.3270256e-05
2.6647688e-05
3.0691737e-05
3.5530803e-05
4.1299122e-05
4.8239149e-05
5.6675694e-05
6.6920278e-05
7.9345507e-05
9.4436539e-05
0.00011372571
0.00013618907
0.00016350269
0.00019672283
0.00023713322
0.00028629802
0.00034939149
0.00042271943
0.00051194605
0.00062054906
0.00075278503
0.00091386851
0.0010187907
0.0010176276
0.0010164182
0.0010151589
0.0010138462
0.0010124759
0.0010110436
0.0010095448
0.0010079744
0.001006514
0.0010052767
0.0010042323
0.0010033553
0.0010026242
0.00100202
0.0010015245
0.0010011241
0.0010008144
0.0010005831
0.0010003938
0.0010002519
0.0010002417
0.001000294
3.0460554e-07
1.5766331e-06
1.6613652e-06
1.2662713e-06
1.2100451e-06
1.117247e-06
1.1300526e-06
1.1699876e-06
1.2560785e-06
1.3689041e-06
1.5088834e-06
1.6710143e-06
1.8570674e-06
2.0671563e-06
2.3027763e-06
2.565678e-06
2.8581243e-06
3.1826684e-06
3.5422319e-06
3.9401228e-06
4.3801344e-06
4.8666508e-06
5.4048042e-06
6.000684e-06
6.6616202e-06
7.3965501e-06
8.2164889e-06
9.1351364e-06
1.0169636e-05
1.1341422e-05
1.2677216e-05
1.4210582e-05
1.5983996e-05
1.8049575e-05
2.0469168e-05
2.3322338e-05
2.6718822e-05
3.0782289e-05
3.5619145e-05
4.1387814e-05
4.8365699e-05
5.7265831e-05
6.7626508e-05
8.0188719e-05
9.5437327e-05
0.00011395945
0.00013646994
0.00016383773
0.00019712014
0.00023760064
0.00028945911
0.00034979354
0.00042319017
0.00051249908
0.00062120358
0.0007535685
0.00091481964
0.0010182568
0.0010171059
0.0010159113
0.0010146698
0.001013378
0.0010120325
0.0010106296
0.0010091653
0.0010076353
0.0010062389
0.0010050572
0.001004061
0.0010032255
0.0010025295
0.0010019542
0.0010014819
0.0010011002
0.0010008026
0.0010005739
0.0010003857
0.001000249
0.0010002177
0.0010002255
2.1483869e-07
1.2114931e-06
1.2144903e-06
1.0115574e-06
9.5809758e-07
9.2613372e-07
9.6026998e-07
1.0292744e-06
1.1336602e-06
1.2630111e-06
1.415622e-06
1.5898207e-06
1.7863201e-06
2.0061539e-06
2.2510201e-06
2.5225826e-06
2.8236799e-06
3.1566902e-06
3.5245232e-06
3.9304898e-06
4.3783748e-06
4.8725393e-06
5.41809e-06
6.0210786e-06
6.688793e-06
7.430126e-06
8.2560593e-06
9.1802853e-06
1.0219944e-05
1.1396433e-05
1.2736544e-05
1.4274248e-05
1.605206e-05
1.812066e-05
2.0617284e-05
2.349619e-05
2.6927504e-05
3.1013577e-05
3.5858655e-05
4.166426e-05
4.8710271e-05
5.7253776e-05
6.759505e-05
8.013531e-05
9.5351657e-05
0.0001138312
0.00013628367
0.00016503369
0.00019845685
0.00023908818
0.00028849239
0.00034857639
0.00042166583
0.00051060016
0.00061885076
0.00075066853
0.00091126349
0.0010177989
0.0010166628
0.0010154852
0.0010142634
0.0010129945
0.0010116753
0.0010103026
0.001008873
0.0010073828
0.001006036
0.0010048974
0.0010039383
0.0010031347
0.0010024655
0.0010019121
0.0010014577
0.0010010905
0.0010008018
0.0010005754
0.0010003903
0.001000258
0.0010002089
0.0010001818
2.0040396e-07
9.7536146e-07
8.7628603e-07
8.1232136e-07
7.8176256e-07
7.8776431e-07
8.4019475e-07
9.2813111e-07
1.0442099e-06
1.1827345e-06
1.3418068e-06
1.5212102e-06
1.721818e-06
1.9450187e-06
2.1925951e-06
2.46664e-06
2.7695184e-06
3.1037876e-06
3.4720305e-06
3.8776234e-06
4.3243506e-06
4.8165695e-06
5.3593601e-06
5.9587401e-06
6.6219487e-06
7.3578188e-06
8.177269e-06
9.093917e-06
1.0124771e-05
1.129107e-05
1.2619611e-05
1.4144316e-05
1.5906495e-05
1.7955299e-05
2.0355639e-05
2.3197616e-05
2.6578433e-05
3.0579163e-05
3.5329164e-05
4.1059657e-05
4.8012904e-05
5.6422767e-05
6.7116804e-05
7.9552533e-05
9.463863e-05
0.00011295484
0.00013520486
0.00016224499
0.00019511688
0.00023508875
0.00028370551
0.00034285094
0.00041482372
0.00050243169
0.0006091092
0.00073906344
0.00089745266
0.0010174402
0.0010163212
0.0010151627
0.0010139622
0.0010127172
0.0010114251
0.0010100831
0.0010086884
0.001007238
0.0010059224
0.0010048107
0.0010038749
0.001003091
0.0010024381
0.0010018976
0.0010014534
0.0010010939