/*--------------------------------*- C++ -*----------------------------------*\
  =========                 |
  \\      /  F ield         | OpenFOAM: The Open Source CFD Toolbox
   \\    /   O peration     | Website:  https://openfoam.org
    \\  /    A nd           | Version:  6
     \\/     M anipulation  |
\*---------------------------------------------------------------------------*/
FoamFile
{
    version     2.0;
    format      ascii;
    class       volScalarField;
    location    "250";
    object      omega;
}
// * * * * * * * * * * * * * * * * * * * * * * * * * * * * * * * * * * * * * //

dimensions      [0 0 -1 0 0 0 0];

internalField   nonuniform List<scalar> 
16000
(
1350.0192
1539.5834
817.65579
502.22481
342.43644
258.20632
194.21195
159.52915
129.09466
109.97169
93.128363
80.909851
70.377094
62.03492
54.980403
49.18442
44.247746
40.078215
36.49035
33.402141
30.717155
28.375406
26.31969
24.508395
22.905345
21.48206
20.214343
19.082368
18.069406
17.161484
16.346811
15.615446
14.958859
14.369726
13.841669
13.369099
12.947036
12.570982
12.236836
11.940813
11.679399
11.449389
11.247785
11.071787
10.918779
10.786331
10.672171
10.574206
10.490546
10.419512
10.359676
10.309914
10.269555
10.238795
10.218254
10.205772
10.197978
10.191607
10.184648
10.17598
10.164359
10.14962
10.131558
10.110351
10.087008
10.063593
10.042176
10.023699
10.007892
9.9948047
9.9839848
9.9763339
9.9698511
9.9680512
9.9645303
9.9737388
9.9732215
10.003147
9.9822673
10.015194
1270.6463
1581.5716
820.59035
509.1515
344.03161
261.67696
195.53852
161.36016
130.03141
110.88114
93.65169
81.279354
70.564035
62.187198
55.08186
49.258551
44.295552
40.109295
36.508105
33.410818
30.719386
28.373509
26.315295
24.50271
22.899242
21.476166
20.209099
19.078062
18.066204
17.159439
16.34591
15.615639
14.960083
14.371856
13.844532
13.372523
12.950851
12.575079
12.241141
11.945253
11.683888
11.453856
11.252175
11.076052
10.922879
10.79024
10.675868
10.577671
10.493751
10.422412
10.362191
10.311887
10.270641
10.23814
10.215188
10.201252
10.19289
10.186474
10.179739
10.17194
10.162266
10.149238
10.132594
10.112388
10.089461
10.065961
10.044261
10.025523
10.009545
9.996231
9.9853508
9.9773721
9.9710984
9.968852
9.9655099
9.9728126
9.9728551
10.001793
9.9835394
10.016385
1090.9536
1623.0799
820.00221
515.2068
344.82959
264.62547
196.47075
162.84344
130.71844
111.51802
93.966054
81.432492
70.635234
62.233373
55.090456
49.248257
44.268184
40.072256
36.464621
33.363946
30.671283
28.3258
26.269186
24.458955
22.858362
21.438478
20.174782
19.047177
18.038724
17.13525
16.324826
15.597433
14.944535
14.358741
13.833637
13.363602
12.943647
12.569321
12.236639
11.941871
11.681464
11.452237
11.25123
11.075663
10.922937
10.790653
10.676559
10.578564
10.494775
10.423486
10.363216
10.312722
10.271049
10.237641
10.212645
10.19703
10.187956
10.181408
10.174718
10.167141
10.158319
10.147306
10.132377
10.113465
10.091206
10.067792
10.045907
10.027002
10.01091
9.997474
9.9865411
9.9783873
9.9722386
9.9695684
9.966678
9.9727595
9.9731703
10.000476
9.9840142
10.014913
1117.5112
1661.0575
817.2023
520.33247
344.95007
266.9679
197.07532
163.90145
131.16596
111.81826
94.04972
81.438801
70.586266
62.166815
55.002067
49.149368
44.162529
39.964301
36.357629
33.259577
30.571226
28.230931
26.180242
24.376222
22.781991
21.368443
20.110982
18.98942
17.98677
17.088798
16.283516
15.560887
14.912379
14.330594
13.809141
13.342431
12.925493
12.553842
12.223492
11.930808
11.672253
11.444648
11.24505
11.070703
10.919018
10.787619
10.674273
10.576899
10.493613
10.422709
10.362696
10.312313
10.270549
10.236717
10.210631
10.19309
10.18315
10.17641
10.169706
10.162189
10.153625
10.143536
10.130651
10.113369
10.092072
10.068945
10.046999
10.028027
10.011905
9.9984283
9.9874938
9.979249
9.9732454
9.9702688
9.9678697
9.9728501
9.9737118
9.9983931
9.9849527
10.014358
1141.8427
1693.2341
812.51337
524.42599
344.42076
268.62624
197.36023
164.47378
131.36435
111.75767
93.908934
81.299214
70.417907
61.988454
54.817309
48.962665
43.97913
39.786024
36.187591
33.098174
30.419606
28.089266
26.048811
24.254854
22.670455
21.266392
20.018026
18.905123
17.910677
17.020417
16.222317
15.506325
14.863939
14.287767
13.771432
13.309375
12.896666
12.528864
12.201957
11.912331
11.656497
11.431315
11.23385
11.061373
10.911307
10.781306
10.669163
10.572812
10.490385
10.420182
10.360712
10.310705
10.269122
10.235198
10.20855
10.189466
10.178476
10.171486
10.164735
10.157218
10.14875
10.13902
10.127374
10.112079
10.092064
10.069445
10.04756
10.028621
10.012553
9.9991187
9.9882342
9.9799724
9.9741073
9.970952
9.9690088
9.9728682
9.9744407
9.9964394
9.9858754
10.012799
1163.9237
1716.6424
806.39906
527.37949
343.29387
269.50626
197.34523
164.48233
131.2989
111.49777
93.62167
81.012415
70.129066
61.697343
54.535205
48.687453
43.71727
39.536861
35.953968
32.879289
30.216031
27.900498
25.874643
24.094663
22.523632
21.132255
19.895895
18.794303
17.810493
16.930185
16.141328
15.433868
14.79935
14.230399
13.720664
13.264621
12.857378
12.494531
12.172123
11.886566
11.634326
11.41235
11.217731
11.047764
10.899886
10.771787
10.661291
10.566355
10.485132
10.415934
10.357279
10.307897
10.266735
10.232985
10.206146
10.186187
10.173924
10.16662
10.1598
10.15225
10.143812
10.134242
10.123109
10.109502
10.091134
10.06927
10.047578
10.028771
10.012844
9.9995335
9.9887541
9.9805444
9.974815
9.9715856
9.9700526
9.9730116
9.9752384
9.994746
9.9869259
10.011931
1183.7908
1728.1904
799.37359
529.06378
341.62512
269.49809
197.04774
163.92677
130.92338
111.04098
93.189032
80.579687
69.720028
61.294426
54.156171
48.324452
43.377425
39.217374
35.657253
32.603473
29.961031
27.665184
25.658302
23.896243
22.342128
20.96665
19.745216
18.657592
17.686849
16.81873
16.041172
15.344126
14.719206
14.159067
13.65739
13.208696
12.808145
12.451363
12.134426
11.853887
11.606105
11.38809
11.196994
11.030149
10.884996
10.759272
10.650843
10.557685
10.477987
10.410078
10.352489
10.303956
10.263425
10.230066
10.203312
10.182965
10.169494
10.161801
10.154895
10.147292
10.138849
10.12936
10.118494
10.105617
10.089252
10.068428
10.047062
10.028487
10.012789
9.9996807
9.9890659
9.9809698
9.9753782
9.9721648
9.9709795
9.9732508
9.9760509
9.9930059
9.9878366
10.010879
1201.509
1724.6949
791.81962
529.28293
339.47038
268.45591
196.47305
163.08289
130.22196
110.38973
92.611046
80.002522
69.19078
60.780606
53.680428
47.874308
42.959981
38.828088
35.297914
32.271248
29.655148
27.383892
25.400389
23.660222
22.126589
20.770245
19.566669
18.495679
17.540431
16.686731
15.922524
15.237758
14.62415
14.074392
13.582206
13.142167
12.749501
12.399872
12.089357
11.81471
11.572222
11.358889
11.17195
11.008805
10.866883
10.743976
10.638001
10.546959
10.469083
10.402722
10.346426
10.298947
10.259234
10.226449
10.199982
10.179515
10.165191
10.157015
10.150011
10.14234
10.133871
10.124425
10.113733
10.101343
10.086379
10.066929
10.046028
10.027782
10.012396
9.9995682
9.98918
9.9812536
9.975809
9.9726823
9.9717825
9.9735724
9.9768547
9.9914159
9.9886644
10.009956
1217.2069
1711.3774
783.49814
527.80065
336.91637
266.43425
195.59859
161.97882
129.36504
109.55145
91.890017
79.285079
68.543012
60.158443
53.109445
47.338709
42.466237
38.370265
34.877113
31.883759
29.299486
27.057721
25.101983
23.387684
21.878102
20.544121
19.361326
18.309619
17.372276
16.535205
15.786378
15.115728
14.515108
13.97726
13.495955
13.065827
12.682185
12.340751
12.037554
11.769631
11.533182
11.32521
11.143016
10.984099
10.845871
10.726178
10.623007
10.534382
10.45859
10.394008
10.339209
10.292962
10.25423
10.222174
10.196163
10.175808
10.161036
10.152249
10.14514
10.137391
10.128882
10.119455
10.10888
10.096798
10.082563
10.064795
10.044505
10.026678
10.011687
9.9992122
9.9891139
9.9814087
9.9761275
9.9731403
9.9724676
9.9739612
9.9776304
9.9900025
9.9893536
10.008846
1231.0715
1699.5157
773.91847
524.39551
334.04953
264.02161
194.37524
160.6358
128.35891
108.53636
91.028729
78.432675
67.778904
59.430846
52.444983
46.719566
41.897707
37.845374
34.39622
31.44237
28.895389
26.688009
24.764417
23.079962
21.597992
20.289596
19.130497
18.100704
17.183646
16.365378
15.633929
14.979187
14.39318
13.868719
13.399629
12.980604
12.607057
12.274813
11.979744
11.719306
11.489575
11.287589
11.110657
10.956442
10.822318
10.706185
10.606127
10.520176
10.446696
10.384092
10.330963
10.286104
10.248491
10.217294
10.191873
10.171805
10.156933
10.147492
10.140274
10.132442
10.123887
10.114464
10.103978
10.092136
10.078467
10.062056
10.042532
10.025208
10.010686
9.998634
9.9888882
9.981452
9.9763575
9.9735449
9.9730494
9.9744058
9.9783703
9.9888028
9.9899481
10.007813
1243.3164
1688.6715
763.37905
518.78659
330.89677
261.27446
192.70372
159.07396
127.20609
107.35394
90.028893
77.450016
66.900282
58.60047
51.688781
46.018791
41.256078
37.25504
33.856878
30.948737
28.444521
26.27642
24.389357
22.73874
21.287937
20.008336
18.875829
17.870553
16.97611
16.178766
15.46665
14.829542
14.259706
13.750035
13.294416
12.887603
12.525123
12.203012
11.916768
11.664501
11.442099
11.246642
11.0754
10.926298
10.796631
10.684346
10.587658
10.504594
10.433611
10.373146
10.321831
10.278486
10.242107
10.211874
10.187147
10.167478
10.152643
10.142736
10.135407
10.127492
10.118888
10.109465
10.099049
10.087398
10.074154
10.058742
10.040158
10.023415
10.009429
9.9978611
9.9885272
9.9814059
9.9765271
9.973909
9.9735513
9.974897
9.9790701
9.9878553
9.9904597
10.006633
1254.2168
1678.3147
751.98785
510.89967
327.46155
258.25647
190.83853
157.31301
125.90713
106.01317
88.89181
76.341317
65.908832
57.669681
50.84251
45.238261
40.543173
36.601023
33.254809
30.398377
27.94258
25.818973
23.973213
22.360863
20.945196
19.697983
18.59531
17.617457
16.748218
15.974124
15.283512
14.66593
14.113961
13.620604
13.179825
12.786424
12.436027
12.125122
11.849576
11.606065
11.391511
11.203053
11.037824
10.894175
10.769258
10.661036
10.567925
10.487906
10.419557
10.361355
10.311964
10.270231
10.235176
10.205991
10.18204
10.162861
10.148179
10.137973
10.130538
10.122541
10.113891
10.104468
10.094116
10.082626
10.069702
10.054892
10.037445
10.021347
10.007954
9.9969259
9.9880579
9.9812958
9.9766658
9.9742504
9.9740018
9.9754268
9.9797298
9.9871824
9.9909498
10.005461
1264.0276
1667.6282
739.89505
502.53642
323.69025
255.01024
188.89083
155.36881
124.45863
104.52021
87.61699
75.108854
64.805175
56.639775
49.896388
44.365723
39.746417
35.872709
32.591471
29.794409
27.393696
25.320337
23.520903
21.951367
20.57477
19.363418
18.293662
17.345944
16.504255
15.755462
15.088306
14.491881
13.959212
13.483435
13.05862
12.679603
12.341974
12.042759
11.777713
11.543618
11.337488
11.156597
10.998553
10.860615
10.740678
10.636653
10.547273
10.470398
10.404773
10.348914
10.301519
10.261467
10.227799
10.199724
10.176613
10.157995
10.143562
10.133203
10.125667
10.117596
10.108904
10.099485
10.089199
10.077864
10.065233
10.05095
10.034461
10.019064
10.006309
9.9958651
9.9875087
9.9811484
9.9768027
9.974591
9.9744313
9.9759863
9.9803475
9.9867647
9.9914407
10.004514
1273.0402
1655.5566
727.20561
493.76038
319.45566
251.57238
186.85531
153.25786
122.85742
102.88094
86.204518
73.75463
63.5661
55.484875
48.844693
43.402775
38.87126
35.076707
31.86948
29.139599
26.800828
24.783538
23.035428
21.513297
20.179667
19.007583
17.973741
17.058778
16.246852
15.525184
14.883349
14.309553
13.797452
13.340352
12.932478
12.568744
12.244427
11.957462
11.70338
11.479084
11.281669
11.108398
10.957238
10.825329
10.710699
10.611608
10.526069
10.45237
10.389504
10.336023
10.29066
10.252326
10.220085
10.19316
10.170931
10.152928
10.138818
10.128427
10.120799
10.112662
10.103938
10.094531
10.084316
10.073135
10.060779
10.046965
10.031283
10.01663
10.004548
9.9947188
9.9869085
9.980989
9.9769636
9.9749546
9.9748694
9.9765665
9.9809151
9.9865461
9.9918869
10.003753
1281.5552
1640.5197
714.01785
484.63138
314.82963
247.97494
184.71596
150.99304
121.09826
101.09791
84.61236
72.22546
62.181736
54.208303
47.688223
42.351039
37.920048
34.215771
31.092014
28.437291
26.167588
24.212284
22.520399
21.050322
19.763483
18.633949
17.638882
16.759167
15.979068
15.285966
14.669042
14.119218
13.628841
13.19141
12.801366
12.453906
12.144851
11.870538
11.627727
11.413484
11.225037
11.059437
10.915293
10.789488
10.680084
10.585622
10.504127
10.434139
10.374005
10.32289
10.279552
10.24294
10.212139
10.186384
10.165062
10.147709
10.133979
10.123652
10.115945
10.107753
10.099008
10.089623
10.079488
10.068464
10.056374
10.042986
10.027993
10.014115
10.002727
9.9935298
9.9862863
9.9808393
9.9771685
9.9753651
9.9753468
9.9771652
9.9814268
9.9864635
9.992253
10.003176
1289.8555
1620.1848
700.38795
475.18701
310.41075
244.2435
182.44381
148.58206
119.17415
99.079455
82.81074
70.524492
60.649273
52.809511
46.428015
41.212594
36.895851
33.293452
30.263223
27.691727
25.498561
23.611273
21.980205
20.563367
19.326811
18.242855
17.289253
16.447212
15.701066
15.03869
14.449538
13.92479
13.457024
13.039956
12.668219
12.337181
12.042809
11.78157
11.550348
11.346406
11.167333
11.010463
10.873381
10.753739
10.649474
10.559599
10.482002
10.415497
10.358542
10.309726
10.268366
10.233444
10.20407
10.179485
10.159077
10.142393
10.12908
10.118893
10.111119
10.102886
10.094133
10.084781
10.074737
10.063879
10.052053
10.039064
10.024673
10.011589
10.000905
9.992343
9.9856708
9.9807156
9.9774276
9.9758413
9.9758931
9.9777903
9.9818894
9.9864798
9.9924733
10.002721
1298.1768
1591.0137
686.32248
465.38862
306.17971
240.39774
179.9954
145.95689
116.92486
96.807813
80.788029
68.646302
58.966116
51.288474
45.066246
39.990753
35.803258
32.31469
29.388817
26.908378
24.794123
22.980616
21.416024
20.059077
18.87657
17.841159
16.931471
16.129256
15.418679
14.788312
14.227944
13.729055
13.284501
12.888247
12.535152
12.220782
11.941276
11.693227
11.473602
11.279777
11.109785
10.960934
10.831014
10.717774
10.619353
10.534015
10.460123
10.396911
10.342904
10.296757
10.257274
10.223972
10.195982
10.172549
10.153047
10.137035
10.124162
10.114167
10.106343
10.098084
10.089335
10.080031
10.070089
10.059405
10.047848
10.035248
10.021404
10.009122
9.999141
9.9912045
9.9850917
9.9806292
9.9777394
9.9763885
9.9765272
9.9784553
9.9823285
9.9865971
9.9926403
10.002287
1306.6792
1547.4547
671.75686
455.15752
302.06486
236.45177
177.33631
142.93642
114.33789
94.269079
78.530623
66.584111
57.130373
49.646244
43.606912
38.690635
34.649091
31.286158
28.467786
26.087724
24.06326
22.329949
20.836964
19.543953
18.418868
17.434414
16.570444
15.809871
15.136011
14.538499
14.007518
13.534899
13.113813
12.738511
12.404107
12.106401
11.841733
11.606851
11.398777
11.214742
11.053634
10.912496
10.789479
10.682342
10.589262
10.508612
10.438896
10.378732
10.327464
10.283788
10.246469
10.214666
10.187978
10.165663
10.147044
10.131695
10.11927
10.1095
10.101643
10.093375
10.084646
10.075401
10.065571
10.05507
10.043789
10.031581
10.01826
10.006779
9.9974908
9.9901601
9.9845809
9.9805911
9.9780933
9.9769937
9.9772467
9.9791691
9.9827669
9.9867906
9.9928009
10.001818
1315.295
1496.169
656.44012
444.33092
297.92136
232.35356
175.30803
139.5505
111.34619
91.43607
76.022786
64.328507
55.140434
47.885298
42.05662
37.319514
33.429728
30.206787
27.512609
25.242439
23.315241
21.667992
20.25115
19.02528
17.960582
17.02881
16.21124
15.491073
14.854526
14.290251
13.788871
13.34261
12.944984
12.590558
12.274726
11.993546
11.743596
11.521848
11.325562
11.152284
10.999793
10.865857
10.749412
10.64814
10.560158
10.483933
10.418068
10.361297
10.312485
10.271123
10.23578
10.205683
10.180161
10.158914
10.141141
10.126432
10.114451
10.104926
10.097056
10.088795
10.080101
10.070927
10.061216
10.050902
10.039899
10.028092
10.015311
10.004614
9.9960028
9.9892525
9.9841731
9.9806183
9.9784812
9.9776317
9.9780268
9.9799344
9.9832314
9.9870141
9.9929129
10.001283
1323.6536
1440.5781
642.8648
432.64189
294.06442
229.48023
171.58565
135.62631
107.92247
88.262447
73.24841
61.873807
52.999582
46.013361
40.410493
35.875254
32.163042
29.095094
26.536383
24.38466
22.561197
21.004884
19.668008
18.510818
17.50545
16.627664
15.857796
15.179816
14.580606
14.049394
13.577305
13.156996
12.782368
12.448317
12.150532
11.885336
11.649545
11.440325
11.255113
11.091629
10.947834
10.821696
10.711316
10.615606
10.532443
10.46038
10.398094
10.344385
10.29818
10.258981
10.225461
10.196888
10.172625
10.152384
10.135409
10.121309
10.109757
10.100484
10.09262
10.084386
10.075745
10.066653
10.057066
10.046932
10.036191
10.024778
10.012612
10.002674
9.9947138
9.9885155
9.9839008
9.9807363
9.9789095
9.9782823
9.978827
9.9807289
9.9837424
9.9872594
9.9929464
10.000628
1331.137
1396.276
631.86322
428.68398
292.10527
224.03817
167.10989
131.08993
104.02283
84.733709
70.203793
59.229484
50.723453
44.030406
38.692292
34.384772
30.868534
27.968886
25.555143
23.528656
21.813728
20.351459
19.093542
18.007099
17.063532
16.239837
15.517395
14.881068
14.318494
13.819548
13.375903
12.98069
12.628214
12.313714
12.033183
11.783217
11.560866
11.363503
11.18876
11.034456
10.898645
10.779423
10.675622
10.585112
10.50645
10.438275
10.379334
10.328491
10.284731
10.24754
10.215714
10.188557
10.165465
10.146155
10.129921
10.116389
10.105242
10.096216
10.088381
10.080196
10.071626
10.062634
10.053178
10.043214
10.03269
10.021551
10.010212
10.000992
9.9936471
9.9879685
9.9837856
9.9809696
9.9794015
9.9789515
9.9796133
9.9814891
9.9842481
9.9875169
9.9928828
9.9998587
1336.7344
1377.4405
622.67684
430.40102
290.22555
217.1623
161.85249
125.8842
99.608925
80.852083
66.903109
56.420368
48.316483
41.973027
36.932446
32.875454
29.570637
26.849668
24.587556
22.690426
21.086754
19.71726
18.541038
17.525124
16.642614
15.871918
15.195603
14.599521
14.072142
13.604037
13.187468
12.816059
12.484528
12.188463
11.924152
11.688446
11.478611
11.292257
11.127357
10.981681
10.853245
10.740998
10.642702
10.556977
10.482447
10.417836
10.361971
10.313762
10.272291
10.236931
10.20665
10.18079
10.158773
10.140308
10.124748
10.111735
10.100962
10.092172
10.084389
10.076275
10.067799
10.058928
10.049627
10.039854
10.029566
10.018715
10.008143
9.9995886
9.9928135
9.9876155
9.9838301
9.9813275
9.9799806
9.9796718
9.980404
9.9822039
9.9847223
9.9877803
9.9926822
9.9989292
1337.933
1392.2186
613.94911
417.94441
283.65774
209.4212
155.5475
120.07149
94.697808
76.655907
63.384994
53.466064
45.835695
39.88449
35.168731
31.380077
28.297784
25.761912
23.654281
21.886439
20.391262
19.117204
18.021126
17.073761
16.250091
15.530078
14.89757
14.339474
13.845137
13.405856
13.014498
12.665193
12.353075
12.074078
11.824773
11.602213
11.403795
11.22721
11.07145
10.93392
10.812742
10.706201
10.612914
10.53151
10.460687
10.399263
10.346171
10.300266
10.261008
10.227278
10.198373
10.173676
10.152644
10.134929
10.119968
10.107416
10.096978
10.088404
10.080695
10.072674
10.064315
10.055587
10.04646
10.036898
10.026864
10.016316
10.006435
9.9984782
9.992215
9.9874493
9.9840209
9.9817971
9.9806463
9.9804634
9.9812445
9.9829528
9.9852676
9.9881571
9.9925968
9.9980661
1331.3994
1374.5998
602.81271
405.40828
275.02802
200.37497
148.13832
113.5881
89.343057
72.213616
59.733933
50.450928
43.346862
37.820042
33.447857
29.938142
27.083533
24.734495
22.780846
21.140378
19.750878
18.564651
17.544678
16.661899
15.893268
15.220354
14.628308
14.105105
13.640966
13.22791
12.859404
12.530076
12.235479
11.971908
11.736239
11.525765
11.33808
11.171136
11.023142
10.892328
10.776903
10.675393
10.586585
10.509025
10.441457
10.382728
10.332232
10.288621
10.251038
10.218712
10.190978
10.167257
10.147176
10.130105
10.115658
10.103504
10.093355
10.08497
10.077354
10.069447
10.061223
10.052657
10.043722
10.034387
10.02462
10.014387
10.005106
9.9976685
9.9918492
9.9874582
9.9843382
9.9823533
9.9813726
9.9813019
9.9821224
9.9837519
9.9859225
9.988696
9.9927551
9.9975847
1313.3655
1315.6344
591.49098
389.68775
264.13562
189.96123
139.76529
106.59016
83.726351
67.688799
56.089802
47.488632
40.938438
35.849552
31.825923
28.594935
25.964098
23.796367
21.990511
20.471239
19.181734
18.078521
17.127892
16.303391
15.584028
14.952992
14.396726
13.904231
13.466553
13.076378
12.727714
12.415633
12.136063
11.885623
11.661468
11.461141
11.282312
11.123128
10.981882
10.85679
10.746176
10.648732
10.563895
10.489803
10.425268
10.369213
10.320653
10.278698
10.24255
10.211417
10.184652
10.161902
10.14247
10.125927
10.111902
10.100073
10.090162
10.081932
10.074429
10.066652
10.05858
10.05019
10.041459
10.03236
10.022868
10.012952
10.00417
9.9971613
9.9917081
9.9876252
9.9847571
9.9829659
9.9821239
9.9821443
9.9829887
9.9845494
9.9866181
9.9892961
9.9930226
9.9972967
1279.9873
1255.808
580.09728
371.3078
251.11093
178.35652
130.61752
99.27704
78.029223
63.224047
52.564039
44.666998
38.667889
34.012266
30.331523
27.373845
24.956345
22.959244
21.290836
19.883065
18.684661
17.656419
16.767924
15.995275
15.319467
14.725244
14.200266
13.734498
13.31975
12.949317
12.617689
12.320322
12.053453
11.813942
11.599098
11.407406
11.236156
11.083651
10.948204
10.828085
10.721869
10.628407
10.546502
10.474968
10.412597
10.358354
10.311288
10.270535
10.235628
10.205563
10.179727
10.157578
10.13864
10.122498
10.10879
10.097205
10.087471
10.079358
10.071982
10.064349
10.056441
10.048237
10.039718
10.03086
10.02164
10.012034
10.003636
9.9969558
9.9917811
9.9879302
9.9852486
9.983598
9.982856
9.9829388
9.9837893
9.98529
9.9872873
9.9898833
9.9933285
9.9971591
1227.4948
1187.402
570.00655
351.86712
236.32123
166.34366
121.60119
92.489924
72.963382
59.392204
49.623132
42.37494
36.857706
32.565368
29.162033
26.418308
24.173771
22.313866
20.755176
19.435776
18.309089
17.339487
16.499301
15.766733
15.124408
14.558336
14.057172
13.611664
13.214247
12.858715
12.539966
12.253791
11.996714
11.765815
11.558593
11.372821
11.206709
11.058611
10.926799
10.809673
10.70602
10.614711
10.534533
10.464877
10.40412
10.351268
10.305409
10.265711
10.231426
10.201878
10.176471
10.154674
10.136023
10.12011
10.10658
10.095124
10.085476
10.077405
10.07017
10.062692
10.054956
10.046944
10.038638
10.030021
10.021072
10.011773
10.003612
9.9971335
9.9921278
9.988414
9.9858371
9.984259
9.983562
9.9836619
9.9844859
9.9859195
9.9878574
9.9903848
9.993607
9.9971097
1164.0516
1118.8092
546.78511
326.85768
214.46634
149.43643
109.68791
84.149173
67.059698
55.119969
46.464187
39.995467
35.037326
31.15381
28.054184
25.53913
23.468804
21.743085
20.2889
19.051935
17.990944
17.074219
16.276991
15.579633
14.966404
14.424553
13.943683
13.515269
13.132309
12.789031
12.480671
12.203294
11.953631
11.728922
11.52756
11.346861
11.185155
11.040753
10.91196
10.797447
10.696131
10.606838
10.528398
10.459711
10.399741
10.34753
10.302191
10.262915
10.228969
10.199697
10.17451
10.15289
10.134379
10.118574
10.105127
10.093733
10.084126
10.07608
10.068991
10.06167
10.054102
10.04627
10.038158
10.029749
10.021026
10.011972
10.003937
9.9975641
9.992642
9.98899
9.9864512
9.9848883
9.9841862
9.9842553
9.9850117
9.9863538
9.9882122
9.9906241
9.9935833
9.9967983
1119.2972
1147.5031
555.39681
329.35522
214.55465
148.54938
108.58989
83.25302
66.402941
54.662498
46.15842
39.800393
34.920961
31.092342
28.030355
25.540657
23.487026
21.771832
20.323812
19.090022
18.030289
17.113577
16.315558
15.616899
15.002064
14.458446
13.97575
13.545527
13.160825
12.81591
12.506053
12.227347
11.976505
11.750658
11.547476
11.365052
11.201624
11.055411
10.924866
10.808803
10.706072
10.615459
10.535803
10.466007
10.405038
10.351932
10.305801
10.265829
10.231275
10.201474
10.17583
10.153815
10.134963
10.118865
10.105163
10.093546
10.083744
10.075521
10.068602
10.061469
10.054097
10.046471
10.038575
10.030395
10.021913
10.013113
10.004935
9.9984514
9.9934423
9.989719
9.9871183
9.985499
9.9847427
9.9847511
9.9854334
9.9867017
9.9884988
9.9908114
9.9935857
9.9966651
1141.5778
1204.8761
575.99436
343.15608
223.1961
154.32214
112.42792
85.90535
68.298971
56.0639
47.218868
40.617452
35.559265
31.597047
28.433865
25.866775
23.753513
21.992171
20.508241
19.24616
18.163846
17.228908
16.416026
15.705139
15.080152
14.52803
14.038135
13.60174
13.211663
12.861983
12.547829
12.265165
12.010617
11.781444
11.575329
11.390285
11.224345
11.075672
10.942904
10.824874
10.720324
10.628029
10.546834
10.475638
10.413408
10.359174
10.312041
10.271185
10.235856
10.20538
10.179152
10.156634
10.137352
10.120887
10.106876
10.094999
10.08498
10.076579
10.06959
10.062658
10.055493
10.04808
10.040404
10.03245
10.024202
10.015645
10.007121
10.000336
9.9950664
9.9911154
9.9883147
9.9865192
9.9856057
9.9854688
9.9860151
9.9871634
9.9888536
9.9910397
9.993662
9.9966525
31524.695
35291.275
19914.422
13585.094
9708.2885
6998.0737
5069.9312
3701.4627
2725.9937
2025.3124
1513.4436
1139.535
860.36232
656.93398
498.18003
381.34006
288.45855
219.04722
167.59953
129.81091
101.78279
81.19597
65.942073
54.653103
46.203575
39.81147
34.937093
31.138284
28.125654
25.672084
23.628283
21.895214
20.403681
19.104939
17.96436
16.95688
16.063891
15.271059
14.567086
13.943062
13.39127
12.90456
12.476569
12.102191
11.77626
11.493937
11.250792
11.042949
10.868639
10.722655
10.599087
10.494894
10.409742
10.343389
10.293876
10.258368
10.233229
10.214572
10.198812
10.184047
10.168229
10.151569
10.131387
10.110464
10.08432
10.061732
10.034166
10.016253
9.9921801
9.9822512
9.9602989
9.959067
9.9389619
9.9473953
9.9301197
9.9508515
9.9360164
9.969907
9.9470084
9.9767962
34556.616
29862.774
22713.49
16975.987
12382.604
8902.4946
6398.939
4618.7609
3357.472
2458.8593
1812.8445
1343.2644
999.82444
746.51856
559.22587
420.34914
317.24779
240.78708
184.08171
142.09721
110.91834
87.896543
70.86529
58.283876
48.903184
41.824505
36.45447
32.297348
29.032189
26.397135
24.214886
22.374879
20.799487
19.433678
18.238522
17.185975
16.255383
15.430904
14.700211
14.053595
13.48267
12.979803
12.538274
12.152469
11.816983
11.52672
11.276957
11.063318
10.884499
10.734971
10.607778
10.500726
10.41379
10.345972
10.295379
10.259202
10.233781
10.215121
10.19949
10.184916
10.169283
10.152837
10.132795
10.112014
10.085836
10.063197
10.035522
10.017735
9.9933601
9.9835828
9.9614504
9.9602731
9.9400896
9.9485131
9.9312543
9.9519012
9.9372676
9.9711368
9.9482739
9.9779467
38102.493
21321.163
13431.659
8113.0732
4209.0496
1939.9792
875.53253
433.84815
259.12672
183.04853
145.96732
121.86135
105.68398
92.00594
81.492195
73.025026
65.511408
59.412047
53.78084
49.177998
44.854038
41.256617
37.894685
35.06064
32.403516
30.005559
27.931074
26.021012
24.307646
22.751221
21.337981
20.06357
18.914383
17.877608
16.942707
16.100515
15.343039
14.662855
14.053914
13.510875
13.028116
12.60029
12.222586
11.891367
11.602208
11.35108
11.134231
10.94813
10.793527
10.662538
10.548999
10.454375
10.378481
10.320135
10.277285
10.247086
10.225832
10.209766
10.195436
10.181557
10.166066
10.149807
10.12946
10.108878
10.082278
10.060453
10.032593
10.016355
9.9915769
9.9835216
9.9605685
9.9611032
9.939909
9.9499288
9.9315204
9.953635
9.9379161
9.9729579
9.9490581
9.9793452
35285.056
25087.82
14033.865
7127.3832
2979.7605
1093.0729
448.998
252.72004
187.78265
152.28487
131.30128
112.6064
99.764655
87.261648
78.041869
70.369047
63.29548
57.688433
52.268905
47.987469
43.759159
40.381794
37.056337
34.389695
31.758046
29.467353
27.408913
25.550982
23.867037
22.352562
20.98797
19.757422
18.647153
17.645003
16.740774
15.925703
15.192165
14.533138
13.942661
13.415952
12.947437
12.532115
12.165658
11.843918
11.56287
11.318684
11.107745
10.926642
10.776457
10.647826
10.536828
10.444945
10.371393
10.315
10.273716
10.244713
10.224304
10.208778
10.194774
10.181077
10.16572
10.149507
10.129235
10.108629
10.082139
10.060292
10.03268
10.016626
9.9920126
9.9843656
9.9612877
9.9622323
9.9408718
9.9512296
9.9326358
9.9550402
9.9391024
9.9745788
9.9502135
9.9807794
37411.443
24394.057
13373.59
6575.1592
2655.9239
946.32886
402.09206
238.78205
182.36651
148.26379
127.77524
109.4092
96.958959
85.067115
76.563356
68.447241
62.022633
56.141447
51.210987
46.757616
42.916266
39.430981
36.383888
33.594345
31.10813
28.865241
26.855116
25.050815
23.431639
21.972701
20.657681
19.470409
18.397646
17.428226
16.55264
15.762709
15.05129
14.411805
13.838612
13.327074
12.871836
12.468186
12.111936
11.799041
11.525634
11.288007
11.082665
10.906308
10.760268
10.633717
10.52549
10.436288
10.364984
10.310449
10.270652
10.242762
10.223142
10.208093
10.194389
10.180824
10.165596
10.149378
10.129195
10.108503
10.082161
10.06021
10.032906
10.01669
9.9925838
9.9845786
9.9621286
9.9627298
9.9418661
9.9520557
9.9337362
9.9561668
9.9402742
9.9760298
9.9513592
9.9821892
38027
23841.176
12769.495
5897.1942
2150.9101
720.22644
332.98747
217.95298
175.12004
142.92504
124.398
105.94136
94.212749
82.48251
74.432135
66.472775
60.357349
54.630093
49.898151
45.589778
41.876069
38.53484
35.572814
32.896881
30.48496
28.314347
26.371794
24.62716
23.058514
21.64447
20.368953
19.216344
18.174368
17.232389
16.381311
15.613302
14.921477
14.299565
13.742071
13.244384
12.801358
12.408503
12.06172
11.757071
11.490799
11.259308
11.059211
10.887306
10.744892
10.620568
10.515238
10.42855
10.359328
10.306511
10.268077
10.2412
10.222285
10.207653
10.194195
10.18073
10.165595
10.149354
10.129234
10.108449
10.082234
10.060177
10.033182
10.017093
9.9931614
9.9852882
9.9629715
9.9635825
9.9428799
9.9530648
9.9348631
9.957358
9.9414612
9.9775156
9.9525123
9.9836321
39047.802
23328.478
12114.007
5306.2066
1827.5467
607.19497
304.16644
209.55222
170.97027
140.09277
121.84911
103.7757
92.233142
80.649961
72.833122
64.941839
59.04778
53.437112
48.857161
44.651529
41.048783
37.786347
34.908175
32.296008
29.948179
27.836254
25.946804
24.249806
22.724018
21.348027
20.106514
18.984311
17.969656
17.052248
16.223265
15.475125
14.801151
14.195325
13.652213
13.167263
12.735531
12.352688
12.014704
11.717737
11.458131
11.232386
11.037212
10.869494
10.73025
10.608486
10.505945
10.421621
10.354346
10.30313
10.265958
10.24001
10.221728
10.207459
10.194205
10.180809
10.165741
10.149456
10.129379
10.108484
10.082385
10.060203
10.033519
10.017302
9.9937567
9.9856937
9.9638344
9.9642499
9.9439069
9.9539905
9.935992
9.9585225
9.9426507
9.9789829
9.9536659
9.9850779
39888.288
22689.176
11386.305