/*--------------------------------*- C++ -*----------------------------------*\
  =========                 |
  \\      /  F ield         | OpenFOAM: The Open Source CFD Toolbox
   \\    /   O peration     | Website:  https://openfoam.org
    \\  /    A nd           | Version:  6
     \\/     M anipulation  |
\*---------------------------------------------------------------------------*/
FoamFile
{
    version     2.0;
    format      ascii;
    class       volScalarField;
    location    "250";
    object      p;
}
// * * * * * * * * * * * * * * * * * * * * * * * * * * * * * * * * * * * * * //

dimensions      [1 -1 -2 0 0 0 0];

internalField   nonuniform List<scalar> 
16000
(
98607.257
98669.259
98673.628
98733.792
98746.611
98801.906
98824.394
98875.148
98906.076
98954.064
98991.492
99038.55
99080.751
99128.22
99173.938
99222.579
99270.968
99321.08
99371.546
99423.109
99475.175
99527.958
99581.168
99634.8
99688.668
99742.674
99796.661
99850.49
99904.003
99957.046
100009.45
100061.05
100111.7
100161.18
100209.34
100256.03
100301.1
100344.46
100385.96
100425.46
100462.86
100498.06
100530.99
100561.57
100589.76
100615.51
100638.81
100659.64
100678.02
100693.96
100707.49
100718.64
100727.48
100734.05
100738.42
100740.66
100740.84
100739.05
100735.36
100729.85
100722.6
100713.72
100703.23
100691.33
100677.83
100663.34
100646.84
100630.45
100610.33
100593.66
100567.54
100555
100515.13
100520.31
100443.34
100503.47
100330.11
100526.9
100162.31
100575.18
98637.753
98704.2
98708.561
98773.601
98786.689
98846.564
98870.081
98924.87
98957.602
99009.147
99048.955
99099.263
99144.18
99194.727
99243.306
99294.916
99346.175
99399.145
99452.392
99506.661
99561.333
99616.604
99672.165
99727.988
99783.869
99839.69
99895.27
99950.455
100005.07
100058.93
100111.88
100163.72
100214.28
100263.4
100310.91
100356.62
100400.4
100442.1
100481.66
100518.96
100553.89
100586.39
100616.41
100643.91
100668.85
100691.24
100711.09
100728.41
100743.25
100755.65
100765.67
100773.37
100778.83
100782.12
100783.33
100782.54
100779.84
100775.31
100769.04
100761.12
100751.62
100740.64
100728.23
100714.51
100699.45
100683.29
100665.72
100647.53
100627.25
100607.82
100583.61
100565.32
100532.39
100524.28
100465.34
100497.75
100359.71
100512.73
100189.26
100566.16
98688.599
98760.487
98764.854
98835.15
98848.934
98913.449
98938.544
98997.331
99032.378
99087.459
99130.048
99183.628
99231.548
99285.222
99336.85
99391.476
99445.707
99501.554
99557.603
99614.542
99671.762
99729.412
99787.178
99844.999
99902.652
99959.994
100016.83
100072.97
100128.23
100182.42
100235.35
100286.82
100336.67
100384.71
100430.78
100474.73
100516.43
100555.72
100592.51
100626.76
100658.4
100687.38
100713.66
100737.26
100758.18
100776.45
100792.1
100805.21
100815.84
100824.07
100829.98
100833.66
100835.21
100834.73
100832.32
100828.07
100822.09
100814.46
100805.28
100794.63
100782.6
100769.26
100754.69
100738.96
100722.09
100704.21
100685.22
100665.42
100644.27
100622.94
100599.02
100577.38
100547.84
100531.55
100483.7
100497.03
100384.02
100502.77
100214.36
100559.37
98762.038
98839.825
98844.155
98920.277
98934.82
99004.46
99031.323
99094.498
99132.14
99191.079
99236.767
99293.903
99345.132
99402.191
99457.129
99514.991
99572.394
99631.278
99690.253
99749.94
99809.738
99869.743
99929.633
99989.305
100048.52
100107.11
100164.84
100221.53
100276.95
100330.9
100383.18
100433.6
100481.97
100528.12
100571.9
100613.17
100651.8
100687.72
100720.81
100751.02
100778.37
100802.83
100824.41
100843.15
100859.11
100872.35
100882.96
100891.02
100896.65
100899.95
100901.04
100900.04
100897.07
100892.24
100885.67
100877.47
100867.74
100856.6
100844.12
100830.41
100815.53
100799.57
100782.59
100764.64
100745.78
100726.05
100705.45
100684.09
100661.77
100638.93
100614.57
100590.75
100562.68
100541.26
100500.44
100499.9
100406.39
100498.01
100238.63
100561.05
98857.553
98941.994
98946.333
99028.955
99044.479
99119.742
99148.738
99216.667
99257.335
99320.434
99369.637
99430.604
99485.494
99546.184
99604.705
99665.997
99726.753
99788.787
99850.762
99913.206
99975.531
100037.77
100099.6
100160.86
100221.3
100280.71
100338.85
100395.51
100450.44
100503.43
100554.27
100602.78
100648.76
100692.06
100732.54
100770.09
100804.62
100836.05
100864.36
100889.51
100911.51
100930.45
100946.35
100959.3
100969.41
100976.78
100981.54
100983.81
100983.75
100981.49
100977.17
100970.94
100962.95
100953.31
100942.17
100929.64
100915.84
100900.88
100884.84
100867.81
100849.87
100831.09
100811.52
100791.22
100770.22
100748.56
100726.23
100703.29
100679.65
100655.44
100630.29
100604.94
100577.31
100552.53
100516.33
100505.73
100427.22
100496.4
100262.17
100565.99
98975.722
99067.6
99072.06
99161.992
99178.798
99260.308
99291.911
99365.063
99409.3
99476.953
99530.18
99595.334
99654.312
99718.941
99781.362
99846.316
99910.621
99975.928
100040.96
100106.15
100170.9
100235.2
100298.69
100361.18
100422.39
100482.08
100539.99
100595.88
100649.5
100700.64
100749.08
100794.64
100837.14
100876.46
100912.48
100945.13
100974.34
101000.1
101022.43
101041.36
101056.92
101069.26
101078.47
101084.67
101088.02
101088.66
101086.78
101082.55
101076.13
101067.7
101057.42
101045.48
101032.01
101017.18
101001.11
100983.94
100965.79
100946.75
100926.92
100906.39
100885.22
100863.47
100841.2
100818.43
100795.21
100771.54
100747.44
100722.9
100697.88
100672.4
100646.3
100619.76
100592.03
100565.03
100531.84
100513.69
100447.59
100497.57
100285.96
100574.24
99117.397
99217.931
99222.753
99320.954
99339.427
99427.867
99462.643
99541.497
99589.907
99662.506
99720.288
99789.975
99853.452
99922.305
99988.904
100057.7
100125.69
100194.31
100262.36
100330.16
100397.12
100463.14
100527.86
100591.05
100652.38
100711.6
100768.42
100822.59
100873.86
100922.01
100966.85
101008.21
101045.94
101079.96
101110.18
101136.58
101159.16
101177.95
101193.04
101204.51
101212.53
101217.16
101218.65
101217.15
101212.87
101206.01
101196.79
101185.4
101172.05
101156.95
101140.29
101122.23
101102.97
101082.64
101061.4
101039.37
101016.68
100993.41
100969.67
100945.52
100921.02
100896.24
100871.19
100845.92
100820.43
100794.74
100768.84
100742.7
100716.3
100689.61
100662.52
100635.03
100606.93
100578.49
100547.28
100523.51
100467.87
100501.15
100310.48
100584.67
99285.692
99396.336
99401.451
99508.764
99529.132
99625.028
99663.481
99748.405
99801.554
99879.427
99942.263
100016.79
100085.14
100158.47
100229.47
100302.24
100373.95
100445.84
100516.76
100586.89
100655.67
100722.91
100788.23
100851.34
100911.91
100969.64
101024.25
101075.48
101123.09
101166.87
101206.66
101242.32
101273.76
101300.94
101323.85
101342.51
101357
101367.44
101373.96
101376.75
101376
101371.87
101364.66
101354.59
101341.89
101326.83
101309.64
101290.56
101269.83
101247.67
101224.27
101199.84
101174.54
101148.54
101121.97
101094.97
101067.65
101040.09
101012.38
100984.57
100956.73
100928.89
100901.08
100873.3
100845.57
100817.88
100790.2
100762.52
100734.78
100706.94
100678.9
100650.62
100622.03
100592.73
100562.76
100534.92
100488.18
100506.69
100336.02
100597.66
99481.116
99603.216
99608.518
99726.059
99748.811
99852.874
99895.751
99987.268
100045.91
100129.51
100198.02
100277.78
100351.43
100429.49
100505.11
100581.92
100657.33
100732.31
100805.79
100877.82
100947.8
101015.51
101080.51
101142.48
101201.08
101256
101306.95
101353.69
101396
101433.71
101466.71
101494.92
101518.32
101536.93
101550.84
101560.15
101565.02
101565.65
101562.27
101555.12
101544.45
101530.6
101513.8
101494.37
101472.58
101448.74
101423.1
101395.94
101367.51
101338.02
101307.7
101276.75
101245.32
101213.58
101181.66
101149.67
101117.73
101085.9
101054.26
101022.86
100991.73
100960.9
100930.37
100900.16
100870.25
100840.63
100811.25
100782.09
100753.09
100724.19
100695.3
100666.37
100637.28
100607.58
100578.31
100547.78
100508.63
100513.92
100363.14
100612.24
99704.018
99839.325
99845.174
99974.312
100000.19
100113.31
100161.57
100260.31
100325.33
100415.2
100490.04
100575.47
100654.82
100737.86
100818.21
100899.03
100977.94
101055.65
101131.13
101204.31
101274.59
101341.65
101405.06
101464.45
101519.48
101569.85
101615.29
101655.6
101690.61
101720.22
101744.39
101763.13
101776.52
101784.68
101787.78
101786.04
101779.72
101769.11
101754.52
101736.28
101714.71
101690.22
101663.09
101633.67
101602.28
101569.24
101534.84
101499.37
101463.06
101426.17
101388.88
101351.4
101313.88
101276.46
101239.27
101202.41
101165.96
101130
101094.56
101059.68
101025.39
100991.69
100958.58
100926.06
100894.09
100862.65
100831.7
100801.18
100771.03
100741.19
100711.56
100682.1
100652.61
100622.84
100593.92
100561.92
100529.12
100522.69
100392.13
100627.36
99957.005
100107.51
100114.05
100256.21
100286.02
100409.08
100463.78
100570.41
100642.77
100739.46
100821.31
100912.8
100998.19
101086.33
101171.37
101255.96
101337.9
101417.66
101494.24
101567.45
101636.66
101701.5
101761.54
101816.4
101865.76
101909.36
101946.98
101978.49
102003.82
102022.96
102035.98
102043.01
102044.25
102039.94
102030.38
102015.91
101996.87
101973.67
101946.7
101916.36
101883.07
101847.26
101809.23
101769.4
101728.1
101685.67
101642.41
101598.58
101554.44
101510.2
101466.07
101422.22
101378.78
101335.89
101293.64
101252.12
101211.38
101171.49
101132.46
101094.32
101057.07
101020.7
100985.2
100950.53
100916.68
100883.58
100851.2
100819.47
100788.33
100757.69
100727.47
100697.62
100667.88
100638.3
100609.5
100577.12
100549.44
100532.94
100422.7
100642.5
100241.18
100409.5
100417.23
100574.18
100609.08
100743.15
100805.64
100920.93
101001.69
101105.81
101195.33
101293.2
101384.82
101477.98
101567.39
101655.15
101739.26
101819.92
101896.17
101967.7
102033.89
102094.33
102148.6
102196.38
102237.39
102271.44
102298.43
102318.33
102331.21
102337.2
102336.53
102329.46
102316.34
102297.56
102273.54
102244.74
102211.62
102174.68
102134.38
102091.19
102045.6
101998.01
101948.82
101898.42
101847.17
101795.39
101743.37
101691.36
101639.61
101588.3
101537.61
101487.69
101438.66
101390.61
101343.63
101297.76
101253.06
101209.54
101167.21
101126.09
101086.14
101047.35
101009.69
100973.12
100937.59
100903.04
100869.42
100836.67
100804.7
100773.43
100742.8
100712.71
100682.91
100653.7
100624.96
100593.11
100569.33
100544.52
100453.59
100656.66
100560.34
100749.34
100758.78
100932.35
100973.69
101119.82
101191.55
101316.26
101406.47
101518.54
101616.2
101720.58
101818.29
101916.01
102009
102098.81
102183.6
102263.35
102337.12
102404.51
102464.95
102518.03
102563.41
102600.83
102630.14
102651.29
102664.34
102669.43
102666.81
102656.78
102639.76
102616.19
102586.57
102551.45
102511.38
102466.92
102418.65
102367.13
102312.88
102256.42
102198.26
102138.81
102078.49
102017.67
101956.69
101895.86
101835.43
101775.64
101716.69
101658.75
101601.96
101546.42
101492.24
101439.48
101388.19
101338.39
101290.11
101243.35
101198.09
101154.32
101112
101071.1
101031.57
100993.35
100956.4
100920.64
100886.01
100852.43
100819.84
100788.14
100757.27
100727.11
100697.47
100668.77
100640.14
100609.54
100588.56
100557.21
100483.95
100670.06
100917.95
101131.01
101142.87
101335.09
101384.52
101543.81
101626.41
101761.29
101861.94
101982.36
102088.35
102199.02
102302.21
102403.45
102498.53
102588.48
102671.61
102747.69
102815.87
102875.7
102926.7
102968.56
103001.05
103024.09
103037.72
103042.11
103037.51
103024.32
103002.99
102974.06
102938.14
102895.85
102847.87
102794.87
102737.53
102676.5
102612.43
102545.92
102477.53
102407.79
102337.2
102266.18
102195.1
102124.31
102054.11
101984.77
101916.52
101849.55
101784.02
101720.05
101657.74
101597.18
101538.41
101481.48
101426.39
101373.16
101321.77
101272.21
101224.43
101178.41
101134.09
101091.42
101050.34
101010.78
100972.68
100935.97
100900.58
100866.43
100833.43
100801.51
100770.6
100740.55
100711.3
100683.19
100654.85
100626.06
100606.95
100570.86
100513.46
100682.73
101318.16
101559.36
101574.72
101787.88
101847.49
102021.02
102116.27
102261.95
102373.74
102502.61
102616.64
102732.7
102839.96
102942.76
103037.4
103124.43
103202.33
103270.78
103329.01
103376.68
103413.45
103439.22
103453.99
103457.94
103451.39
103434.78
103408.67
103373.7
103330.6
103280.14
103223.12
103160.35
103092.63
103020.76
102945.49
102867.53
102787.56
102706.18
102623.96
102541.39
102458.94
102377.02
102295.89
102215.89
102137.26
102060.22
101984.94
101911.57
101840.22
101770.96
101703.86
101638.95
101576.25
101515.76
101457.47
101401.36
101347.38
101295.5
101245.67
101197.82
101151.9
101107.83
101065.54
101024.97
100986.04
100948.67
100912.77
100878.29
100845.12
100813.2
100782.45
100752.72
100724.06
100696.64
100668.85
100642.24
100624.2
100585.21
100542.26
100694.16
101766.22
102040.35
102060.73
102297.14
102369.38
102558.1
102668.08
102825.23
102948.27
103084.9
103205.79
103325.26
103433.88
103534.88
103625.02
103704.52
103772.08
103827.39
103869.91
103899.51
103916.16
103920.07
103911.59
103891.28
103859.81
103817.97
103766.64
103706.77
103639.33
103565.3
103485.66
103401.35
103313.27
103222.26
103129.11
103034.54
102939.19
102843.65
102748.43
102653.94
102560.64
102468.83
102378.69
102290.51
102204.47
102120.72
102039.39
101960.55
101884.26
101810.56
101739.47
101670.97
101605.05
101541.68
101480.82
101422.41
101366.4
101312.72
101261.31
101212.09
101164.98
101119.91
101076.78
101035.54
100996.08
100958.34
100922.22
100887.66
100854.56
100822.87
100792.48
100763.27
100735.4
100708.74
100681.81
100657.54
100639.84
100599.86
100570.48
100703.71
102269.16
102581.57
102608.72
102870.32
102957.87
103162.53
103288.88
103458.01
103591.78
103734.03
103859.11
103978.45
104083.93
104177.89
104257.53
104322.96
104373.19
104408.15
104427.7
104432.1
104421.79
104397.45
104359.91
104310.17
104249.31
104178.51
104098.96
104011.87
103918.42
103819.75
103716.95
103611
103502.84
103393.29
103283.12
103172.96
103063.42
102954.98
102848.07
102743.01
102640.24
102539.87
102442
102346.89
102254.64
102165.33
102079.03
101995.75
101915.5
101838.27
101764.03
101692.75
101624.36
101558.8
101496.02
101435.92
101378.44
101323.49
101270.99
101220.85
101172.97
101127.29
101083.69
101042.11
101002.45
100964.63
100928.57
100894.18
100861.39
100830.14
100800.32
100771.85
100744.91
100719.1
100693.37
100671.44
100653.59
100614.29
100597.19
100711.16
102834.25
103191.89
103229.51
103518.83
103626.1
103848.03
103988.77
104164.82
104308.38
104453.25
104577.83
104691.27
104786.63
104865.7
104926.31
104968.75
104992.6
104998.29
104986.32
104957.56
104913.08
104854.13
104782.11
104698.47
104604.72
104502.35
104392.81
104277.48
104157.67
104034.56
103909.23
103782.67
103655.72
103529.13
103403.55
103279.54
103157.55
103037.98
102921.1
102807.19
102696.57
102589.16
102485.04
102384.4
102287.25
102193.62
102103.5
102016.85
101933.65
101853.82
101777.31
101704.05
101633.93
101566.89
101502.83
101441.64
101383.25
101327.54
101274.43
101223.81
101175.59
101129.67
101085.96
101044.37
101004.81
100967.2
100931.46
100897.5
100865.25
100834.65
100805.59
100778.05
100752.17
100727.34
100703.1
100683.42
100665.26
100628
100621.37
100716.31
103473.86
103884.9
103939.21
104256.51
104383.94
104617.33
104774.94
104958.16
105104.32
105245.05
105360.37
105458.11
105532.6
105585.48
105615.57
105623.68
105610.32
105576.7
105524.17
105454.38
105369.12
105270.25
105159.68
105039.29
104910.85
104776.08
104636.53
104493.63
104348.64
104202.69
104056.76
103911.68
103768.18
103626.85
103488.17
103352.56
103220.34
103091.74
102966.92
102846.07
102729.38
102616.59
102507.8
102403.08
102302.38
102205.67
102112.89
102023.95
101938.78
101857.28
101779.34
101704.87
101633.76
101565.9
101501.17
101439.48
101380.69
101324.72
101271.45
101220.78
101172.6
101126.82
101083.33
101042.05
101002.89
100965.76
100930.58
100897.27
100865.78
100836.02
100807.89
100781.45
100756.74
100733.01
100710.5
100692.91
100674.5
100640.29
100641.75
100718.58
104216.75
104683.61
104755.37
105093.94
105242.43
105488.76
105655.08
105838.02
105977.55
106102.1
106195.01
106262.81
106301.83
106314.09
106299.83
106260.87
106198.92
106116.21
106015.08
105897.95
105767.29
105625.45
105474.68
105317.08
105154.53
104988.72
104821.15
104653.1
104485.69
104319.84
104156.32
103995.77
103838.7
103685.51
103536.5
103391.91
103251.93
103116.6
102985.97
102860.2
102739.27
102622.8
102510.88
102403.5
102300.57
102202
102107.66
102017.46
101931.25
101848.94
101770.37
101695.44
101624
101555.94
101491.13
101429.45
101370.77
101314.99
101261.99
101211.65
101163.87
101118.55
101075.6
101034.91
100996.41
100960
100925.6
100893.16
100862.6
100833.84
100806.82
100781.61
100758.12
100735.64
100715.04
100699.29
100680.68
100649.75
100658.09
100718.39
105066.9
105586.35
105673.37
106032.96
106214.27
106473.76
106634.39
106799.63
106915.55
107005.25
107056.82
107076.02
107061.7
107016.99
106943.93
106845.68
106725.3
106586.07
106431.16
106263.62
106086.29
105901.74
105712.28
105519.91
105326.38
105133.16
104941.46
104752.31
104566.52
104384.73
104207.46
104035.08
103867.88
103706.04
103549.68
103398.89
103253.67
103113.92
102979.63
102850.94
102727.52
102608.94
102495.36
102386.66
102282.73
102183.4
102088.55
101998.01
101911.65
101829.3
101750.83
101676.1
101604.95
101537.26
101472.88
101411.69
101353.56
101298.37
101246.01
101196.35
101149.3
101104.74
101062.59
101022.75
100985.13
100949.66
100916.24
100884.83
100855.36
100827.74
100801.94
100778.05
100755.84
100734.73
100716.09
100701.84
100683.25
100656.12
100670.16
100715.32
106033.79
106609.39
106739.17
107130.78
107306.48
107542.79
107688.23
107813.97
107884.09
107915.79
107903.24
107852.87
107766.72
107649.65
107505.7
107339.42
107154.99
106956.4
106747.26
106530.79
106309.76
106086.57
105863.22
105641.34
105422.29
105207.11
104996.64
104791.52
104592.21
104399.04
104212.23
104031.91
103858.14
103690.9
103530.15
103375.84
103227.8
103085.82
102949.93
102820.13
102695.72
102576.5
102462.6
102353.82
102249.98
102150.92
102056.46
101966.43
101880.66
101798.99
101721.25
101647.3
101576.98
101510.14
101446.65
101386.37
101329.17
101274.93
101223.54
101174.86
101128.81
101085.28
101044.16
101005.38
100968.84
100934.47
100902.2
100871.96
100843.69
100817.32
100792.84
100770.3
100749.39
100729.79
100713.05
100699.89
100681.88
100659.5
100676.12
100708.23
107176.67
107812.67
107965.85
108336.27
108506.78
108695.86
108789.43
108843.29
108834.34
108778.85
108676.74
108536.45
108363.09
108163.24
107942.44
107706.02
107458.58
107204.11
106946
106687.04
106429.48
106175.13
105925.38
105681.31
105443.7
105213.13
104989.97
104774.47
104566.73
104366.8
104174.64
103990.14
103813.18
103643.58
103481.18
103325.78
103177.07
103034.87
102899.22
102769.77
102645.76
102527.24
102414.18
102306.35
102203.58
102105.64
102012.36
101923.55
101839.03
101758.63
101682.17
101609.5
101540.46
101474.9
101412.68
101353.67
101297.73
101244.74
101194.59
101147.15
101102.33
101060.03
101020.14
100982.59
100947.29
100914.17
100883.16
100854.2
100827.22
100802.17
100779.06
100757.89
100738.32
100720.29
100705.31
100693.04
100676.24
100658.65
100674.92
100696.49
108534.05
109176.39
109326.91
109646.24
109761.37
109860.54
109857.82
109801.19
109680
109511.63
109301.47
109059.88
108794.09
108511.45
108217.81
107918.21
107616.66
107316.4
107019.89
106729.04
106445.22
106169.44
105902.36
105644.4
105395.81
105156.66
104926.93
104706.51
104495.23
104292.87
104099.2
103913.95
103736.83
103567.58
103405.94
103251.56
103104.08
102963.43
102829.56
102701.7
102579.32
102462.6
102351.36
102245.41
102144.5
102048.44
101957.02
101870.04
101787.33
101708.71
101633.99
101563.03
101495.67
101431.75
101371.13
101313.69
101259.28
101207.8
101159.12
101113.14
101069.74
101028.84
100990.34
100954.16
100920.23
100888.46
100858.79
100831.18
100805.54
100781.85
100760.12
100740.29
100722.06
100705.62
100692.17
100680.64
100665.47
100652.35
100666.93
100679.48
110038.81
110651.87
110758.72
110966.73
110971.56
110927.09
110782.51
110580.7
110323.45
110029.24
109707.1
109367.62
109018.17
108665.1
108313.07
107965.66
107625.46
107294.29
106973.38
106663.52
106365.13
106078.39
105803.29
105539.71
105287.4
105046.07
104815.38
104594.97
104384.45
104183.46
103991.61
103808.52
103633.82
103467.2
103308.29
103156.67
103012.04
102874.43
102743.47
102618.17
102498.44
102384.44
102275.86
102172.5
102074.13
101980.53
101891.5
101806.85
101726.39
101649.95
101577.35
101508.44
101443.05
101381.05
101322.3
101266.65
101214
101164.22
101117.19
101072.81
101030.98
100991.61
100954.61
100919.9
100887.4
100857.04
100828.77
100802.53
100778.26
100755.92
100735.54
100717.01
100700.1
100685.15
100672.98
100662.16
100648.88
100639.45
100651.29
100657.08
111633.5
112154.89
112159.25
112166.45
111993.43
111754.69
111436.72
111076.34
110683.44
110274.35
109857.85
109441.99
109031.87
108631.28
108242.62
107867.46
107506.63
107160.55
106829.25
106512.54
106210.09
105921.44
105646.11
105383.55
105133.24
104894.63
104667.2
104450.41
104243.8
104046.87
103859.17
103680.27
103509.78
103347.34
103192.49
103044.81
102904.21
102770.61
102643.13
102521.16
102404.89
102294.2
102188.84
102088.58
101993.2
101902.48
101816.23
101734.25
101656.37
101582.4
101512.19
101445.57
101382.41
101322.54
101265.85
101212.19
101161.46
101113.53
101068.3
101025.66
100985.51
100947.78
100912.36
100879.19
100848.19
100819.3
100792.46
100767.61
100744.7
100723.71
100704.63
100687.34
100671.73
100658.13
100647.04
100636.94
100625.6
100619.07
100628
100628.89
113321.52
113431.98
113237.87
112956.28
112562.18
112119.51
111640.37
111149.09
110655.78
110170.27
109697.59
109241.35
108803.33
108384.43
107984.79
107604.18
107242.07
106897.76
106570.44
106259.26
105963.41
105682.08
105414.51
105159.96
104917.74
104687.21
104467.75
104258.8
104059.81
103870.29
103689.74
103517.74
103353.9
103197.8
103048.95
102907.1
102772.27
102643.99
102521.24
102403.94
102292.28
102185.98
102084.81
101988.56
101896.99
101809.93
101727.16
101648.51
101573.8
101502.87
101435.56
101371.73
101311.22
101253.9
101199.65
101148.34
101099.85
101054.08
101010.91
100970.26
100932.02
100896.12
100862.47
100831
100801.63
100774.31
100748.97
100725.57
100704.06
100684.41
100666.61
100650.53
100636.14
100623.75
100613.53
100604.15
100594.58
100590.15
100596.63
100593.75
114285.7
114015.9
113584.56
113072.27
112516.56
111950.93
111389.34
110843.39
110317.68
109815.25
109336.83
108882.42
108451.31
108042.55
107654.99
107287.46
106938.79
106607.89
106293.79
105995.48
105712.02
105442.55
105186.27
104942.43
104710.34
104489.36
104278.9
104078.41
103887.38
103705.31
103531.76
103366.33
103208.66
103058.29
102914.86
102778.34
102648.56
102524.56
102405.88
102292.77
102185.05
102082.5
101984.89
101892.02
101803.67
101719.66
101639.82
101563.95
101491.91
101423.52
101358.65
101297.14
101238.86
101183.69
101131.48
101082.14
101035.54
100991.58
100950.16
100911.18
100874.56
100840.21
100808.04
100778
100750
100724
100699.93
100677.73
100657.37
100638.83
100622.05
100606.96
100593.56
100582.04
100572.39
100563.79
100555.96
100552.07
100554.47
100551.95
113589.97
113265.13
112793.7
112258.02
111703.74
111153.75
110618.62
110104.6
109613.61
109146.51
108702.86
108281.93
107882.65
107503.9
107144.5
106803.35
106479.35
106171.4
105878.65
105600.25
105335.42
105083.41
104843.52
104615.09
104397.52
104190.24
103992.73
103804.48
103625.06
103454.01
103290.96
103135.57
102987.45
102846.15
102711.49
102583.4
102461.32
102344.48
102232.88
102126.58
102025.35
101928.98
101837.26
101750
101667.02
101588.13
101513.18
101441.99
101374.42
101310.31
101249.54
101191.95
101137.43
101085.85
101037.09
100991.04
100947.6
100906.66
100868.13
100831.92
100797.94
100766.1
100736.34
100708.58
100682.75
100658.8
100636.66
100616.3
100597.66
100580.71
100565.41
100551.71
100539.61
100529.19
100520.38
100512.84
100506.6
100502.93
100502.51
100501.19
110107.8
110628.13
110584.76
110426.96
110138.63
109804.48
109438.25
109062.89
108685.86
108314.52
107951.99
107600.67
107261.65
106935.52
106622.44
106322.33
106034.95
105759.94
105496.84
105245.19
105004.51
104774.36
104554.29
104343.87
104142.69
103950.36
103766.5
103590.75
103422.76
103262.22
103108.86
102962.38
102822.36
102688.56
102561
102439.43
102322.97
102211.44
102105.04
102003.53
101906.77
101814.54
101726.69
101643.05
101563.45
101487.74
101415.77
101347.39
101282.46
101220.85
101162.42
101107.06
101054.65
101005.07
100958.2
100913.95
100872.21
100832.89
100795.9
100761.15
100728.54
100698.02
100669.49
100642.89
100618.15
100595.22
100574.04
100554.55
100536.7
100520.47
100505.81
100492.68
100481.06
100470.97
100462.35
100455.12
100449.33
100445.21
100442.85
100441.79
110991.09
111044.28
110922.73
110655.35
110258.94
109790.31
109278.38
108746.48
108203.2
107658.66
107125.83
106601.95
106101.5
105617.3
105156.08
104728.07
104326.64
103970.21
103648.46
103362.63
103108.55
102884.44
102686.31
102512.63
102358.56
102221.21
102095.99
101982.65
101882.55
101796.21
101718.26
101646.48
101579.8
101517.28
101458.22
101402.12
101348.65
101297.61
101248.8
101202.05
101157.34
101114.57
101073.66
101034.75
100997.75
100962.58
100929.2
100897.55
100867.56
100839.19
100812.33
100786.95
100762.9
100740.2
100718.59
100698.24
100678.63
100660.32
100642.14
100625.63
100608.11
100593.42
100575.4
100563.06
100542.67
100534.21
100508.26
100506.98
100469.83
100482.17
100424.54
100461.88
100368.7
100448.91
100298.47
100448
100208.3
100462.99
100094.78
100501.31
96612.007
96814.92
97244.822
97717.097
98216.383
98744.361
99191.673
99575.996
99936.911
100260.54
100539.78
100783.61
100992.99
101171.43
101322.56
101446.82
101548.39
101628.35
101689.28
101733.04
101762.28
101776.6
101780.16
101771.8
101752.4
101726.88
101694.21
101658.58
101620.75
101579.63
101536.65
101491.81
101445.54
101398.88
101352.43
101306.66
101261.91
101218.41
101176.33
101135.76
101096.73
101059.27
101023.43
100989.21
100956.53
100925.38
100895.73
100867.53
100840.74
100815.31
100791.17
100768.29
100746.54
100725.95
100706.27
100687.68
100669.68
100652.82
100635.99
100620.63
100604.27
100590.43
100573.49
100561.61
100542.36
100533.83
100509.31
100507.12
100472.35
100482.82
100428.39
100462.77
100373.57
100450.28
100303.17
100450.13
100211.61
100467.77
100095.05
100508.71
104218.47
104254.97
104252.61
104218.05
104151.34
104061.78
103955.06
103835.45
103706.73
103573.86
103437.81
103301.81
103165.57
103031.74
102899.38
102773.65
102650
102535.3
102423.7
102322.86
102221.43
102132.53
102041.1
101962.54
101889.73
101822.81
101766.56
101709.54
101651.52
101588.2
101529.26
101473.61
101420.71
101370.44
101322.5
101276.66
101232.72
101190.57
101150.02
101111.09
101073.77
101038.01
101003.81
100971.09
100939.85
100910.05
100881.68
100854.7
100829.09
100804.81
100781.78
100759.99
100739.29
100719.72
100701.01
100683.36
100666.22
100650.19
100634.1
100619.47
100603.72
100590.46
100574.01
100562.56
100543.72
100535.41
100511.22
100509.12
100474.67
100484.74
100431.28
100464.23
100376.96
100451.24
100307.07
100450.88
100215.39
100469
100097.82
100511.48
101498.72
101500.95
101508.63
101523.95
101543.66
101564.9
101587.6
101612.24
101636.04
101660.01
101682.21
101703.78
101722.15
101738.07
101749.81
101758.7
101763.18
101763.76
101759.25
101750.24
101736.62
101719.37
101698.63
101672.55
101642.15
101607.31
101570.16
101531.08
101491.7
101452.16
101412.04
101371.96
101331.98
101292.29
101253.09
101214.56
101176.82
101140.01
101104.19
101069.5
101035.99
101003.7
100972.67
100942.92
100914.43
100887.21
100861.25
100836.54
100813.03
100790.72
100769.52
100749.42
100730.29
100712.17
100694.81
100678.4
100662.39
100647.41
100632.24
100618.49
100603.46
100590.94
100575
100564.17
100545.63
100537.87
100513.89
100512.21
100477.69
100488.28
100434.25
100468.09
100379.88
100455.23
100309.66
100454.85
100217.71
100472.78
100099.52
100515.1
101919.23
101927.37
101928.53
101926.73
101922.37
101916.05
101906.77
101898.69
101888.75
101878.31
101865.48
101852.71
101837.64
101822.7
101805.35
101785.61
101765.13
101740.95
101716.94
101688.47
101661.02
101628.65
101597.89
101562.86
101529.13
101494.23
101458.84
101423.41
101388.02
101352.57
101317.3
101282.29
101247.64
101213.45
101179.78
101146.7
101114.27
101082.56
101051.59
101021.47
100992.24
100963.95
100936.63
100910.32
100885.04
100860.8
100837.61
100815.48
100794.37
100774.29
100755.16
100736.99
100719.64
100703.18
100687.34
100672.33
100657.61
100643.79
100629.69
100616.88
100602.7
100590.91
100575.63
100565.35
100547.29
100539.91
100516.16
100514.8
100480.42
100491.13
100437.39
100470.99
100383.15
100458.05
100312.96
100457.6
100220.61
100475.69
100101.59
100518.15
101359.13
101364.82
101370.32
101378.3
101385.36
101392.7
101397.67
101404.2
101407.85
101413.83
101415.85
101418.74
101418.47
101418.29
101415.36
101411.84
101406.1
101399.94
101391.68
101382.82
101371.97
101360.61
101347.07
101332.61
101316.17
101298.4
101279.08
101258.5
101236.74
101214.04
101190.47
101166.24
101141.46
101116.29
101090.89
101065.39
101039.92
101014.64
100989.6
100964.99
100940.84
100917.28
100894.35
100872.13
100850.66
100829.97
100810.08
100791.02
100772.76
100755.32
100738.64
100722.72
100707.47
100692.91
100678.83
100665.42
100652.16
100639.65
100626.74
100614.97
100601.74
100590.75
100576.21
100566.5
100549
100541.99
100518.67
100517.5
100483.49
100494.16
100440.57
100474.14
100386.39
100461.21
100316.03
100460.69
100223.37
100478.68
100103.56
100521.05
101159.75
101167.18
101172.94
101179.3
101186.04
101192.29
101197.87
101203.44
101205.89
101210.62
101211.25
101215.2
101214.92
101217.18
101216.31
101215.97
101212.92
101210.13
101205.31
101200.19
101193.48
101186
101177.2
101167.42
101156.46
101144.54
101131.54
101117.63
101102.79
101087.14
101070.72
101053.63
101035.94
101017.77
100999.19
100980.31
100961.23
100942.06
100922.84
100903.77
100884.89
100866.3
100848.06
100830.24
100812.9
100796.07
100779.8
100764.1
100748.97
100734.43
100720.43
100707
100694.04
100681.58
100669.42
100657.75
100646.09
100634.99
100623.38
100612.73
100600.53
100590.38
100576.65
100567.51
100550.65
100543.95
100521.13
100520.06
100486.41
100497.02
100443.91
100477.08
100389.81
100464.1
100319.36
100463.5
100226.26
100481.49
100105.59
100523.71
100879.97
100887.51
100893.63
100900.86
100908.3
100916.1
100922.54
100931.36
100936.67