/*--------------------------------*- C++ -*----------------------------------*\
  =========                 |
  \\      /  F ield         | OpenFOAM: The Open Source CFD Toolbox
   \\    /   O peration     | Website:  https://openfoam.org
    \\  /    A nd           | Version:  6
     \\/     M anipulation  |
\*---------------------------------------------------------------------------*/
FoamFile
{
    version     2.0;
    format      ascii;
    class       surfaceScalarField;
    location    "250";
    object      phi;
}
// * * * * * * * * * * * * * * * * * * * * * * * * * * * * * * * * * * * * * //

dimensions      [1 0 -1 0 0 0 0];

internalField   nonuniform List<scalar> 
31760
(
-0.00059227484
-0.039322821
0.039915095
-0.0013183362
-0.04390257
0.04462863
-0.0020635764
-0.044931817
0.045677057
-0.0028623111
-0.047623414
0.048422147
-0.0036793417
-0.049458592
0.050275622
-0.0045517536
-0.051998093
0.052870503
-0.0054519128
-0.054251435
0.055151594
-0.0064047593
-0.056875265
0.05782811
-0.0073942283
-0.059440857
0.060430325
-0.0084362283
-0.062243308
0.063285306
-0.0095229913
-0.065094184
0.066180946
-0.010664447
-0.068127567
0.06926902
-0.011857209
-0.071264976
0.072457739
-0.013107897
-0.074567632
0.075818318
-0.014416183
-0.078006217
0.079314505
-0.015786657
-0.081610416
0.082980889
-0.017220356
-0.085373324
0.086807023
-0.018720691
-0.089311029
0.090811363
-0.020289536
-0.093426676
0.094995523
-0.021929969
-0.09773145
0.099371882
-0.023644141
-0.10223275
0.10394692
-0.025435117
-0.10694079
0.10873177
-0.027304824
-0.11186514
0.11373484
-0.029256155
-0.11701637
0.1189677
-0.031291435
-0.12240522
0.1244405
-0.033412761
-0.12804384
0.13016517
-0.035622504
-0.13394377
0.13615351
-0.037923011
-0.1401184
0.1424189
-0.040315958
-0.14658119
0.14897414
-0.042802823
-0.15334679
0.15583365
-0.045385413
-0.16043009
0.16301268
-0.048064696
-0.16784772
0.17052701
-0.050840936
-0.17561609
0.17839233
-0.053714072
-0.18375379
0.18662692
-0.056684253
-0.19227879
0.19524897
-0.059751554
-0.20121167
0.20427897
-0.062916112
-0.21057285
0.21373741
-0.066175596
-0.22038644
0.22364593
-0.069528044
-0.23067539
0.23402784
-0.072970505
-0.24146437
0.24490684
-0.076499717
-0.25277956
0.25630877
-0.080111056
-0.26464852
0.26825986
-0.083799668
-0.27709979
0.2807884
-0.087559087
-0.29016461
0.29392403
-0.091382463
-0.30387425
0.30769763
-0.095261726
-0.31826294
0.3221422
-0.099187065
-0.3333657
0.33729104
-0.10314804
-0.34921999
0.35318096
-0.10713251
-0.36586456
0.36984903
-0.11112619
-0.38334089
0.38733457
-0.11511383
-0.40169147
0.40567911
-0.11907738
-0.42096178
0.42492533
-0.12299692
-0.44119916
0.4451187
-0.12684957
-0.46245351
0.46630616
-0.13061036
-0.48477657
0.48853737
-0.13425047
-0.5082235
0.5118636
-0.13773799
-0.53285187
0.5363394
-0.14103637
-0.55872236
0.56202074
-0.14410536
-0.58589723
0.58896622
-0.14689919
-0.614443
0.61723683
-0.1493665
-0.64442948
0.6468968
-0.15144973
-0.67592811
0.67801134
-0.1530854
-0.70901626
0.71065193
-0.15419963
-0.74377152
0.74488575
-0.15471558
-0.78027998
0.78079593
-0.15453612
-0.81862403
0.81844457
-0.15357281
-0.85890233
0.85793902
-0.15168746
-0.90117943
0.89929408
-0.14880283
-0.94559254
0.94270791
-0.14469309
-0.99213572
0.98802598
-0.13935177
-1.0410886
1.0357472
-0.13236114
-1.0922154
1.0852248
-0.12394597
-1.1462662
1.137851
-0.11322573
-1.2021561
1.1914359
-0.10099551
-1.2621491
1.2499189
-0.085469519
-1.3222883
1.3067624
-0.068494938
-1.3896004
1.3726258
-0.047114931
-1.4525216
1.4311416
-0.023897782
-1.5286508
1.5054336
-1.5951553
1.5667527
-0.00056993446
-0.038752888
-0.0012482837
-0.043224223
-0.0019504624
-0.04422964
-0.0027019725
-0.046871906
-0.0034759297
-0.048684635
-0.0042980752
-0.05117595
-0.0051500784
-0.053399432
-0.0060507463
-0.055974599
-0.0069888784
-0.058502725
-0.0079768025
-0.061255386
-0.0090090683
-0.064061918
-0.010093975
-0.067042661
-0.011229407
-0.070129544
-0.012421456
-0.073375584
-0.013669544
-0.07675813
-0.014978417
-0.080301544
-0.016349092
-0.084002649
-0.017785174
-0.087874949
-0.019288506
-0.091923344
-0.020862068
-0.096157889
-0.02250814
-0.10058668
-0.024229325
-0.10521961
-0.026028532
-0.11006593
-0.027907905
-0.115137
-0.02986978
-0.12044334
-0.031916855
-0.12599677
-0.034051233
-0.13180939
-0.036275041
-0.13789459
-0.038589794
-0.14426644
-0.040997579
-0.150939
-0.043499612
-0.15792806
-0.046097019
-0.16525032
-0.048790553
-0.17292256
-0.051580393
-0.18096395
-0.054466071
-0.18939312
-0.057446777
-0.19823097
-0.060521235
-0.20749839
-0.063689822
-0.21721786
-0.066950164
-0.22741505
-0.070299137
-0.2381154
-0.073733554
-0.24934514
-0.07724931
-0.26113276
-0.080841287
-0.27350781
-0.084503997
-0.2865019
-0.088230694
-0.30014756
-0.09201392
-0.31447971
-0.095844669
-0.32953495
-0.099713141
-0.34535151
-0.10360784
-0.36196986
-0.10751634
-0.3794324
-0.11142388
-0.39778392
-0.11531446
-0.41707121
-0.11916976
-0.43734386
-0.12296913
-0.45865414
-0.12668933
-0.48105637
-0.13030438
-0.50460846
-0.13378487
-0.52937138
-0.13709853
-0.55540869
-0.14020778
-0.58278798
-0.14307108
-0.6115797
-0.14564264
-0.64185792
-0.14786933
-0.67370142
-0.14969372
-0.70719188
-0.15104905
-0.7424162
-0.15186317
-0.77946585
-0.15205368
-0.81843352
-0.15153063
-0.85942539
-0.15018387
-0.90252619
-0.14791643
-0.94785998
-0.14456253
-0.99548961
-0.1400521
-1.045599
-0.13410928
-1.0981582
-0.1267709
-1.1536046
-0.1174916
-1.2114354
-0.10663757
-1.2730032
-0.093036684
-1.3358892
-0.077826716
-1.4048103
-0.058849178
-1.4714991
-0.038080986
-1.549419
-1.6204871
-0.0005336039
-0.038219285
-0.001182222
-0.042575606
-0.0018400746
-0.043571788
-0.0025528165
-0.046159165
-0.0032820646
-0.047955388
-0.0040629081
-0.050395107
-0.0048697192
-0.052592621
-0.0057266815
-0.055117638
-0.0066185514
-0.057610855
-0.0075609728
-0.060312966
-0.008545946
-0.063076945
-0.0095832646
-0.066005344
-0.010670256
-0.069042553
-0.011812769
-0.072233073
-0.013011297
-0.075559601
-0.014269395
-0.079043448
-0.015589121
-0.082682923
-0.01697306
-0.086491011
-0.018424087
-0.090472318
-0.019944547
-0.09463743
-0.021537225
-0.098993999
-0.023204947
-0.10355189
-0.024949483
-0.10832139
-0.026774273
-0.11331221
-0.028681531
-0.11853608
-0.030673438
-0.12400486
-0.032752212
-0.12973062
-0.034919827
-0.13572698
-0.037178401
-0.14200787
-0.039529425
-0.14858798
-0.041973841
-0.15548364
-0.044513297
-0.16271086
-0.047147817
-0.17028804
-0.049878336
-0.17823343
-0.052704402
-0.18656705
-0.055625378
-0.19530999
-0.05863934
-0.20448443
-0.06174465
-0.21411255
-0.064940821
-0.22421888
-0.068225677
-0.23483055
-0.071594913
-0.2459759
-0.075045239
-0.25768244
-0.078572048
-0.269981
-0.08217014
-0.28290381
-0.085833212
-0.29648448
-0.089554154
-0.31075877
-0.09332518
-0.32576393
-0.097137163
-0.34153953
-0.10098004
-0.35812698
-0.10484213
-0.37557031
-0.10871045
-0.3939156
-0.11257045
-0.4132112
-0.11640547
-0.43350885
-0.12019722
-0.45486239
-0.12392497
-0.47732862
-0.1275651
-0.50096833
-0.13109149
-0.52584499
-0.1344746
-0.55202558
-0.13768121
-0.57958137
-0.14067414
-0.60858677
-0.14341126
-0.63912081
-0.14584602
-0.67126665
-0.1479254
-0.70511249
-0.14959087
-0.74075072
-0.15077638
-0.77828035
-0.1514058
-0.8178041
-0.15140282
-0.85942836
-0.15066605
-0.90326296
-0.14909962
-0.94942642
-0.14657435
-0.99801487
-0.14299296
-1.0491804
-0.13815591
-1.1029953
-0.13201741
-1.1597431
-0.12420565
-1.2192472
-0.11487497
-1.2823338
-0.10321433
-1.3475499
-0.089926899
-1.4180978
-0.073411406
-1.4880146
-0.055049845
-1.5677805
-1.642676
-0.00050035435
-0.037718932
-0.0011251184
-0.041950844
-0.001746318
-0.042950589
-0.0024258306
-0.045479654
-0.003117673
-0.047263546
-0.0038631999
-0.049649582
-0.0046322232
-0.051823599
-0.0054522206
-0.054297643
-0.0063058868
-0.05675719
-0.0072102117
-0.059408642
-0.0081566695
-0.062130488
-0.0091552489
-0.065006766
-0.010203088
-0.067994714
-0.011306575
-0.071129587
-0.012465493
-0.074400684
-0.013684255
-0.077824687
-0.014964251
-0.081402927
-0.016309016
-0.085146247
-0.01772066
-0.089060673
-0.019202361
-0.093155729
-0.020756413
-0.097439947
-0.022385455
-0.10192285
-0.024092529
-0.10661432
-0.025880018
-0.11152473
-0.027750171
-0.11666593
-0.029705683
-0.12204935
-0.031748384
-0.12768792
-0.033880639
-0.13359472
-0.036103973
-0.13978453
-0.038420067
-0.14627189
-0.040830046
-0.15307366
-0.043334814
-0.1602061
-0.045935271
-0.16768758
-0.048631199
-0.1755375
-0.051422491
-0.18377576
-0.054308919
-0.19242356
-0.057289406
-0.20150394
-0.060361211
-0.21104074
-0.063522314
-0.22105777
-0.066771951
-0.23158091
-0.070107059
-0.2426408
-0.073523691
-0.25426581
-0.077017788
-0.26648691
-0.080584623
-0.27933697
-0.084218633
-0.29285047
-0.087913594
-0.30706381
-0.091662461
-0.32201506
-0.095457232
-0.33774476
-0.099288829
-0.35429538
-0.10314704
-0.3717121
-0.10702078
-0.39004185
-0.11089652
-0.40933547
-0.11476033
-0.42964503
-0.11859588
-0.45102684
-0.12238431
-0.47354019
-0.12610545
-0.49724719
-0.12973637
-0.52221407
-0.13325035
-0.54851159
-0.13661835
-0.57621337
-0.13980744
-0.60539768
-0.14278039
-0.63614786
-0.14549549
-0.66855155
-0.1479062
-0.70270179
-0.14995965
-0.73869728
-0.15159753
-0.77664246
-0.15275398
-0.81664765
-0.15335487
-0.85882747
-0.15331538
-0.90330245
-0.15254731
-0.9501945
-0.1509394
-0.99962279
-0.14838802
-1.0517318
-0.14474508
-1.1066382
-0.13992333
-1.1645648
-0.13365794
-1.2255126
-0.12598378
-1.290008
-0.11631697
-1.3572167
-0.10510121
-1.4293135
-0.09110863
-1.5020072
-0.075393935
-1.5834952
-1.6617075
-0.00047060646
-0.037248329
-0.0010778776
-0.041343576
-0.0016671439
-0.042361325
-0.0023191649
-0.044827636
-0.0029795114
-0.046603202
-0.0036962728
-0.048932823
-0.0044345432
-0.051085329
-0.0052251669
-0.053507021
-0.0060488514
-0.055933506
-0.006923443
-0.058534052
-0.0078405184
-0.061213412
-0.0088102387
-0.064037047
-0.0098296934
-0.066975259
-0.010904901
-0.07005438
-0.012036328
-0.073269257
-0.01322835
-0.076632666
-0.014482507
-0.080148771
-0.015802352
-0.083826403
-0.017190082
-0.087672942
-0.018648637
-0.091697176
-0.020181087
-0.095907496
-0.02178997
-0.10031397
-0.023478118
-0.10492617
-0.025247666
-0.10975518
-0.02710176
-0.11481184
-0.029042293
-0.12010882
-0.031071667
-0.12565854
-0.033191456
-0.13147493
-0.035403868
-0.13757212
-0.037709649
-0.14396611
-0.040110583
-0.15067273
-0.042607133
-0.15770955
-0.045199897
-0.16509482
-0.047889057
-0.17284834
-0.050674425
-0.18099039
-0.053555011
-0.18954298
-0.056530228
-0.19852873
-0.059598892
-0.20797208
-0.062757654
-0.21789901
-0.06600425
-0.22833431
-0.06933807
-0.23930698
-0.07275501
-0.25084887
-0.076251506
-0.26299041
-0.079823654
-0.27576483
-0.083466431
-0.2892077
-0.087174743
-0.3033555
-0.090942229
-0.31824757
-0.09476207
-0.33392492
-0.098626729
-0.35043072
-0.10252761
-0.36781123
-0.10645451
-0.38611495
-0.11039707
-0.40539291
-0.1143425
-0.4256996
-0.11827692
-0.44709242
-0.1221849
-0.46963221
-0.12604839
-0.4933837
-0.1298473
-0.51841516
-0.13355936
-0.54479953
-0.13715909
-0.57261364
-0.14061782
-0.60193895
-0.14390296
-0.63286272
-0.14697846
-0.66547605
-0.1498033
-0.69987694
-0.15233158
-0.736169
-0.15451188
-0.77446216
-0.1562861
-0.81487343
-0.15758906
-0.85752451
-0.15834816
-0.90254335
-0.15848236
-0.9500603
-0.15789296
-1.0002122
-0.15648994
-1.0531348
-0.15414654
-1.1089816
-0.1507686
-1.1679428
-0.14615443
-1.2301267
-0.14027438
-1.2958881
-0.13270115
-1.3647899
-0.12370809
-1.4383066
-0.11233532
-1.51338
-0.099379712
-1.5964509
-1.6774976
-0.00044555631
-0.036802773
-0.0010406354
-0.040748497
-0.0016044161
-0.041797545
-0.0022356683
-0.044196385
-0.0028719756
-0.045966895
-0.0035675363
-0.048237264
-0.0042834478
-0.050369418
-0.0050532507
-0.052737219
-0.0058562618
-0.055130495
-0.006711401
-0.057678914
-0.007609564
-0.06031525
-0.0085613766
-0.063085236
-0.0095643236
-0.065972312
-0.010624385
-0.06899432
-0.011742236
-0.072151405
-0.012921745
-0.075453157
-0.014165474
-0.078905041
-0.015476325
-0.082515554
-0.016857332
-0.086291935
-0.018311492
-0.090243017
-0.0198412
-0.094377788
-0.02144998
-0.098705189
-0.023139867
-0.10323628
-0.024914055
-0.10798099
-0.026774652
-0.11295124
-0.028723971
-0.1181595
-0.030764279
-0.12361823
-0.032897242
-0.12934197
-0.035124471
-0.13534489
-0.037447307
-0.14164327
-0.039866846
-0.14825319
-0.042383419
-0.15519297
-0.04499777
-0.16248047
-0.047709764
-0.17013635
-0.050519136
-0.17818102
-0.053425302
-0.18663681
-0.05642733
-0.1955267
-0.059523903
-0.20487551
-0.062713436
-0.21470948
-0.065992681
-0.22505507
-0.069360236
-0.23593942
-0.072813924
-0.24739518
-0.076350838
-0.2594535
-0.079967164
-0.2721485
-0.083659277
-0.28551559
-0.087422747
-0.29959203
-0.091252773
-0.31441755
-0.095144008
-0.33003368
-0.099089686
-0.34648504
-0.10308321
-0.3638177
-0.10711677
-0.38208139
-0.11118119
-0.4013285
-0.11526654
-0.42161425
-0.11936122
-0.44299775
-0.12345216
-0.46554126
-0.12752492
-0.48931094
-0.13156282
-0.51437726
-0.13554671
-0.54081565
-0.13945556
-0.56870478
-0.14326449
-0.59813002
-0.14694696
-0.62918026
-0.15047125
-0.66195176
-0.15380289
-0.6965453
-0.15690245
-0.73306944
-0.15972564
-0.77163898
-0.16222249
-0.81237658
-0.16433796
-0.85540904
-0.16600812
-0.90087319
-0.16715841
-0.94891
-0.16771282
-0.99965778
-0.16757964
-1.053268
-0.16666195
-1.1098993
-0.16486063
-1.1697441
-0.16202681
-1.2329605
-0.15809739
-1.2998175
-0.15274462
-1.3701427
-0.14613558
-1.4449156
-0.13750876
-1.5220068
-0.12750157
-1.6064581
-1.6899413
-0.00042574597
-0.036377027
-0.0010067697
-0.040167475
-0.0015520383
-0.041252277
-0.0021700941
-0.04357833
-0.0027905859
-0.045346403
-0.003473551
-0.0475543
-0.0041766701
-0.0496663
-0.0049354191
-0.051978471
-0.0057287419
-0.054337172
-0.0065755353
-0.056832122
-0.0074673716
-0.059423414
-0.0084144029
-0.062138205
-0.0094145384
-0.064972177
-0.01047365
-0.06793521
-0.011593341
-0.071031714
-0.012777186
-0.074269314
-0.014027686
-0.077654541
-0.015348618
-0.081194623
-0.016742246
-0.084898307
-0.018212211
-0.088773053
-0.019761246
-0.092828753
-0.02139207
-0.097074366
-0.02310793
-0.10152042
-0.024910855
-0.10617807
-0.026803318
-0.11105878
-0.028787918
-0.1161749
-0.030866297
-0.12153986
-0.033040332
-0.12716794
-0.035311137
-0.13307408
-0.037680022
-0.13927439
-0.040147902
-0.14578531
-0.042715346
-0.15262553
-0.045382359
-0.15981345
-0.048149233
-0.16736948
-0.05101533
-0.17531492
-0.053980229
-0.18367191
-0.057043131
-0.1924638
-0.06020248
-0.20171616
-0.06345767
-0.21145429
-0.066806347
-0.22170639
-0.0702457
-0.23250007
-0.073775627
-0.24386525
-0.077393162
-0.25583596
-0.081096184
-0.26844548
-0.084881805
-0.28172996
-0.088746712
-0.29572712
-0.092687295
-0.31047697
-0.096699534
-0.32602144
-0.10077928
-0.34240529
-0.10492097
-0.35967601
-0.1091189
-0.37788346
-0.11336615
-0.39708125
-0.11765528
-0.41732512
-0.12197746
-0.43867557
-0.12632244
-0.46119628
-0.13067891
-0.48495447
-0.1350333
-0.51002287
-0.13937098
-0.53647798
-0.14367423
-0.56440153
-0.14792406
-0.59388018
-0.1520974
-0.62500692
-0.15616929
-0.65787987
-0.16011051
-0.69260408
-0.16388873
-0.72929121
-0.16746719
-0.76806052
-0.17080456
-0.80903921
-0.17385198
-0.85236163
-0.17655626
-0.89816891
-0.178859
-0.94660727
-0.18069002
-0.99782675
-0.18197366
-1.0519843
-0.18262493
-1.109248
-0.18255882
-1.1698102
-0.18165393
-1.2338654
-0.17983866
-1.3016328
-0.17686197
-1.3731194
-0.1728207
-1.4489569
-0.16709897
-1.5277285
-0.16021379
-1.6133432
-1.6988963
-0.0004137152
-0.035963313
-0.00097835597
-0.039602835
-0.0015137391
-0.040716894
-0.0021275941
-0.042964476
-0.0027421521
-0.044731845
-0.0034223689
-0.046874084
-0.0041236341
-0.048965035
-0.0048826651
-0.051219441
-0.0056783973
-0.05354144
-0.0065295226
-0.055980997
-0.0074286283
-0.058524308
-0.0083850722
-0.061181762
-0.0093981438
-0.063959105
-0.010473311
-0.066860043
-0.011612116
-0.069892909
-0.012818904
-0.073062526
-0.01409627
-0.076377175
-0.015447546
-0.079843347
-0.016876211
-0.083469642
-0.018384956
-0.087264309
-0.019977232
-0.091236476
-0.021655662
-0.095395936
-0.023422985
-0.0997531
-0.025281995
-0.10431906
-0.027234793
-0.10910598
-0.029283263
-0.11412643
-0.031429368
-0.11939375
-0.033674469
-0.12492284
-0.036020038
-0.13072851
-0.038466803
-0.13682762
-0.041015433
-0.14323668
-0.043666275
-0.14997469
-0.046419566
-0.15706016
-0.049274909
-0.16451413
-0.052232372
-0.17235746
-0.055291444
-0.18061284
-0.058450851
-0.18930439
-0.061710525
-0.19845648
-0.065069135
-0.20809568
-0.068525905
-0.21824962
-0.072078391
-0.22894758
-0.075726351
-0.24021729
-0.079468813
-0.2520935
-0.083304185
-0.26461011
-0.087230816
-0.27780333
-0.091246766
-0.29171117
-0.095350509
-0.30637322
-0.099539479
-0.32183248
-0.10381062
-0.33813416
-0.10816124
-0.35532539
-0.11258744
-0.37345726
-0.11708498
-0.39258371
-0.12164876
-0.41276134
-0.12627262
-0.43405171
-0.13095003
-0.45651887
-0.13567198
-0.48023252
-0.14042962
-0.50526524
-0.14521147
-0.53169613
-0.15000489
-0.55960811
-0.15479455
-0.58909052
-0.15956382
-0.62023765
-0.16429246
-0.65315123
-0.16895802
-0.68793851
-0.17353466
-0.72471458
-0.17799293
-0.76360225
-0.18229979
-0.80473235
-0.18641662
-0.8482448
-0.19030111
-0.89428442
-0.19390135
-0.94300702
-0.19716317
-0.99456493
-0.20002067
-1.0491268
-0.20240411
-1.1068646
-0.20424428
-1.16797
-0.20544592
-1.2326638
-0.20593305
-1.3011456
-0.20551698
-1.3735354
-0.2042439
-1.45023
-0.20161391
-1.5303585
-0.19806195
-1.6168952
-1.7041848
-0.00040833935
-0.035554974
-0.00096988722
-0.039041288
-0.0015029858
-0.040183796
-0.0021206962
-0.042346766
-0.002738621
-0.044113921
-0.0034257214
-0.046186984
-0.0041361884
-0.048254568
-0.004906775
-0.050448855
-0.0057178125
-0.052730403
-0.0065868993
-0.055111911
-0.0075081098
-0.057603097
-0.0084902079
-0.060199664
-0.009533264
-0.062916049
-0.010642498
-0.065750809
-0.011820261
-0.068715146
-0.01307079
-0.071811999
-0.01439694
-0.075051025
-0.015802426
-0.078437861
-0.017290255
-0.081981814
-0.018863941
-0.085690623
-0.020526412
-0.089574006
-0.022280512
-0.093641838
-0.024128713
-0.097904899
-0.026073363
-0.10237441
-0.028116941
-0.1070624
-0.030260957
-0.11198242
-0.032506882
-0.11714783
-0.034856142
-0.12257358
-0.037309545
-0.12827511
-0.039868074
-0.13426909
-0.042531608
-0.14057314
-0.045300895
-0.1472054
-0.048175491
-0.15418556
-0.051155653
-0.16153397
-0.054241135
-0.16927198
-0.05743113
-0.17742285
-0.060726026
-0.18600949
-0.064124987
-0.19505752
-0.067627626
-0.20459304
-0.071233783
-0.21464347
-0.074943498
-0.22523787
-0.078755044
-0.23640575
-0.082669395
-0.24817915
-0.086686495
-0.26059301
-0.090806463
-0.27368337
-0.095028675
-0.28748896
-0.099352918
-0.30204898
-0.10377867
-0.31740673
-0.10830542
-0.3336074
-0.11293202
-0.3506988
-0.11765729
-0.36873198
-0.12247956
-0.38776143
-0.12739628
-0.40784463
-0.13240467
-0.42904331
-0.13750057
-0.45142297
-0.14267991
-0.47505318
-0.14793632
-0.50000883
-0.15326323
-0.52636922
-0.15865206
-0.55421929
-0.16409288
-0.58364969
-0.16957362
-0.61475691
-0.17508067
-0.64764418
-0.18059787
-0.68242131
-0.186106
-0.71920644
-0.19158385
-0.7581244
-0.19700609
-0.7993101
-0.20234509
-0.8429058
-0.20756483
-0.88906468
-0.21263049
-0.93794136
-0.21749326
-0.98970216
-0.22210434
-1.0445157
-0.22640979
-1.1025592
-0.23034755
-1.1640323
-0.23385135
-1.22916
-0.23685342
-1.2981435
-0.23920814
-1.3711807
-0.24092859
-1.4485095
-0.24161283
-1.5296743
-0.24162498
-1.6168831
-1.7055834
-0.00040884649
-0.035146127
-0.00098153136
-0.038468603
-0.0015209524
-0.039644375
-0.0021517818
-0.041715937
-0.0027837603
-0.043481942
-0.0034888144
-0.04548193
-0.0042211246
-0.047522258
-0.0050166797
-0.0496533
-0.0058577277
-0.051889355
-0.0067606392
-0.054209
-0.0077210848
-0.056642652
-0.0087471447
-0.059173605
-0.0098399872
-0.061823207
-0.011004538
-0.064586259
-0.012243998
-0.067475685
-0.013562034
-0.070493963
-0.014962372
-0.073650688
-0.016448421
-0.076951812
-0.018023769
-0.080406465
-0.019691351
-0.084023042
-0.021453964
-0.087811393
-0.023314591
-0.091781211
-0.025275599
-0.09594389
-0.027339184
-0.10031082
-0.029506738
-0.10489485
-0.031780189
-0.10970897
-0.034160704
-0.11476731
-0.036649113
-0.12008517
-0.039245714
-0.12567851
-0.041951365
-0.13156344
-0.044766144
-0.13775836
-0.047690134
-0.14428141
-0.050723228
-0.15115247
-0.053865775
-0.15839143
-0.057117214
-0.16602054
-0.060478193
-0.17406187
-0.063948407
-0.18253928
-0.067528177
-0.19147776
-0.071218459
-0.20090276
-0.075019387
-0.21084254
-0.078931758
-0.2213255
-0.082956053
-0.23238145
-0.087094212
-0.24404099
-0.091347652
-0.25633957
-0.095717497
-0.26931352
-0.1002059
-0.28300055
-0.10481389
-0.29744099
-0.10954355
-0.31267707
-0.11439614
-0.32875481
-0.1193731
-0.34572184
-0.12447587
-0.36362922
-0.12970518
-0.38253212
-0.13506192
-0.40248789
-0.14054588
-0.42355935
-0.14615732
-0.44581153
-0.15189471
-0.46931578
-0.15775644
-0.4941471
-0.16373999
-0.52038567
-0.16984151
-0.54811776
-0.17605601
-0.57743519
-0.18237769
-0.60843523
-0.18879837
-0.64122349
-0.19530819
-0.67591149
-0.20189612
-0.71261851
-0.20854795
-0.75147257
-0.21524766
-0.79261039
-0.22197486
-0.8361786
-0.22870967
-0.88232988
-0.2354211
-0.93122992
-0.2420797
-0.98304357
-0.2486468
-1.0379486
-0.25508005
-1.0961259
-0.26133416
-1.1577781
-0.26736536
-1.2231288
-0.27311247
-1.2923964
-0.27848102
-1.3658122
-0.28344925
-1.4435413
-0.28770275
-1.5254208
-0.29153205
-1.6130538
-1.7028119
-0.00041767011
-0.034728458
-0.0010104111
-0.037875862
-0.001567289
-0.039087497
-0.0022225357
-0.041060691
-0.0028814169
-0.042823062
-0.0036176567
-0.044745691
-0.004386679
-0.046753236
-0.0052228834
-0.048817096
-0.0061111769
-0.051001062
-0.0070662763
-0.053253901
-0.008085942
-0.055622986
-0.0091773225
-0.058082225
-0.010342788
-0.060657741
-0.011587135
-0.063341912
-0.012913765
-0.066149056
-0.014326853
-0.069080876
-0.015830142
-0.072147398
-0.017426975
-0.07535498
-0.01912073
-0.07871271
-0.020914397
-0.082229376
-0.022810997
-0.085914792
-0.024812556
-0.089779653
-0.026921331
-0.093835116
-0.02913883
-0.098093325
-0.031466787
-0.10256689
-0.033906155
-0.1072696
-0.03645752
-0.11221595
-0.039121439
-0.11742125
-0.041898503
-0.12290145
-0.044788391
-0.12867355
-0.047791767
-0.13475499
-0.05090818
-0.141165
-0.054138295
-0.14792236
-0.057481955
-0.15504777
-0.060939915
-0.16256258
-0.064512383
-0.1704894
-0.068200735
-0.17885093
-0.072005889
-0.1876726
-0.075929323
-0.19697932
-0.079972977
-0.20679889
-0.084139227
-0.21715925
-0.08842924
-0.22809144
-0.09284737
-0.23962286
-0.097395906
-0.25179103
-0.10207876
-0.26463067
-0.10689907
-0.27818024
-0.11186103
-0.29247903
-0.11696803
-0.30757007
-0.12222431
-0.32349853
-0.12763395
-0.3403122
-0.13320083
-0.35806233
-0.13892881
-0.37680414
-0.14482169
-0.39659501
-0.15088321
-0.41749784
-0.15711617
-0.43957857
-0.16352382
-0.46290814
-0.17010879
-0.48756213
-0.17687243
-0.51362203
-0.18381651
-0.54117368
-0.19094148
-0.57031023
-0.19824625
-0.60113046
-0.20573
-0.63373975
-0.21338983
-0.66825166
-0.22122138
-0.70478696
-0.22921897
-0.74347498
-0.23737551
-0.78445385
-0.24568206
-0.82787205
-0.25412538
-0.87388655
-0.26269116
-0.92266415
-0.27135638
-0.97437834
-0.28009953
-1.0292055
-0.28889289
-1.0873325
-0.29770801
-1.148963
-0.30651616
-1.2143207
-0.31527389
-1.2836387
-0.32391902
-1.357167
-0.33242009
-1.4350402
-0.34053629
-1.5173046
-0.34848205
-1.605108
-1.6955483
-0.00043385265
-0.034294605
-0.0010571976
-0.037252517
-0.001642623
-0.038502072
-0.0023343135
-0.040369
-0.0030341139
-0.042123261
-0.003816194
-0.04396361
-0.0046386705
-0.045930759
-0.0055333564
-0.04792241
-0.0064885848
-0.050045833
-0.0075171209
-0.052225365
-0.0086188836
-0.054521223
-0.009800334
-0.056900774
-0.011064804
-0.059393271
-0.012416946
-0.061989771
-0.013860796
-0.064705206
-0.015400186
-0.067541486
-0.017039004
-0.07050858
-0.018780489
-0.073613495
-0.020627786
-0.076865412
-0.022583643
-0.080273519
-0.024650367
-0.083848067
-0.026829902
-0.087600119
-0.029124012
-0.091541005
-0.031533651
-0.095683685
-0.034059639
-0.1000409
-0.036702535
-0.1046267
-0.039462703
-0.10945578
-0.042340226
-0.11454373
-0.045335278
-0.1199064
-0.048447896
-0.12556094
-0.051677883
-0.131525
-0.055025879
-0.13781701
-0.058492268
-0.14445597
-0.062077583
-0.15146245
-0.065783217
-0.15885694
-0.069610641
-0.16666198
-0.073561761
-0.17489981
-0.077639114
-0.18359525
-0.081845051
-0.19277339
-0.086183433
-0.2024605
-0.090657745
-0.21268494
-0.095272355
-0.22347683
-0.10003118
-0.23486403
-0.10494026
-0.24688196
-0.11000465
-0.25956627
-0.11523023
-0.27295467
-0.12062302
-0.28708624
-0.12618926
-0.30200383
-0.1319357
-0.3177521
-0.13786904
-0.33437886
-0.14399596
-0.35193541
-0.15032394
-0.37047616
-0.15685969
-0.39005926
-0.16361054
-0.41074698
-0.17058357
-0.43260554
-0.17778573
-0.45570597
-0.18522391
-0.48012395
-0.19290503
-0.5059409
-0.20083494
-0.53324377
-0.20902034
-0.56212483
-0.21746664
-0.59268416
-0.22617876
-0.62502763
-0.23516133
-0.65926908
-0.24441799
-0.6955303
-0.25395162
-0.73394136
-0.26376366
-0.77464181
-0.27385517
-0.81778053
-0.28422551
-0.86351622
-0.29487018
-0.91201947
-0.30578278
-0.96346575
-0.31695191
-1.0180364
-0.32836598
-1.0759185
-0.34000941
-1.1373196
-0.35187025
-1.2024598
-0.36392927
-1.2715797
-0.37615463
-1.3449417
-0.38850583
-1.422689
-0.40080977
-1.5050007
-0.41321914
-1.5926987
-1.6834254
-0.00045963993
-0.033834965
-0.0011258836
-0.036586273
-0.0017537472
-0.037874208
-0.0024962182
-0.039626529
-0.0032536532
-0.041365826
-0.0040991293
-0.043118134
-0.0049947258
-0.045035163
-0.0059691031
-0.046948033
-0.0070143661
-0.04900057
-0.0081413917
-0.05109834
-0.009352217
-0.053310398
-0.010652488
-0.055600504
-0.012046654
-0.057999105
-0.013538992
-0.060497433
-0.015133858
-0.063110341
-0.01683501
-0.065840334
-0.018645785
-0.068697806
-0.020569671
-0.071689609
-0.0226091
-0.074825984
-0.024766307
-0.078116312
-0.027042798
-0.081571577
-0.02943998
-0.085202938
-0.031958716
-0.089022269
-0.034599535
-0.093042867
-0.037362523
-0.097277916
-0.040247733
-0.10174149
-0.043254961
-0.10644855
-0.046384297
-0.11141439
-0.049635266
-0.11665543
-0.053008205
-0.122188
-0.056503716
-0.12802949
-0.060122233
-0.13419849
-0.063864924
-0.14071328
-0.067733401
-0.14759397
-0.071729937
-0.15486041
-0.075857493
-0.16253442
-0.080118739
-0.17063856
-0.084518197
-0.17919579
-0.089060093
-0.18823149
-0.093749377
-0.19777122
-0.098591937
-0.20784238
-0.10359372
-0.21847505
-0.10876129
-0.22969646
-0.11410233
-0.24154093
-0.11962433
-0.25404427
-0.12533571
-0.26724329
-0.1312447
-0.28117725
-0.13736039
-0.29588813
-0.14369235
-0.31142014
-0.15024991
-0.3278213
-0.15704337
-0.34514195
-0.16408296
-0.36343658
-0.17137932
-0.3827629
-0.17894334
-0.40318296
-0.18678632
-0.42476256
-0.19491964
-0.44757265
-0.20335472
-0.47168887
-0.21210341
-0.49719221
-0.22117763
-0.52416955
-0.23058917
-0.55271329
-0.24035041
-0.58292293
-0.25047306
-0.61490497
-0.26096926
-0.64877289
-0.27185048
-0.68464908
-0.28312863
-0.7226632
-0.29481492
-0.76295552
-0.30692067
-0.80567477
-0.31945583
-0.85098107
-0.33242876
-0.89904654
-0.34585059
-0.95004391
-0.35972026
-1.0041667
-0.37403699
-1.0616017
-0.38880605
-1.1225505
-0.40403425
-1.1872316
-0.4197177
-1.2558962
-0.43585488
-1.3288045
-0.45240991
-1.406134
-0.46927019
-1.4881404
-0.48654341
-1.5754255
-1.6660521
-0.00049562304
-0.033339342
-0.0012184502
-0.035863446
-0.0019041414
-0.037188517
-0.0027136145
-0.038817056
-0.0035476464
-0.040531794
-0.004476588
-0.042189193
-0.0054681256
-0.044043625
-0.006546972
-0.045869186
-0.0077092648
-0.047838277
-0.0089639802
-0.049843624
-0.010315125
-0.051959253
-0.011767681
-0.054147948
-0.013326789
-0.056439996
-0.01499642
-0.058827802
-0.016780909
-0.061325851
-0.018683515
-0.063937728
-0.020707501
-0.06667382
-0.022855001
-0.069542109
-0.025128016
-0.072552968
-0.027527947
-0.075716381
-0.030055522
-0.079044002
-0.032711324
-0.082547136
-0.035494937
-0.086238656
-0.038406466
-0.090131338
-0.041445212
-0.09423917
-0.044610886
-0.098575818
-0.047902774
-0.10315666
-0.051320808
-0.10799636
-0.054865355
-0.11311088
-0.058536664
-0.11851669
-0.06233574
-0.12423041
-0.066264112
-0.13027012
-0.070324169
-0.13665322
-0.07451891
-0.14339923
-0.078851603
-0.15052772
-0.083326456
-0.15805957
-0.087949093
-0.16601593
-0.092724572
-0.17442031
-0.097659817
-0.18329625
-0.10276165
-0.19266938
-0.10803784
-0.20256619
-0.11349681
-0.21301608
-0.11914767
-0.22404559
-0.12499984
-0.23568876
-0.13106359
-0.24798052
-0.13734955
-0.26095734
-0.14386898
-0.27465781
-0.15063396
-0.28912315
-0.15765634
-0.30439776
-0.16494941
-0.32052823
-0.17252603
-0.33756532
-0.18040051
-0.35556209
-0.18858722
-0.3745762
-0.19710092
-0.39466926
-0.20595696
-0.41590652
-0.21517159
-0.43835803
-0.22476129
-0.46209917
-0.23474314
-0.48721036
-0.24513497
-0.51377772
-0.25595467
-0.54189359
-0.26722138
-0.57165621
-0.27895415
-0.60317221
-0.29117292
-0.63655412
-0.30389804
-0.67192396
-0.31714994
-0.7094113
-0.33095071
-0.74915475
-0.34532158
-0.7913039
-0.36028488
-0.83601777
-0.37586406
-0.88346736
-0.39207814
-0.93382984
-0.4089457
-0.98729912
-0.42648587
-1.0440616
-0.44471171
-1.1043247
-0.46364556
-1.1682978
-0.48330943
-1.2362324
-0.50372677
-1.3083872
-0.52487908
-1.3849817
-0.54670245
-1.466317
-0.56928487
-1.5528431
-1.6429883
-0.00054289922
-0.032796442
-0.00133735
-0.035068995
-0.0020987311
-0.036427136
-0.002993828
-0.037921959
-0.0039267049
-0.039598917
-0.0049629522
-0.041152946
-0.0060772266
-0.042929351
-0.0072900014
-0.044656412
-0.0086012267
-0.046527052
-0.010017995
-0.048426856
-0.01154618
-0.050431067
-0.013189914
-0.052504215
-0.014954665
-0.054675245
-0.016843841
-0.056938627
-0.018861265
-0.059308427
-0.021009471
-0.061789522
-0.02329064
-0.064392651
-0.025706071
-0.067126678
-0.02825662
-0.070002419
-0.030942278
-0.073030724
-0.03376297
-0.076223311
-0.036717611
-0.079592494
-0.039805674
-0.083150593
-0.043025868
-0.086911145
-0.046377565
-0.090887472
-0.049859673
-0.09509371
-0.053472188
-0.099544149
-0.057215186
-0.10425336
-0.061088948
-0.10923712
-0.065095437
-0.1145102
-0.069236151
-0.1200897
-0.073514696
-0.12599157
-0.077934256
-0.13223366
-0.082499669
-0.13883382
-0.087216132
-0.14581125
-0.092090316
-0.15318538
-0.097128868