/*--------------------------------*- C++ -*----------------------------------*\
  =========                 |
  \\      /  F ield         | OpenFOAM: The Open Source CFD Toolbox
   \\    /   O peration     | Website:  https://openfoam.org
    \\  /    A nd           | Version:  6
     \\/     M anipulation  |
\*---------------------------------------------------------------------------*/
FoamFile
{
    version     2.0;
    format      ascii;
    class       volScalarField;
    location    "250";
    object      rho;
}
// * * * * * * * * * * * * * * * * * * * * * * * * * * * * * * * * * * * * * //

dimensions      [1 -3 0 0 0 0 0];

internalField   nonuniform List<scalar> 
16000
(
1.1544275
1.1607884
1.1588689
1.1603179
1.1597254
1.1604498
1.1603082
1.1607762
1.1608409
1.1612051
1.1613824
1.161708
1.1619541
1.162274
1.1625654
1.1628951
1.1632191
1.1635646
1.1639136
1.1642761
1.1646448
1.1650227
1.1654067
1.165797
1.1661919
1.1665908
1.1669921
1.1673948
1.1677974
1.1681986
1.1685971
1.1689913
1.1693803
1.1697631
1.1701215
1.1704723
1.1708143
1.1711462
1.1714643
1.1717679
1.1720565
1.1723285
1.1725832
1.1728203
1.1730393
1.1732397
1.1734214
1.1735841
1.1737278
1.1738525
1.1739584
1.1740457
1.1741148
1.1741658
1.1741993
1.1742158
1.1742157
1.1741996
1.174168
1.1741214
1.1740603
1.1739856
1.173897
1.1737963
1.1736814
1.1735577
1.1734153
1.1732727
1.1730943
1.172943
1.1727024
1.1725787
1.1722038
1.1722243
1.1715018
1.1719917
1.1703607
1.172062
1.1685865
1.1723832
1.1546122
1.1610149
1.1590009
1.1605388
1.1599219
1.1607072
1.1605656
1.1610792
1.1611569
1.161557
1.1617558
1.1621125
1.1623837
1.1627322
1.1630501
1.1634069
1.1637572
1.1641287
1.164503
1.16489
1.1652824
1.1656829
1.1660883
1.1664987
1.1669122
1.1673279
1.1677442
1.1681598
1.1685733
1.1689831
1.1693878
1.1697858
1.1701758
1.1705557
1.1709259
1.171279
1.1716072
1.1719242
1.1722275
1.1725141
1.1727833
1.1730341
1.1732659
1.1734786
1.1736719
1.1738456
1.1739998
1.1741346
1.1742501
1.1743467
1.1744247
1.1744845
1.1745267
1.1745517
1.1745601
1.1745526
1.1745296
1.1744919
1.1744399
1.1743743
1.1742956
1.1742044
1.174101
1.1739861
1.1738594
1.1737227
1.1735726
1.1734159
1.1732379
1.1730642
1.1728424
1.1726691
1.1723568
1.172263
1.1716974
1.1719495
1.1706265
1.1719557
1.1688145
1.1723465
1.1549475
1.1613868
1.1593063
1.1609187
1.1602904
1.1611279
1.1609952
1.1615483
1.1616458
1.1620785
1.1623025
1.1626884
1.1629868
1.1633629
1.1637081
1.1640915
1.1644683
1.1648651
1.1652644
1.1656751
1.1660902
1.1665121
1.1669375
1.1673661
1.167796
1.1682261
1.1686547
1.1690802
1.1695011
1.1699157
1.1703224
1.1707196
1.171106
1.1714801
1.17184
1.1721849
1.1725151
1.172811
1.1730906
1.1733543
1.1735986
1.1738222
1.1740253
1.174208
1.1743701
1.174512
1.1746337
1.1747358
1.1748187
1.1748828
1.1749289
1.1749575
1.1749694
1.1749652
1.1749455
1.1749111
1.1748628
1.1748011
1.1747267
1.1746401
1.1745419
1.1744326
1.1743126
1.1741824
1.1740419
1.1738921
1.1737315
1.1735624
1.1733787
1.1731899
1.1729725
1.1727708
1.17249
1.1723248
1.1718599
1.1719434
1.1708411
1.1718714
1.1690408
1.172291
1.1554683
1.1619299
1.159795
1.1614861
1.1608478
1.161741
1.1616195
1.1622152
1.1623351
1.1628032
1.1630552
1.1634729
1.1638014
1.1642075
1.1645826
1.1649947
1.1654
1.165824
1.1662495
1.166685
1.1671235
1.1675669
1.1680119
1.168458
1.168903
1.1693456
1.1697839
1.1702162
1.1706407
1.1710558
1.1714597
1.1718508
1.1722275
1.1725885
1.1729325
1.1732582
1.1735641
1.1738516
1.1741025
1.1743324
1.1745441
1.174733
1.1748992
1.175044
1.1751673
1.1752698
1.1753519
1.1754144
1.175458
1.1754835
1.1754918
1.1754836
1.1754599
1.1754215
1.1753693
1.1753039
1.1752263
1.1751371
1.1750369
1.1749265
1.1748061
1.1746765
1.1745378
1.1743905
1.1742347
1.1740707
1.173898
1.1737171
1.1735251
1.1733248
1.1731056
1.1728859
1.1726201
1.1724101
1.1720101
1.171972
1.171043
1.1718342
1.1692602
1.1723178
1.1561644
1.1626324
1.1604635
1.162235
1.1615921
1.162542
1.1624364
1.1630758
1.1632224
1.1637272
1.164011
1.1644621
1.1648235
1.1652613
1.1656683
1.1661106
1.1665457
1.1669975
1.1674499
1.1679102
1.1683717
1.1688358
1.169299
1.1697605
1.1702181
1.1706699
1.1711141
1.1715488
1.1719721
1.1723821
1.1727771
1.1731553
1.1735154
1.1738561
1.174176
1.1744742
1.17475
1.1750022
1.1752328
1.1754214
1.1755902
1.175737
1.1758589
1.1759585
1.1760363
1.1760928
1.1761292
1.1761464
1.1761454
1.1761274
1.1760933
1.1760442
1.1759812
1.1759052
1.1758172
1.175718
1.1756085
1.1754895
1.1753616
1.1752253
1.1750812
1.1749297
1.174771
1.1746056
1.1744334
1.1742545
1.1740687
1.1738759
1.1736742
1.1734638
1.1732396
1.1730077
1.1727479
1.1725085
1.1721524
1.1720243
1.171235
1.1718235
1.1694778
1.1723686
1.157045
1.1635014
1.1613217
1.1631744
1.1625326
1.163541
1.1634565
1.1641419
1.1643203
1.1648642
1.1651843
1.1656713
1.1660691
1.1665411
1.1669828
1.1674571
1.1679239
1.1684049
1.1688849
1.16937
1.169854
1.1703376
1.1708172
1.1712915
1.1717582
1.1722153
1.1726606
1.1730922
1.1735079
1.1739059
1.1742844
1.1746419
1.1749768
1.1752882
1.175575
1.1758365
1.176072
1.1762815
1.1764647
1.1766206
1.176735
1.1768308
1.1769011
1.1769477
1.1769728
1.1769767
1.1769611
1.1769273
1.1768764
1.1768099
1.176729
1.1766351
1.1765291
1.1764123
1.1762857
1.1761501
1.1760065
1.1758557
1.1756981
1.1755345
1.1753652
1.1751906
1.175011
1.1748265
1.1746372
1.174443
1.1742436
1.1740387
1.1738269
1.1736073
1.1733767
1.173136
1.1728773
1.1726188
1.1722925
1.1720966
1.1714234
1.1718376
1.1697001
1.172451
1.1581073
1.164537
1.1623716
1.164308
1.1636742
1.1647449
1.1646883
1.1654225
1.165639
1.1662248
1.166586
1.1671118
1.16755
1.1680586
1.1685376
1.1690457
1.1695455
1.1700562
1.1705638
1.1710731
1.1715782
1.1720788
1.1725716
1.1730548
1.1735258
1.1739824
1.1744223
1.1748433
1.1752435
1.1756208
1.1759736
1.1763005
1.1766003
1.1768721
1.1771153
1.1773296
1.1775147
1.177671
1.1777989
1.1778986
1.1779627
1.1779969
1.1780077
1.1779939
1.1779591
1.1779043
1.1778311
1.1777412
1.1776359
1.1775171
1.177386
1.1772441
1.1770926
1.1769327
1.1767654
1.1765918
1.1764126
1.1762287
1.1760405
1.1758486
1.1756535
1.1754552
1.1752541
1.1750502
1.1748435
1.1746337
1.1744207
1.1742037
1.1739818
1.1737534
1.1735162
1.1732688
1.1730086
1.1727382
1.1724324
1.1721857
1.1716133
1.1718728
1.1699332
1.1725526
1.1593734
1.1657801
1.1636365
1.1656599
1.1650404
1.1661753
1.166153
1.1669381
1.1671983
1.1678285
1.1682357
1.1688028
1.1692848
1.1698322
1.1703506
1.170894
1.1714275
1.1719679
1.1725022
1.1730339
1.1735572
1.1740713
1.1745726
1.175059
1.1755275
1.175976
1.1764018
1.1768029
1.1771773
1.1775231
1.177839
1.1781237
1.1783764
1.1785966
1.1787843
1.1789396
1.1790629
1.179155
1.1792168
1.1792496
1.1792556
1.1792187
1.1791615
1.1790807
1.1789799
1.1788608
1.178725
1.1785748
1.1784115
1.1782372
1.1780532
1.177861
1.1776621
1.1774576
1.1772485
1.1770359
1.1768204
1.1766027
1.1763835
1.1761631
1.1759418
1.1757198
1.1754972
1.1752739
1.1750499
1.1748248
1.1745982
1.1743696
1.1741379
1.1739014
1.1736578
1.1734053
1.1731425
1.1728657
1.1725734
1.1722902
1.1718043
1.1719266
1.1701776
1.1726751
1.1608523
1.1672683
1.1651268
1.1672406
1.1666423
1.1678444
1.167864
1.1687027
1.1690135
1.1696911
1.1701494
1.1707609
1.1712902
1.1718787
1.1724385
1.1730179
1.1735852
1.1741542
1.1747131
1.175264
1.1758012
1.1763231
1.176826
1.1773074
1.1777644
1.1781944
1.1785951
1.1789642
1.1793001
1.1796013
1.1798666
1.1800953
1.1802872
1.1804424
1.1805613
1.1806449
1.1806942
1.1807106
1.1806958
1.1806518
1.1805806
1.1804739
1.1803414
1.1801878
1.1800155
1.1798276
1.1796254
1.1794116
1.1791877
1.1789558
1.1787173
1.1784738
1.1782266
1.177977
1.1777258
1.1774739
1.1772221
1.176971
1.1767211
1.1764725
1.1762255
1.1759802
1.1757365
1.1754944
1.1752535
1.1750136
1.1747742
1.1745345
1.1742936
1.1740497
1.1738006
1.1735443
1.1732789
1.1729998
1.1727161
1.1724089
1.1719982
1.1719974
1.1704383
1.1728176
1.1625449
1.1689783
1.1668501
1.1690603
1.1684925
1.1697662
1.1698368
1.1707331
1.1711023
1.1718312
1.1723465
1.1730058
1.173586
1.1742178
1.1748203
1.1754358
1.1760357
1.1766309
1.1772105
1.1777752
1.1783194
1.1788408
1.1793356
1.1798011
1.1802342
1.1806324
1.1809935
1.1813157
1.1815976
1.1818382
1.182037
1.1821939
1.1823095
1.1823846
1.1824206
1.1824191
1.182382
1.1823114
1.1822097
1.1820798
1.1819227
1.1817392
1.1815252
1.1812935
1.1810456
1.1807854
1.1805143
1.1802349
1.1799491
1.1796587
1.1793652
1.1790703
1.1787751
1.1784807
1.178188
1.1778978
1.1776106
1.1773269
1.1770471
1.1767713
1.1764996
1.176232
1.1759683
1.1757082
1.1754515
1.1751978
1.1749463
1.1746965
1.1744473
1.174197
1.1739433
1.1736844
1.1734173
1.1731391
1.1728605
1.1725408
1.172194
1.1720842
1.1707189
1.1729711
1.1644669
1.1709419
1.1688237
1.1711372
1.1706098
1.17196
1.1720922
1.1730506
1.1734868
1.1742714
1.1748497
1.1755603
1.1761947
1.1768713
1.1775167
1.1781669
1.1787963
1.179413
1.1800067
1.1805768
1.1811177
1.1816267
1.1821
1.1825345
1.1829275
1.1832767
1.1835803
1.1838371
1.1840463
1.1842077
1.1843217
1.1843893
1.1844118
1.184391
1.1843292
1.1842292
1.1840935
1.1839252
1.1837274
1.1835031
1.1832545
1.1829877
1.1826872
1.1823737
1.1820477
1.1817134
1.1813723
1.1810271
1.1806794
1.180331
1.1799835
1.1796383
1.1792963
1.1789587
1.178626
1.178299
1.1779781
1.1776635
1.1773555
1.1770541
1.1767593
1.1764708
1.1761885
1.1759119
1.1756407
1.1753743
1.1751121
1.1748533
1.1745969
1.1743414
1.1740845
1.1738243
1.1735569
1.1732821
1.1730063
1.1726844
1.1723906
1.172187
1.1710218
1.1731269
1.1666237
1.1731593
1.1710625
1.1734895
1.1730156
1.1744489
1.1746553
1.1756816
1.1761943
1.1770398
1.1776869
1.178452
1.1791427
1.1798641
1.1805505
1.1812316
1.1818844
1.1825141
1.1831113
1.183674
1.1841969
1.1846768
1.1851101
1.1854939
1.185826
1.1861046
1.1863287
1.1864981
1.1866128
1.1866741
1.1866832
1.1866424
1.1865542
1.1864216
1.1862478
1.1860365
1.1857914
1.185516
1.1852143
1.1848897
1.1845449
1.1841886
1.1838007
1.1834037
1.1829993
1.1825912
1.1821809
1.1817709
1.181363
1.1809586
1.1805592
1.1801659
1.1797796
1.1794012
1.1790311
1.1786697
1.1783174
1.1779742
1.1776403
1.1773155
1.1769995
1.1766922
1.1763931
1.1761018
1.1758177
1.1755403
1.1752689
1.1750026
1.1747405
1.174481
1.1742224
1.1739621
1.1736962
1.1734268
1.173153
1.1728376
1.1725855
1.1723053
1.1713367
1.1732797
1.1690518
1.1756661
1.1735996
1.17615
1.1757441
1.1772671
1.1775612
1.1786609
1.1792596
1.1801703
1.1808909
1.1817123
1.182459
1.1832226
1.1839446
1.1846486
1.1853139
1.1859433
1.1865276
1.1870644
1.1875484
1.1879764
1.1883454
1.1886532
1.1888983
1.1890801
1.1891988
1.1892555
1.1892517
1.18919
1.1890732
1.188905
1.188689
1.1884295
1.1881309
1.1877977
1.1874342
1.187045
1.1866342
1.1862056
1.1857622
1.1853125
1.1848397
1.1843601
1.1838787
1.1833988
1.1829219
1.1824502
1.1819851
1.181528
1.1810801
1.1806422
1.1802151
1.1797991
1.1793948
1.1790023
1.1786217
1.1782529
1.1778958
1.1775502
1.1772157
1.1768918
1.1765782
1.1762742
1.1759793
1.1756927
1.1754138
1.1751418
1.1748755
1.1746137
1.1743548
1.1740959
1.1738337
1.173571
1.1732998
1.1729978
1.172777
1.1724373
1.1716504
1.1734242
1.1717866
1.1784898
1.176466
1.179152
1.1788312
1.180451
1.1808478
1.1820269
1.1827209
1.1837008
1.1844976
1.1853745
1.1861736
1.1869724
1.1877194
1.1884324
1.1890927
1.189701
1.1902489
1.1907335
1.1911502
1.1914964
1.1917701
1.1919704
1.1920972
1.1921517
1.1921358
1.1920522
1.1919045
1.1916968
1.1914337
1.1911202
1.1907614
1.1903626
1.1899291
1.1894663
1.1889791
1.1884723
1.1879507
1.1874176
1.1868766
1.1863359
1.1857793
1.1852205
1.1846659
1.1841183
1.1835791
1.1830502
1.1825326
1.1820275
1.1815355
1.1810575
1.1805937
1.1801446
1.17971
1.1792902
1.1788848
1.1784938
1.1781168
1.1777535
1.1774032
1.1770655
1.1767399
1.1764256
1.1761221
1.1758285
1.1755441
1.1752681
1.1749995
1.174737
1.1744793
1.1742236
1.1739672
1.1737124
1.1734454
1.1731623
1.1729635
1.1725824
1.1719595
1.1735656
1.174864
1.1816675
1.1797027
1.1825376
1.1823234
1.184047
1.1845632
1.185827
1.1866238
1.1876746
1.1885469
1.1894738
1.1903156
1.1911355
1.191889
1.1925881
1.1932166
1.1937736
1.1942518
1.1946485
1.1949607
1.1951872
1.1953277
1.1953834
1.1953564
1.1952501
1.1950686
1.1948169
1.1945007
1.1941257
1.1936984
1.1932251
1.1927121
1.1921657
1.1915917
1.1909959
1.1903837
1.1897599
1.1891294
1.188495
1.1878604
1.187234
1.1865979
1.1859656
1.1853436
1.1847345
1.1841391
1.1835589
1.1829946
1.182447
1.1819166
1.1814037
1.1809084
1.1804307
1.1799705
1.1795275
1.1791015
1.1786921
1.1782987
1.1779209
1.1775581
1.1772095
1.1768746
1.1765526
1.1762429
1.1759445
1.1756568
1.1753788
1.1751097
1.1748484
1.1745935
1.1743424
1.1740939
1.173848
1.173588
1.1733274
1.1731427
1.1727383
1.1722645
1.1737006
1.178325
1.1852454
1.18336
1.1863582
1.1862752
1.1881092
1.1887634
1.1901175
1.1910202
1.1921386
1.1930789
1.1940424
1.1949073
1.1957238
1.1964534
1.1971039
1.1976614
1.1981247
1.1984884
1.1987514
1.1989128
1.1989741
1.1989377
1.1988076
1.198589
1.1982879
1.1979111
1.1974659
1.19696
1.1964011
1.1957969
1.1951548
1.194482
1.1937851
1.1930704
1.1923436
1.1916099
1.1908743
1.1901409
1.1894117
1.1886912
1.1879873
1.1872781
1.1865803
1.1858986
1.1852355
1.1845912
1.1839668
1.1833627
1.1827793
1.1822165
1.1816746
1.1811532
1.1806522
1.1801712
1.1797098
1.1792674
1.1788435
1.1784376
1.1780489
1.1776767
1.1773203
1.176979
1.176652
1.1763385
1.1760377
1.1757489
1.175471
1.1752033
1.1749449
1.1746944
1.1744497
1.1742106
1.1739746
1.1737251
1.173489
1.1733102
1.1729003
1.1725674
1.1738249
1.1822133
1.189283
1.1875031
1.1906739
1.1907489
1.1926977
1.1935058
1.1949569
1.1959638
1.197136
1.1981256
1.1991
1.1999548
1.2007285
1.2013885
1.2019401
1.2023726
1.202686
1.2028782
1.2029512
1.2029078
1.202753
1.2024931
1.2021357
1.2016893
1.201163
1.2005661
1.1999082
1.1991985
1.1984462
1.1976598
1.1968473
1.1960161
1.1951727
1.1943233
1.1934731
1.1926266
1.1917885
1.1909619
1.1901483
1.189353
1.188582
1.1878077
1.1870539
1.1863217
1.1856134
1.1849286
1.184268
1.1836315
1.1830192
1.1824308
1.181866
1.1813244
1.1808055
1.1803087
1.1798335
1.1793791
1.1789449
1.1785302
1.1781341
1.177756
1.1773948
1.17705
1.1767206
1.176406
1.1761051
1.1758173
1.1755417
1.1752774
1.1750236
1.1747791
1.1745423
1.1743139
1.1740888
1.1738533
1.1736425
1.1734651
1.1730641
1.1728582
1.1739361
1.1865982
1.193835
1.1922047
1.1955688
1.1958457
1.1979192
1.1988678
1.2003894
1.2014948
1.2026992
1.2037037
1.2046462
1.205438
1.206109
1.2066335
1.2070169
1.2072536
1.2073469
1.2073
1.2071195
1.2068133
1.2063911
1.2058637
1.2052424
1.2045391
1.2037655
1.2029332
1.2020531
1.2011356
1.2001903
1.1992257
1.1982498
1.1972694
1.1962905
1.1953185
1.1943576
1.1934119
1.1924848
1.1915778
1.1906926
1.1898361
1.1890081
1.1881797
1.1873806
1.1866081
1.1858641
1.1851477
1.1844593
1.1837982
1.1831643
1.182557
1.1819756
1.1814196
1.1808882
1.1803808
1.1798964
1.1794344
1.1789939
1.1785742
1.1781742
1.1777933
1.1774304
1.1770849
1.1767558
1.1764424
1.1761438
1.1758592
1.1755878
1.1753288
1.1750814
1.1748443
1.1746169
1.1744
1.1741865
1.1739684
1.1737832
1.1736065
1.1732256
1.1731271
1.1740323
1.1915871
1.1990074
1.1975881
1.2011372
1.2016491
1.2038169
1.2049319
1.2065114
1.2076662
1.2088541
1.209809
1.210646
1.2112926
1.2117738
1.2120731
1.2121992
1.2121539
1.2119469
1.2115881
1.2110903
1.2104672
1.2097337
1.2089046
1.2079947
1.2070185
1.2059893
1.2049197
1.2038211
1.2027038
1.2015767
1.2004479
1.1993242
1.1982114
1.1971144
1.1960372
1.1949829
1.1939547
1.1929547
1.1919829
1.1910414
1.1901372
1.1892611
1.1883935
1.1875601
1.1867579
1.1859878
1.1852489
1.1845409
1.183863
1.1832146
1.1825949
1.1820031
1.1814383
1.1808997
1.1803864
1.1798974
1.1794319
1.178989
1.1785678
1.1781673
1.1777866
1.1774249
1.1770814
1.1767551
1.1764452
1.176151
1.1758716
1.1756063
1.1753543
1.1751148
1.1748867
1.17467
1.174465
1.1742637
1.1740651
1.1739054
1.1737312
1.1733773
1.1733642
1.1741082
1.1974069
1.2049914
1.2038567
1.2075319
1.2082758
1.2105053
1.2117448
1.2133407
1.2144791
1.215562
1.2163671
1.2169887
1.2173757
1.2175528
1.2175166
1.2172829
1.2168635
1.2162762
1.215539
1.2146711
1.2136917
1.2126199
1.2114734
1.210269
1.209022
1.2077459
1.2064529
1.2051534
1.2038565
1.2025697
1.2012995
1.2000509
1.1988284
1.1976353
1.1964741
1.1953467
1.1942552
1.1931999
1.1921795
1.1911978
1.1902602
1.1893473
1.1884532
1.1875962
1.1867745
1.1859877
1.185235
1.1845154
1.183828
1.183172
1.1825462
1.1819497
1.1813815
1.1808405
1.1803258
1.1798364
1.1793712
1.1789294
1.17851
1.178112
1.1777344
1.1773765
1.1770374
1.1767161
1.1764119
1.176124
1.1758516
1.175594
1.1753506
1.1751204
1.1749025
1.1746976
1.1745047
1.174316
1.1741379
1.1740014
1.1738298
1.1735085
1.1735702
1.1741661
1.2041798
1.2118224
1.2109659
1.2147014
1.2158253
1.2181702
1.2194024
1.2208789
1.2218669
1.2226967
1.2232013
1.2234583
1.2234419
1.2231828
1.2226931
1.2219989
1.2211235
1.2200929
1.2189323
1.2176661
1.2163168
1.2149055
1.2134505
1.2119682
1.2104729
1.2089765
1.2074891
1.2060191
1.2045732
1.2031569
1.2017745
1.2004292
1.1991235
1.197859
1.1966367
1.1954577
1.1943226
1.1932296
1.1921772
1.1911721
1.190215
1.1892754
1.188366
1.1874959
1.1866643
1.1858697
1.1851111
1.1843874
1.1836974
1.1830398
1.1824137
1.1818177
1.1812509
1.180712
1.1802
1.1797138
1.1792525
1.1788149
1.1784002
1.1780074
1.1776355
1.1772836
1.176951
1.1766367
1.17634
1.1760601
1.1757963
1.1755478
1.1753142
1.1750943
1.1748878
1.1746954
1.1745148
1.1743396
1.1741816
1.1740624
1.1738948
1.1736203
1.1737433
1.1741959
1.2118894
1.2195376
1.2192752
1.2232096
1.2243213
1.2265394
1.2277198
1.2289027
1.2295692
1.2299635
1.2299856
1.2297092
1.2291383
1.2283159
1.2272714
1.2260418
1.22466
1.2231585
1.221566
1.2199087
1.2182092
1.216487
1.2147586
1.2130375
1.2113348
1.2096594
1.2080184
1.2064171
1.2048597
1.2033489
1.2018869
1.200475
1.1991137
1.1978031
1.196543
1.1953335
1.1941733
1.1930591
1.1919919
1.1909793
1.1900128
1.1890549
1.1881416
1.1872683
1.1864355
1.1856411
1.184884
1.1841627
1.183476
1.1828226
1.182201
1.1816103
1.181049
1.1805161
1.1800103
1.1795307
1.1790761
1.1786456
1.1782382
1.1778528
1.1774887
1.1771449
1.1768205
1.1765149
1.1762271
1.1759566
1.1757025
1.1754643
1.1752413
1.1750327
1.1748384
1.1746587
1.1744907
1.1743301
1.1741916
1.1740849
1.1739245
1.173703
1.1738639
1.1741925
1.2210773
1.2287662
1.2288248
1.2326138
1.2338133
1.2356672
1.2365079
1.2371485
1.2372248
1.2369483
1.2362782
1.2352989
1.2340427
1.2325657
1.2309108
1.2291215
1.227235
1.225284
1.2232961
1.2212944
1.2192976
1.2173208
1.2153757
1.2134714
1.2116149
1.209811
1.2080634
1.2063741
1.2047447
1.2031754
1.2016665
1.2002172
1.1988267
1.1974936
1.1962172
1.1949962
1.1938274
1.1927077
1.1916421
1.190633
1.1896561
1.1887011
1.1877915
1.1869238
1.1860973
1.18531
1.1845606
1.1838475
1.1831693
1.1825247
1.1819121
1.1813305
1.1807784
1.1802547
1.1797583
1.1792879
1.1788427
1.1784215
1.1780234
1.1776475
1.1772929
1.1769586
1.176644
1.1763482
1.1760706
1.1758103
1.1755669
1.1753397
1.175128
1.1749313
1.1747494
1.1745826
1.1744272
1.174282
1.1741616
1.174065
1.1739173
1.1737471
1.173915
1.1741477
1.2321884
1.2393332
1.2397057
1.2430356
1.2439049
1.2450526
1.245182
1.2449607
1.2441677
1.2430022
1.2414789
1.2396934
1.2376986
1.2355564
1.2333136
1.231012
1.2286847
1.2263586
1.2240547
1.2217888
1.2195732
1.2174164
1.2153244
1.2133014
1.2113497
1.2094705
1.2076639
1.2059295
1.2042662
1.2026725
1.2011468
1.1996871
1.1982912
1.1969571
1.1956834
1.1944674
1.1933043
1.192194
1.1911438
1.1901464
1.1891663
1.1882237
1.1873256
1.1864708
1.1856571
1.1848829
1.1841466
1.1834467
1.1827815
1.1821497
1.1815498
1.1809806
1.1804408
1.1799292
1.1794446
1.1789859
1.1785521
1.1781422
1.1777553
1.1773903
1.1770465
1.1767231
1.1764193
1.1761343
1.1758675
1.1756183
1.175386
1.1751701
1.17497
1.1747852
1.1746158
1.1744613
1.1743186
1.1741886
1.1740838
1.1739954
1.1738642
1.1737421
1.1738992
1.1740501
1.24481
1.2510175
1.2513121
1.253702
1.2538117
1.2538206
1.2528638
1.2514911
1.2496223
1.2474486
1.2450247
1.2424459
1.2397692
1.2370491
1.2343241
1.2316247
1.2289732
1.2263855
1.2238726
1.2214419
1.2190976
1.2168421
1.2146759
1.2125984
1.2106084
1.2087038
1.2068823
1.2051413
1.203478
1.2018897
1.2003733
1.1989261
1.1975451
1.1962281
1.1949729
1.1937748
1.1926301
1.1915432
1.1905177
1.1895321
1.1885598
1.1876371
1.1867577
1.1859216
1.1851261
1.1843698
1.183651
1.182968
1.1823193
1.1817035
1.1811192
1.1805651
1.1800399
1.1795425
1.1790717
1.1786264
1.1782056
1.1778083
1.1774337
1.1770808
1.1767488
1.176437
1.1761446
1.1758709
1.1756153
1.1753772
1.1751561
1.1749514
1.1747626
1.1745894
1.1744319
1.1742891
1.1741587
1.174043
1.1739513
1.1738703
1.1737584
1.1736762
1.1738104
1.1738905
1.2578413
1.2630623
1.262899
1.263642
1.2624495
1.2608904
1.2585657
1.2559061
1.2529368
1.2498186
1.2466146
1.2433974
1.2402089
1.237083
1.234041
1.2310975
1.2282607
1.2255352
1.2229223
1.2204215
1.2180308
1.2157474
1.2135678
1.2114883
1.2095049
1.2076135
1.2058103
1.2040913
1.2024527
1.200891
1.1994025
1.1979838
1.1966319
1.1953444
1.1941178
1.1929464
1.1918303
1.1907769
1.1897774
1.188797
1.1878514
1.1869517
1.1860962
1.1852826
1.1845091
1.183774
1.1830756
1.1824123
1.1817827
1.1811852
1.1806186
1.1800815
1.1795728
1.1790911
1.1786356
1.178205
1.1777984
1.1774149
1.1770536
1.1767136
1.1763941
1.1760944
1.1758139
1.1755518
1.1753075
1.1750806
1.1748705
1.1746767
1.1744988
1.1743366
1.17419
1.1740579
1.1739389
1.1738359
1.1737548
1.1736809
1.1735887
1.1735373
1.1736438
1.173673
1.2716174
1.273936
1.2725171
1.2707279
1.2677813
1.2644879
1.2608226
1.257046
1.2532184
1.2494352
1.2457352
1.2421531
1.2387049
1.2354003
1.2322423
1.2292303
1.2263611
1.2236299
1.2210313
1.2185592
1.2162076
1.2139706
1.2118424
1.2098173
1.2078902
1.206056
1.2043098
1.2026474
1.2010643
1.1995568
1.1981209
1.1967531
1.1954506
1.1942107
1.1930278
1.1918985
1.1908287
1.1898199
1.1888484
1.1878897
1.1869798
1.1861134
1.1852898
1.1845066
1.1837623
1.1830549
1.182383
1.181745
1.1811395
1.1805652
1.1800206
1.1795046
1.1790159
1.1785536
1.1781164
1.1777034
1.1773137
1.1769463
1.1766005
1.1762753
1.17597
1.175684
1.1754165
1.175167
1.1749349
1.1747196
1.1745208
1.1743379
1.1741706
1.1740186
1.173882
1.1737596
1.1736507
1.1735582
1.1734848
1.1734175
1.1733437
1.1733143
1.1733933
1.1733861
1.2820224
1.2800582
1.2768577
1.2729572
1.2686361
1.2642155
1.2597892
1.2554714
1.2512971
1.2472984
1.2434826
1.239853
1.2364054
1.2331336
1.2300295
1.2270845
1.2242903
1.2216385
1.219121
1.2167298
1.2144578
1.212298
1.2102441
1.2082901
1.2064306
1.2046604
1.2029749
1.2013694
1.1998402
1.1983832
1.1969946
1.1956716
1.1944118
1.193211
1.1920639
1.1909721
1.1899434
1.1889643
1.1879972
1.1870696
1.1861867
1.1853469
1.184548
1.1837885
1.1830664
1.1823803
1.1817286
1.1811099
1.1805227
1.1799658
1.1794379
1.1789378
1.1784643
1.1780165
1.1775932
1.1771935
1.1768164
1.1764612
1.1761269
1.1758129
1.1755182
1.1752424
1.1749846
1.1747444
1.1745211
1.1743144
1.1741236
1.1739485
1.1737886
1.1736437
1.1735137
1.1733976
1.1732954
1.173209
1.1731388
1.1730766
1.1730182
1.1729957
1.1730365
1.1730277
1.2800375
1.2761967
1.2722572
1.2677875
1.2632329
1.2587201
1.2543439
1.2501473
1.2461448
1.2423425
1.2387355
1.2353174
1.2320786
1.2290096
1.2261003
1.223341
1.2207226
1.2182365
1.2158754
1.2136318
1.2114992
1.2094711
1.2075418
1.2057058
1.2039581
1.202294
1.2007091
1.1991994
1.1977612
1.1963909
1.1950851
1.1938414
1.1926567
1.191526
1.1904473
1.1894262
1.1884601
1.1875211
1.1866032
1.1857305
1.1848997
1.1841095
1.1833579
1.1826433
1.1819642
1.1813191
1.1807065
1.1801251
1.1795736
1.1790508
1.1785554
1.1780863
1.1776426
1.1772231
1.1768268
1.1764529
1.1761004
1.1757686
1.1754567
1.1751638
1.1748893
1.1746325
1.1743928
1.1741696
1.1739624
1.1737707
1.173594
1.173432
1.1732842
1.1731505
1.1730305
1.1729238
1.1728303
1.1727509
1.1726853
1.1726298
1.1725841
1.1725615
1.1725705
1.1725687
1.2560886
1.2585741
1.2573789
1.2553715
1.2525608
1.2494896
1.2462526
1.2430038
1.2397871
1.2366508
1.2336113
1.2306826
1.2278687
1.2251713
1.2225893
1.22012
1.2177598
1.2155045
1.2133499
1.2112915
1.2093252
1.2074469
1.2056525
1.2039384
1.2023009
1.2007368
1.1992426
1.1978155
1.1964522
1.1951502
1.1939071
1.1927209
1.1915868
1.1905014
1.1894687
1.1884936
1.1875578
1.1866296
1.1857459
1.1849023
1.1840988
1.1833333
1.1826044
1.1819108
1.181251
1.1806237
1.1800276
1.1794615
1.1789242
1.1784145
1.1779314
1.1774738
1.1770406
1.176631
1.176244
1.1758786
1.1755341
1.1752097
1.1749045
1.174618
1.1743492
1.1740977
1.1738627
1.1736437
1.1734402
1.1732516
1.1730776
1.1729176
1.1727714
1.1726385
1.1725187
1.1724117
1.1723174
1.1722359
1.1721667
1.1721091
1.1720635
1.1720322
1.1720164
1.1720116
1.2613123
1.2609454
1.2608432
1.2601973
1.2586583
1.2562444
1.2528286
1.2487319
1.2441585
1.2394187
1.2345824
1.2296878
1.2249426
1.2202911
1.2158614
1.2117758
1.2079848
1.204617
1.2016042
1.1989127
1.1965282
1.1944306
1.1925759
1.1909627
1.1895303
1.1882586
1.187115
1.1860829
1.1851524
1.1843349
1.1835985
1.1829192
1.182288
1.1816957
1.1811377
1.1806091
1.1801079
1.1796319
1.179181
1.1787494
1.1783381
1.1779476
1.1775734
1.1772189
1.1768835
1.1765667
1.176267
1.1759838
1.1757161
1.1754633
1.1752243
1.1749988
1.1747853
1.1745837
1.1743918
1.1742109
1.1740362
1.1738731
1.1737104
1.1735627
1.1734046
1.1732723
1.173108
1.1729954
1.1728074
1.1727279
1.1724865
1.1724686
1.172121
1.1722207
1.1716777
1.1719929
1.171112
1.1718072
1.1703744
1.1717077
1.1693732
1.1717307
1.1680017
1.1719509
1.0967157
1.1026577
1.1111168
1.1203852
1.1297953
1.1386703
1.1459273
1.15194
1.157189
1.1617194
1.1655752
1.1689171
1.1717848
1.1742523
1.1763695
1.1781517
1.1796581
1.1808736
1.1818571
1.1825951
1.1831474
1.1835044
1.1837118
1.1837735
1.1837098
1.1835541
1.1833133
1.1830159
1.1826736
1.182301
1.1818974
1.1814744
1.1810373
1.180596
1.1801573
1.1797265
1.1793063
1.1788989
1.1785091
1.1781342
1.1777747
1.1774321
1.1771053
1.1767927
1.1764967
1.1762162
1.1759502
1.1756984
1.1754597
1.1752338
1.1750197
1.1748171
1.1746246
1.1744425
1.1742684
1.174104
1.1739443
1.1737947
1.1736445
1.1735076
1.1733604
1.1732359
1.1730817
1.1729735
1.1727961
1.1727163
1.1724882
1.1724633
1.1721359
1.1722195
1.171705
1.171994
1.1711505
1.1718131
1.17041
1.17172
1.1693973
1.171764
1.1680002
1.1720073
1.2102798
1.2113083
1.2137019
1.2160508
1.2162514
1.2151019
1.2134261
1.2115097
1.2094442
1.2073588
1.2052684
1.2032405
1.2012718
1.1994012
1.1976145
1.1959342
1.1943545
1.1928868
1.1915297
1.1902861
1.1891618
1.1881516
1.187202
1.1863527
1.185583
1.1848913
1.1842329
1.1836215
1.1830204
1.1823989
1.1818121
1.1812677
1.1807532
1.1802735
1.1798187
1.1793863
1.1789752
1.1785844
1.1782145
1.1778548
1.1775142
1.1771913
1.1768808
1.1765875
1.1763094
1.1760448
1.1757933
1.1755548
1.1753286
1.1751144
1.1749113
1.1747192
1.1745367
1.174364
1.1741988
1.1740428
1.1738911
1.1737489
1.1736057
1.173475
1.1733338
1.1732143
1.1730654
1.1729604
1.1727884
1.1727091
1.1724872
1.1724595
1.1721406
1.1722152
1.1717165
1.1719856
1.1711684
1.1717985
1.1704382
1.1717049
1.1694274
1.1717562
1.1680222
1.1720199
1.1689931
1.1690413
1.1720858
1.1772887
1.1796503
1.1804742
1.1809174
1.1812915
1.1816085
1.1819487
1.182281
1.1826273
1.1829224
1.183199
1.1833356
1.1835998
1.1835836
1.1837863
1.1836769
1.1837486
1.1835586
1.1835317
1.1833067
1.1831211
1.1828854
1.1825331
1.1822286
1.1818419
1.1814766
1.1811025
1.1807215
1.1803387
1.1799577
1.1795799
1.1792085
1.1788446
1.17849
1.1781466
1.1778128
1.1774907
1.1771834
1.1768891
1.1766079
1.176339
1.1760826
1.1758384
1.1756068
1.1753868
1.1751781
1.1749803
1.1747927
1.174615
1.1744461
1.1742861
1.1741326
1.1739874
1.1738456
1.1737126
1.1735777
1.1734548
1.1733202
1.1732072
1.1730632
1.1729637
1.1727949
1.1727204
1.1725005
1.172477
1.1721583
1.1722371
1.1717352
1.172011
1.1711876
1.1718264
1.1704547
1.1717311
1.1694425
1.1717809
1.1680337
1.1720438
1.1764791
1.1785197
1.1831711
1.1873409
1.1883851
1.1884789
1.188155
1.1879113
1.1876316
1.1873916
1.1870874
1.1868107
1.1864962
1.1862061
1.1858884
1.1855765
1.185251
1.1849086
1.1845664
1.1841893
1.1838326
1.1834019
1.183009
1.1825939
1.1821816
1.1817945
1.1813986
1.1810234
1.1806518
1.1802851
1.1799241
1.1795706
1.1792256
1.1788895
1.1785618
1.1782426
1.1779328
1.1776328
1.177341
1.1770587
1.1767886
1.1765291
1.1762799
1.1760409
1.1758125
1.1755944
1.1753868
1.1751891
1.1750011
1.1748226
1.1746529
1.1744918
1.1743383
1.1741925
1.1740523
1.1739192
1.1737887
1.1736658
1.1735403
1.1734257
1.1732988
1.1731921
1.1730545
1.1729595
1.172796
1.1727241
1.1725083
1.1724858
1.172171
1.1722486
1.1717527
1.172023
1.1712077
1.1718372
1.1704785
1.1717425
1.169465
1.1717948
1.1680497
1.1720625
1.1700494
1.1718867
1.176629
1.1811584
1.18269
1.1828956
1.1824653
1.182507
1.1823954
1.1824091
1.1822645
1.1822217
1.1820887
1.1819962
1.1818542
1.1817327
1.181581
1.1814404
1.1812802
1.1811259
1.1809524
1.1807908
1.1806075
1.1804195
1.1802188
1.1800046
1.1797821
1.1795488
1.1793092
1.1790641
1.1788129
1.1785591
1.1783039
1.1780485
1.1777939
1.1775411
1.1772917
1.1770471
1.1768054
1.1765701
1.1763433
1.176124
1.1759114
1.1757068
1.1755101
1.1753217
1.1751412
1.174969
1.1748047
1.1746483
1.1744992
1.1743571
1.1742212
1.1740917
1.1739664
1.1738469
1.1737289
1.1736173
1.1735021
1.1733964
1.173278
1.1731783
1.1730474
1.1729573
1.1727992
1.1727305
1.1725195
1.1724979
1.1721877
1.1722639
1.171772
1.1720397
1.1712292
1.1718543
1.1704999
1.1717589
1.1694854
1.1718108
1.1680647
1.1720809
1.1689764
1.1712803
1.1764531
1.1805537
1.1816094
1.1817305
1.181548
1.1814695
1.1812898
1.1811992
1.1810317
1.1809279
1.1807685
1.1806573
1.1805067
1.1803847
1.1802354
1.1800989
1.1799437
1.1797941
1.1796326
1.1794688
1.1792976
1.1791242
1.1789442
1.1787628
1.1785763
1.1783879
1.1781974
1.1780037
1.1778064
1.1776083
1.1774096
1.1772108
1.1770122
1.1768142
1.1766181
1.1764246
1.1762312
1.1760429
1.1758605
1.1756825
1.1755094
1.1753415
1.1751794
1.1750232
1.1748731
1.174729
1.1745909
1.1744588
1.1743322
1.174211
1.1740943
1.1739824
1.1738734
1.1737687
1.1736642
1.1735647
1.1734606
1.1733645
1.1732551
1.1731626
1.173039
1.1729538
1.1728018
1.1727356
1.1725298
1.1725086
1.1722034
1.1722776
1.1717922
1.1720543
1.1712513
1.1718685
1.170524
1.1717727
1.1695077
1.1718254
1.1680804
1.1720978
1.1663921
1.1690024
1.1744273
1.1782464