/*--------------------------------*- C++ -*----------------------------------*\
  =========                 |
  \\      /  F ield         | OpenFOAM: The Open Source CFD Toolbox
   \\    /   O peration     | Website:  https://openfoam.org
    \\  /    A nd           | Version:  6
     \\/     M anipulation  |
\*---------------------------------------------------------------------------*/
FoamFile
{
    version     2.0;
    format      ascii;
    class       volScalarField;
    location    "250";
    object      T;
}
// * * * * * * * * * * * * * * * * * * * * * * * * * * * * * * * * * * * * * //

dimensions      [0 0 0 1 0 0 0];

internalField   nonuniform List<scalar> 
16000
(
297.09946
295.71026
296.21064
296.00417
296.17579
296.13329
296.21495
296.22333
296.27661
296.30382
296.34856
296.38463
296.42786
296.46898
296.51346
296.5581
296.60463
296.65194
296.70047
296.74979
296.7999
296.85058
296.90175
296.95324
297.00492
297.05666
297.10832
297.15976
297.21084
297.2614
297.31132
297.36043
297.40861
297.45578
297.50006
297.54317
297.585
297.62536
297.66387
297.7005
297.73525
297.76798
297.79862
297.82716
297.85356
297.87778
297.8998
297.91964
297.93729
297.95278
297.96615
297.97744
297.98671
297.99402
297.99946
298.00308
298.00496
298.00521
298.00392
298.0012
297.99714
297.99187
297.98546
297.9781
297.9697
297.96076
297.95079
297.94135
297.9305
297.92278
297.91083
297.90798
297.8911
297.90066
297.86975
297.91425
297.8501
297.96341
297.84806
298.02308
297.10606
295.72566
296.2478
296.03592
296.21373
296.17063
296.25546
296.2653
296.32128
296.35105
296.39826
296.43723
296.4831
296.52717
296.57436
296.62185
296.67102
296.72096
296.77195
296.82362
296.87593
296.92868
296.98176
297.03499
297.08825
297.14139
297.19426
297.24671
297.29858
297.34972
297.39995
297.44915
297.49716
297.54377
297.589
297.63213
297.6723
297.71096
297.7478
297.78252
297.81512
297.84553
297.87371
297.89963
297.9233
297.9447
297.96384
297.98074
297.99544
298.00799
298.01843
298.02684
298.03328
298.03785
298.04062
298.04167
298.0411
298.039
298.03547
298.03063
298.02457
298.01741
298.00923
298.00017
297.99026
297.97974
297.96852
297.9574
297.94575
297.93578
297.92424
297.91769
297.90414
297.90598
297.88383
297.91266
297.86609
297.95508
297.86389
298.00982
297.13084
295.76273
296.29973
296.08557
296.26796
296.22628
296.31381
296.32654
296.38488
296.41789
296.46774
296.51003
296.55876
296.60605
296.65615
296.70665
296.75862
296.8113
296.86484
296.91894
296.97351
297.02836
297.08333
297.13829
297.19305
297.24747
297.30139
297.35463
297.40702
297.45839
297.50858
297.55743
297.60478
297.65051
297.69441
297.73639
297.7765
297.8127
297.84684
297.87893
297.90868
297.936
297.96093
297.98348
298.00366
298.02148
298.03699
298.05025
298.0613
298.07023
298.0771
298.08201
298.08505
298.0863
298.08589
298.0839
298.08041
298.07555
298.0694
298.06209
298.05371
298.04438
298.03419
298.02324
298.0116
297.99941
297.98676
297.97406
297.9613
297.94958
297.93765
297.92855
297.91636
297.91326
297.8967
297.91401
297.88098
297.95196
297.87837
298.00932
297.17258
295.82224
296.36965
296.15423
296.34087
296.30141
296.39165
296.40779
296.46876
296.5054
296.55813
296.60399
296.65577
296.70643
296.75957
296.81315
296.86796
296.92339
296.97948
297.03597
297.09272
297.14955
297.20629
297.26276
297.31879
297.3742
297.42881
297.48244
297.53491
297.58602
297.63561
297.6835
297.72956
297.77363
297.8156
297.85532
297.89266
297.92775
297.9587
297.9871
298.01328
298.0368
298.05773
298.07619
298.09219
298.10578
298.11704
298.12605
298.1329
298.13769
298.1405
298.14146
298.14067
298.13823
298.13428
298.12891
298.12221
298.11431
298.1053
298.0953
298.0844
298.07272
298.06034
298.04736
298.03386
298.01993
298.00568
297.99141
297.97731
297.96404
297.95124
297.94032
297.9284
297.922
297.90845
297.9187
297.8934
297.95101
297.89002
298.00943
297.23167
295.90605
296.4569
296.24263
296.43282
296.39686
296.48963
296.50999
296.57369
296.61448
296.6703
296.72006
296.77511
296.82933
296.88567
296.94245
297.0002
297.05845
297.11712
297.17599
297.23487
297.29359
297.35193
297.40972
297.46675
297.52282
297.57774
297.6313
297.68332
297.73359
297.78194
297.8282
297.87223
297.9139
297.95308
297.98968
298.02362
298.05481
298.08343
298.10733
298.12887
298.14783
298.16397
298.17756
298.18865
298.19731
298.20367
298.20782
298.20988
298.20998
298.20824
298.20479
298.19974
298.19323
298.18538
298.17631
298.16612
298.15491
298.1428
298.12989
298.11629
298.1021
298.08739
298.07226
298.05678
298.04103
298.02511
298.00926
297.99373
297.979
297.96511
297.95271
297.94049
297.93175
297.91975
297.92444
297.90569
297.95251
297.90138
298.01362
297.3086
296.01523
296.56295
296.35156
296.54472
296.51348
296.60866
296.63404
296.70069
296.74609
296.80528
296.85923
296.91778
296.97577
297.03547
297.09557
297.15636
297.21745
297.2787
297.33989
297.4008
297.46122
297.52093
297.57971
297.63735
297.69362
297.74831
297.8012
297.85208
297.90078
297.94709
297.99087
298.03199
298.07032
298.10579
298.13831
298.16783
298.19435
298.21785
298.2382
298.25392
298.26743
298.27806
298.28601
298.2915
298.29458
298.29541
298.29415
298.29092
298.28588
298.27916
298.27092
298.26129
298.2504
298.23839
298.22538
298.21148
298.19679
298.18141
298.16547
298.14904
298.13221
298.11509
298.09773
298.0802
298.06258
298.04495
298.0275
298.0105
297.99435
297.97927
297.96557
297.95275
297.94228
297.93108
297.9316
297.91736
297.95572
297.91213
298.01944
297.40365
296.1486
296.68812
296.4816
296.67719
296.65208
296.7497
296.78092
296.85081
296.90134
296.96425
297.02272
297.08507
297.14704
297.2103
297.27385
297.33776
297.40173
297.46551
297.52891
297.59165
297.65351
297.71423
297.77358
297.8313
297.88715
297.9409
297.99234
298.04126
298.08746
298.13078
298.17107
298.20823
298.24218
298.27285
298.30023
298.3243
298.34508
298.36265
298.37703
298.38737
298.39437
298.39869
298.40025
298.39943
298.3963
298.39105
298.38386
298.37488
298.36429
298.35225
298.33892
298.32443
298.30894
298.29257
298.27544
298.25769
298.23938
298.22064
298.20156
298.18222
298.16272
298.14312
298.12349
298.10389
298.08438
298.06503
298.04599
298.02752
298.00998
297.99367
297.9788
297.96521
297.9534
297.94245
297.93965
297.9289
297.95991
297.92344
298.02659
297.51865
296.29786
296.83381
296.63453
296.832
296.81439
296.91453
296.95237
297.02584
297.08196
297.14895
297.21224
297.27867
297.34481
297.41179
297.47886
297.54592
297.61269
297.67888
297.74426
297.80851
297.87138
297.93258
297.99185
298.04892
298.10353
298.15544
298.20443
298.25031
298.2929
298.33205
298.36766
298.39964
298.42798
298.45265
298.4737
298.49115
298.50511
298.51567
298.52295
298.52719
298.5267
298.52389
298.51842
298.51065
298.50077
298.48895
298.47542
298.46034
298.44391
298.42628
298.40764
298.38812
298.36787
298.34703
298.32571
298.30403
298.28206
298.25992
298.23768
298.21542
298.19322
298.17115
298.14926
298.12761
298.10622
298.08517
298.06458
298.04466
298.02577
298.00824
297.99227
297.97785
297.96499
297.95397
297.94854
297.94035
297.96503
297.93422
298.03395
297.65674
296.46613
297.00243
296.81255
297.01132
297.00246
297.10521
297.15033
297.22775
297.28986
297.36129
297.42967
297.50043
297.57088
297.6417
297.7123
297.78244
297.85185
297.92016
297.98712
298.05237
298.11562
298.17656
298.23489
298.29032
298.3426
298.3915
298.43679
298.47832
298.51593
298.54952
298.57904
298.60446
298.62582
298.64316
298.65659
298.66622
298.6722
298.6747
298.67393
298.6701
298.66231
298.65161
298.63853
298.62329
298.60622
298.58746
298.56727
298.54583
298.52335
298.49999
298.47592
298.45129
298.42625
298.40091
298.37538
298.34978
298.32418
298.29866
298.2733
298.24817
298.22333
298.19883
298.17473
298.15106
298.12786
298.10517
298.08308
298.06178
298.0416
298.02288
298.00587
297.99061
297.97693
297.9656
297.95809
297.95177
297.97065
297.94548
298.04029
297.81897
296.66024
297.19463
297.01655
297.21626
297.21748
297.32315
297.37628
297.45817
297.52673
297.60305
297.67681
297.75219
297.82709
297.90181
297.97587
298.04891
298.12062
298.1906
298.25852
298.32401
298.38674
298.44635
298.50256
298.55507
298.60362
298.64801
298.68806
298.72363
298.75465
298.78107
298.80291
298.82021
298.83309
298.84168
298.84616
298.84674
298.84361
298.83705
298.82732
298.81455
298.79877
298.77961
298.75839
298.73528
298.71068
298.68473
298.6577
298.62978
298.60117
298.57204
298.54255
298.51284
298.48305
298.45328
298.42363
298.3942
298.36506
298.33627
298.30789
298.27999
298.2526
298.22578
298.19956
298.17398
298.14904
298.1248
298.1013
298.07871
298.05732
298.03748
298.01949
298.0034
297.98906
297.97729
297.9682
297.96316
297.97661
297.95567
298.04751
298.00616
296.87884
297.41186
297.24812
297.44861
297.46133
297.57044
297.63233
297.71933
297.79481
297.87653
297.95594
298.03619
298.11558
298.19415
298.27143
298.34697
298.42041
298.49129
298.55925
298.62387
298.68478
298.74165
298.79416
298.84205
298.8851
298.92314
298.95606
298.9838
299.00635
299.02377
299.03616
299.04367
299.0465
299.04488
299.0391
299.02942
299.01615
298.99961
298.98011
298.95784
298.93343
298.90531
298.87561
298.84441
298.81211
298.77888
298.74498
298.71059
298.67591
298.6411
298.60631
298.57166
298.53727
298.50324
298.46964
298.43656
298.40405
298.37215
298.34092
298.3104
298.28063
298.25162
298.22342
298.19605
298.16951
298.14382
298.11903
298.09526
298.07276
298.05188
298.03297
298.0161
298.00124
297.98895
297.97872
297.97441
297.98275
297.966
298.05444
298.21942
297.12679
297.65639
297.50967
297.71093
297.73657
297.84977
297.92117
298.01401
298.09688
298.18445
298.26973
298.35495
298.43873
298.52085
298.60084
298.67815
298.75237
298.82299
298.88959
298.95175
299.0091
299.0613
299.10808
299.14921
299.18456
299.21403
299.23761
299.25534
299.26733
299.27375
299.27483
299.27082
299.26203
299.24881
299.23152
299.21053
299.18621
299.15894
299.12908
299.09688
299.06325
299.02609
298.98776
298.94843
298.90846
298.86803
298.82739
298.78671
298.74617
298.70591
298.66605
298.62671
298.58798
298.54993
298.51264
298.47615
298.4405
298.40573
298.37187
298.33895
298.30697
298.27598
298.24597
298.21696
298.18897
298.16199
298.13605
298.11124
298.08775
298.06594
298.04617
298.02859
298.01329
298.00045
297.98947
297.9854
297.98914
297.976
298.0608
298.45758
297.40601
297.93091
297.80406
298.00628
298.04632
298.16446
298.24608
298.34553
298.4362
298.52997
298.62117
298.71124
298.79898
298.88401
298.96576
299.04363
299.11714
299.18576
299.24903
299.30655
299.35796
299.403
299.44146
299.47321
299.49823
299.51654
299.52827
299.5336
299.5328
299.52616
299.51406
299.49686
299.47501
299.44894
299.41911
299.38597
299.34994
299.31146
299.2709
299.22855
299.18528
299.13937
299.0925
299.0452
298.99778
298.95043
298.90335
298.8567
298.81063
298.76526
298.72069
298.67701
298.63428
298.59256
298.55189
298.5123
298.47383
298.43647
298.40025
298.36517
298.33124
298.29847
298.26686
298.23642
298.20715
298.17904
298.15212
298.12642
298.10211
298.07949
298.05893
298.04069
298.025
298.01167
298.00027
297.99597
297.99561
297.9862
298.06619
298.71493
297.72009
298.23897
298.13501
298.33855
298.39442
298.51847
298.61102
298.71777
298.81649
298.91661
299.01345
299.10784
299.19866
299.28536
299.3673
299.44383
299.51442
299.57854
299.63575
299.68571
299.72814
299.76289
299.78988
299.80914
299.8208
299.82508
299.82227
299.81273
299.79689
299.77522
299.74821
299.71639
299.68028
299.64041
299.59731
299.55149
299.50342
299.45357
299.40229
299.34989
299.29726
299.2427
299.18764
299.13275
299.07831
299.02447
298.97141
298.91926
298.86813
298.81811
298.76928
298.7217
298.67539
298.6304
298.58675
298.54445
298.50349
298.46387
298.4256
298.38866
298.35305
298.31876
298.28578
298.25412
298.22377
298.19473
298.167
298.14059
298.11562
298.09233
298.07109
298.05226
298.03617
298.02242
298.01089
298.00605
298.00208
297.99496
298.07016
299.00693
298.0729
298.58458
298.50665
298.71218
298.78532
298.91646
299.02051
299.13511
299.24183
299.34803
299.44973
299.54728
299.63954
299.72587
299.80553
299.87789
299.94239
299.99858
300.04611
300.08476
300.11442
300.13512
300.14698
300.15026
300.14531
300.13255
300.11251
300.08573
300.05282
300.0144
299.97112
299.92358
299.87243
299.81823
299.76157
299.70297
299.64293
299.58192
299.52023
299.45821
299.39673
299.33395
299.27128
299.20939
299.14854
299.08882
299.03039
298.97332
298.91771
298.8636
298.81105
298.76007
298.71068
298.66289
298.61669
298.57208
298.52903
298.48752
298.44754
298.40905
298.37206
298.33652
298.30244
298.26979
298.23859
298.20881
298.18045
298.15352
298.12807
298.10429
298.08249
298.06312
298.04661
298.03248
298.02106
298.01548
298.0084
298.00354
298.07297
299.33458
298.46959
298.97288
298.92437
299.13277
299.22453
299.36397
299.47974
299.60233
299.71648
299.82778
299.9327
300.03127
300.12226
300.205
300.27873
300.34287
300.39697
300.44072
300.47398
300.49674
300.50916
300.51154
300.50429
300.48794
300.46311
300.43047
300.39077
300.34475
300.29319
300.23683
300.17642
300.11266
300.04621
299.97769
299.90767
299.83666
299.76516
299.69359
299.62217
299.55128
299.48177
299.41142
299.34194
299.27382
299.20732
299.14246
299.07937
299.01808
298.95865
298.90108
298.8454
298.7916
298.73966
298.68956
298.64129
298.59481
298.55008
298.50707
298.46573
298.42605
298.38797
298.35149
298.31656
298.28318
298.25134
298.22103
298.19224
298.16497
298.13924
298.11516
298.09296
298.07313
298.05612
298.04165
298.03045
298.02411
298.01465
298.01145
298.07442
299.70162
298.91669
299.41067
299.39484
299.60719
299.71851
299.86766
299.99428
300.12432
300.24437
300.35866
300.46386
300.55984
300.64533
300.71972
300.78234
300.8328
300.87089
300.89658
300.91007
300.91169
300.90198
300.88158
300.85125
300.81183
300.76424
300.70939
300.64821
300.58163
300.51054
300.43576
300.3581
300.27827
300.19694
300.1147
300.03207
299.94952
299.86749
299.78633
299.70618
299.62751
299.55104
299.47391
299.39856
299.32514
299.25386
299.18472
299.11777
299.05302
298.99048
298.93013
298.87195
298.81591
298.76198
298.71011
298.66025
298.61235
298.56637
298.52225
298.47994
298.43939
298.40056
298.36342
298.32793
298.29407
298.26183
298.23119
298.20216
298.17472
298.14889
298.1247
298.10231
298.08215
298.06462
298.04972
298.03869
298.03168
298.02076
298.01924
298.07394
300.11376
299.42136
299.90515
299.92571
300.14327
300.27394
300.43561
300.57007
300.70555
300.82827
300.94156
301.04218
301.12997
301.20377
301.26315
301.30778
301.33761
301.35287
301.35399
301.34163
301.31661
301.2799
301.23256
301.17571
301.1105
301.03809
300.95959
300.87609
300.78859
300.69802
300.60524
300.51102
300.41604
300.3209
300.22612
300.13216
300.03938
299.94816
299.85867
299.77106
299.68598
299.60354
299.52073
299.44059
299.36289
299.2878
299.21527
299.14531
299.07789
299.01298
298.95054
298.89052
298.83285
298.77748
298.72435
298.67339
298.62454
298.57773
298.53289
298.48997
298.4489
298.40964
298.37214
298.33636
298.30227
298.26985
298.2391
298.21001
298.18258
298.1568
298.13269
298.11033
298.09003
298.07204
298.05663
298.04552
298.03796
298.02652
298.02556
298.07164
300.57377
299.99569
300.46619
300.5257
300.75143
300.90087
301.06771
301.2107
301.34802
301.46807
301.57387
301.66253
301.73399
301.78753
301.82323
301.84128
301.84229
301.8271
301.79678
301.75258
301.69586
301.62804
301.55058
301.46492
301.37244
301.27444
301.17216
301.06669
300.95905
300.85013
300.7407
300.63144
300.52294
300.41569
300.31009
300.20647
300.10513
300.00632
299.91004
299.81648
299.72634
299.63882
299.55181
299.46799
299.38707
299.30915
299.23415
299.16203
299.09273
299.02619
298.96234
298.9011
298.84239
298.78614
298.73225
298.68067
298.6313
298.58407
298.5389
298.49572
298.45447
298.41509
298.37752
298.34171
298.30764
298.27527
298.2446
298.21563
298.18836
298.16278
298.1389
298.11678
298.09657
298.07831
298.06244
298.05091
298.0424
298.03088
298.03124
298.068
301.09666
300.65745
301.10956
301.21316
301.43386
301.60273
301.7762
301.92038
302.05104
302.1595
302.24751
302.31333
302.35734
302.37967
302.38119
302.36299
302.32654
302.27344
302.2055
302.12455
302.03247
301.93105
301.82203
301.70702
301.58749
301.46477
301.34003
301.2143
301.08848
300.96331
300.83944
300.71738
300.59758
300.48037
300.36603
300.25475
300.14674
300.04208
299.94064
299.84273
299.74897
299.65749
299.56756
299.48116
299.39807
299.31827
299.24169
299.16823
299.09781
299.03035
298.96573
298.90388
298.84469
298.78806
298.73391
298.68214
298.63267
298.58541
298.54027
298.49717
298.45605
298.41684
298.37947
298.34389
298.31007
298.27797
298.24758
298.2189
298.19193
298.16668
298.14314
298.12139
298.10147
298.08324
298.06722
298.05509
298.04493
298.03319
298.03669
298.06314
301.70263
301.41369
301.84009
301.97534
302.20601
302.39353
302.55968
302.69427
302.80543
302.88815
302.94409
302.97288
302.97596
302.95468
302.91107
302.84731
302.76581
302.66899
302.55928
302.43899
302.31029
302.17518
302.03545
301.89267
301.74823
301.60331
301.45889
301.31582
301.17476
301.03628
300.90081
300.76869
300.64017
300.51545
300.39462
300.27781
300.1651
300.05634
299.9514
299.85081
299.75484
299.66042
299.56874
299.48081
299.39653
299.31577
299.23843
299.16441
299.09358
299.02583
298.96106
298.89915
298.83999
298.78347
298.72949
298.67795
298.62876
298.58182
298.53704
298.49433
298.45363
298.41486
298.37795
298.34285
298.3095
298.27788
298.24795
298.21973
298.1932
298.16838
298.14528
298.12397
298.10445
298.08653
298.07075
298.05816
298.04621
298.03435
298.04008
298.05695
302.40034
302.25996
302.65927
302.85943
303.09818
303.2618
303.40703
303.51327
303.58712
303.62579
303.63234
303.60815
303.55631
303.47971
303.38168
303.26547
303.13432
302.99123
302.83896
302.68
302.51652
302.35041
302.18326
302.01641
301.85095
301.68778
301.5276
301.37097
301.21831
301.06993
300.92605
300.78682
300.65232
300.52258
300.39758
300.27734
300.16179
300.05062
299.94385
299.8422
299.74512
299.64861
299.55631
299.46787
299.3833
299.30241
299.22509
299.15119
299.08059
299.01315
298.94876
298.88729
298.82862
298.77264
298.71923
298.66829
298.61972
298.57342
298.5293
298.48727
298.44725
298.40917
298.37295
298.33854
298.30588
298.27493
298.24566
298.21805
298.19211
298.16784
298.14526
298.12446
298.10536
298.08787
298.07261
298.06001
298.04729
298.03563
298.03991
298.04929
303.2049
303.24039
303.64976
303.83771
304.04583
304.18469
304.28872
304.34268
304.35669
304.33023
304.26905
304.17677
304.05837
303.91824
303.76077
303.58992
303.40925
303.22187
303.03042
302.83714
302.64384
302.45202
302.26285
302.07725
301.89592
301.71938
301.54801
301.38205
301.22167
301.06693
300.91788
300.77446
300.63661
300.50422
300.37721
300.25548
300.13877
300.02675
299.91982
299.81831
299.71998
299.62353
299.53145
299.44343
299.35936
299.27907
299.20242
299.12926
299.05945
298.99284
298.92931
298.86872
298.81095
298.75587
298.70339
298.65337
298.60573
298.56036
298.51716
298.47605
298.43696
298.39979
298.36448
298.33096
298.29918
298.26908
298.24064
298.21382
298.18861
298.16502
298.14307
298.12282
298.1042
298.08719
298.07242
298.05986
298.04691
298.03598
298.03879
298.04157
304.15159
304.37715
304.72037
304.89546
305.05334
305.12824
305.15666
305.12863
305.05696
304.94513
304.80125
304.63112
304.44101
304.2361
304.02106
303.79974
303.57536
303.35052
303.12726
302.90717
302.69148
302.48107
302.27657
302.07842
301.88691
301.70218
301.52428
301.3532
301.18886
301.03115
300.87991
300.73499
300.59617
300.46329
300.33617
300.21463
300.09822
299.98684
299.88114
299.78067
299.6818
299.58641
299.49537
299.4085
299.32563
299.24657
299.17118
299.09929
299.03075
298.96541
298.90315
298.84382
298.7873
298.73347
298.68221
298.6334
298.58695
298.54276
298.50073
298.46077
298.4228
298.38674
298.35253
298.32009
298.28936
298.26029
298.23285
298.20698
298.18267
298.15991
298.13872
298.11913
298.10105
298.08459
298.07029
298.05782
298.045
298.03462
298.03633
298.03385
305.23171
305.59927
305.86246
305.97221
306.03347
306.00748
305.9267
305.79104
305.61554
305.40757
305.17665
304.92962
304.67274
304.41081
304.14771
303.88637
303.629
303.37723
303.1322
302.89467
302.66515
302.4439
302.23105
302.02657
301.83038
301.64232
301.46221
301.28979
301.12484
300.96709
300.81628
300.67215
300.5344
300.40283
300.27723
300.15721
300.04237
299.93302
299.82959
299.73022
299.63193
299.53841
299.44915
299.36409
299.283
299.20571
299.13205
299.06187
298.99502
298.93133
298.87069
298.81295
298.75798
298.70567
298.65589
298.60855
298.56353
298.52073
298.48007
298.44145
298.4048
298.37003
298.33708
298.30588
298.27637
298.24848
298.22219
298.19744
298.17419
298.15243
298.13217
298.11339
298.09601
298.08017
298.06631
298.05389
298.04141
298.03188
298.03219
298.0278
306.44412
306.83025
306.96334
306.95672
306.8762
306.71328
306.49917
306.24326
305.9612
305.6621
305.35461
305.04456
304.73657
304.43377
304.13841
303.85197
303.57534
303.30905
303.05328
302.80806
302.57325
302.34863
302.1339
301.92873
301.73277
301.54566
301.36702
301.19651
301.03377
300.87845
300.73024
300.58878
300.4538
300.32505
300.20223
300.08484
299.97275
299.86663
299.76589
299.66701
299.57136
299.48022
299.39338
299.31065
299.23183
299.15675
299.08525
299.01717
298.95235
298.89065
298.83193
298.77606
298.72292
298.67238
298.62434
298.57868
298.5353
298.49412
298.45502
298.41794
298.38278
298.34948
298.31795
298.28815
298.26
298.23346
298.20847
298.18498
298.16296
298.14239
298.12324
298.10549
298.08906
298.0741
298.06085
298.04872
298.03682
298.02801
298.02657
298.02084
307.91776
307.93748
307.8762
307.69119
307.43118
307.11686
306.77193
306.4102
306.04327
305.67822
305.32021
304.97234
304.63656
304.3139
304.00482
303.70939
303.42739
303.15845
302.90214
302.65793
302.42528
302.20365
301.99251
301.79134
301.59966
301.41699
301.24288
301.07691
300.91867
300.7678
300.62393
300.4867
300.35586
300.23115
300.11208
299.99827
299.89015
299.788
299.68973
299.59255
299.50011
299.41199
299.32809
299.24817
299.17208
299.09963
299.03067
298.96504
298.90259
298.84318
298.78668
298.73296
298.68191
298.6334
298.58732
298.54358
298.50207
298.4627
298.42538
298.39002
298.35655
298.3249
298.29498
298.26675
298.24013
298.21508
298.19155
298.16948
298.14885
298.12962
298.11177
298.09525
298.08002
298.06619
298.05387
298.04252
298.03173
298.02372
298.02039
298.01224
308.71508
308.56707
308.27695
307.91204
307.50686
307.08526
306.66246
306.24687
305.84403
305.45652
305.08579
304.73217
304.39555
304.07542
303.77116
303.48203
303.20729
302.94617
302.6979
302.46181
302.23723
302.02352
301.8201
301.6264
301.44193
301.26618
301.09871
300.93909
300.78694
300.64186
300.50351
300.37157
300.24581
300.12587
300.01122
299.90189
299.79862
299.70042
299.60333
299.50998
299.42105
299.33636
299.2557
299.17891
299.1058
299.03623
298.97003
298.90705
298.84717
298.79024
298.73614
298.68474
298.63593
298.58961
298.54566
298.50398
298.46448
298.42707
298.39165
298.35816
298.32651
298.29664
298.26846
298.24193
298.21697
298.19355
298.1716
298.15109
298.13196
298.1142
298.09777
298.08263
298.06875
298.0562
298.045
298.03478
298.02542
298.0184
298.01445
298.00762
308.26425
308.24469
307.89357
307.5012
307.07863
306.65341
306.23561
305.83107
305.44274
305.07162
304.71803
304.3816
304.06179
303.75786
303.46904
303.19454
302.93356
302.68544
302.44948
302.22503
302.01144
301.80813
301.61455
301.43016
301.2545
301.0871
300.92755
300.77545
300.63045
300.49219
300.36034
300.23464
300.1148
300.00036
299.89106
299.78734
299.68911
299.59371
299.5003
299.41136
299.32661
299.24592
299.1691
299.09597
299.02639
298.9602
298.89725
298.83742
298.78056
298.72656
298.67528
298.62663
298.58048
298.53674
298.4953
298.45606
298.41895
298.38386
298.35072
298.31944
298.28996
298.26221
298.23611
298.21161
298.18865
298.16718
298.14714
298.12849
298.1112
298.09522
298.08053
298.06709
298.05487
298.04391
298.03418
298.02552
298.01791
298.01201
298.00802
298.00355
306.41833
306.56995
306.48913
306.30128
306.03153
305.72971
305.41111
305.08853
304.76886
304.4561
304.15279
303.86019
303.57901
303.30943
303.05143
302.80478
302.56913
302.34408
302.12923
301.9241
301.72827
301.54132
301.36281
301.19236
301.02959
300.87416
300.72571
300.58396
300.44855
300.31925
300.19576
300.07791
299.96528
299.85755
299.75493
299.65796
299.56509
299.47289
299.38502
299.3012
299.22134
299.14527
299.07284
299.0039
298.93833
298.87597
298.8167
298.7604
298.70694
298.65622
298.60811
298.56252
298.51933
298.47846
298.43981
298.40329
298.36881
298.3363
298.30567
298.27685
298.24977
298.22436
298.20057
298.17832
298.15757
298.13827
298.12037
298.10382
298.08858
298.07462
298.06191
298.05042
298.04013
298.03103
298.0231
298.01628
298.0106
298.0062
298.00308
298.00089
308.63755
308.70002
308.04899
307.15787
306.11358
305.15641
304.33771
303.65075
303.07839
302.58257
302.11982
301.72218
301.36048
301.0332
300.7251
300.44653
300.1862
299.95401
299.73895
299.54974
299.37732
299.22132
299.08386
298.96039
298.84665
298.75126
298.6684
298.59173
298.52667
298.46767
298.41551
298.36892
298.32643
298.28687
298.24981
298.2147
298.18134
298.14942
298.11872
298.08937
298.06154
298.03493
298.00979
297.98654
297.96455
297.94408
297.92515
297.90777
297.8919
297.87745
297.86434
297.85249
297.84179
297.83216
297.82349
297.81571
297.80869
297.80241
297.79668
297.79167
297.78689
297.78304
297.7788
297.77625
297.77191
297.77122
297.76559
297.76783
297.75944
297.76857
297.75431
297.77585
297.75151
297.79195
297.75171
297.81705
297.76865
297.85353
297.81987
297.89849
305.87619
305.34844
304.62919
303.69394
302.73999
301.93491
301.32477
300.89502
300.58744
300.35141
300.16381
300.00342
299.86017
299.7281
299.59861
299.48187
299.36321
299.25746
299.1505
299.05887
298.9644
298.88549
298.80257
298.73537
298.66773
298.60855
298.55539
298.50025
298.45535
298.41221
298.37104
298.33259
298.29598
298.26069
298.22662
298.19375
298.16195
298.13124
298.10153
298.07327
298.04647
298.02103
297.9969
297.97481
297.9541
297.93489
297.91722
297.90108
297.8864
297.87309
297.86105
297.85019
297.8404
297.8316
297.82371
297.81663
297.81025
297.80455
297.79932
297.79477
297.79036
297.78685
297.78283
297.78051
297.77627
297.77569
297.76999
297.77269
297.76386
297.77302
297.75842
297.78002
297.7552
297.79594
297.75505
297.82078
297.77051
297.85831
297.81986
297.90416
299.78454
299.68072
299.02119
298.14443
297.74683
297.71533
297.78199
297.88208
297.99209
298.10081
298.2009
298.28794
298.36198
298.42238
298.46751
298.51057
298.53233
298.55692
298.56262
298.56657
298.54815
298.53541
298.51374
298.49282
298.46814
298.44461
298.40699
298.37917
298.35856
298.32796
298.29912
298.27023
298.24001
298.21007
298.18024
298.15082
298.12215
298.09443
298.06753
298.04256
298.01867
297.9961
297.97518
297.95579
297.93782
297.92129
297.90614
297.89228
297.87964
297.86812
297.85763
297.84812
297.83949
297.8317
297.82465
297.81834
297.81256
297.80746
297.80263
297.79857
297.79436
297.79128
297.78723
297.78538
297.78077
297.7808
297.77435
297.77785
297.76784
297.77847
297.76192
297.78572
297.75784
297.80167
297.75605
297.82688
297.77105
297.86372
297.81993
297.9091
302.54633
302.5305
301.7073
300.25567
299.44276
299.27695
299.20483
299.15817
299.1186
299.07347
299.01274
298.94925
298.89258
298.83593
298.84221
298.7485
298.75759
298.66045
298.68058
298.58297
298.60788
298.52033
298.54363
298.46084
298.45824
298.41829
298.37687
298.38105
298.3233
298.28948
298.2598
298.2301
298.20097
298.17251
298.14483
298.11791
298.09187
298.0668
298.04272
298.02016
297.99866
297.97835
297.95949
297.9419
297.92571
297.9108
297.89718
297.88473
297.87338
297.86307
297.85371
297.84525
297.8376
297.83074
297.82454
297.81901
297.81394
297.80949
297.80522
297.80167
297.79785
297.79516
297.79134
297.78974
297.78522
297.78539
297.77892
297.78253
297.77201
297.78285
297.76592
297.7897
297.76138
297.80513
297.75949
297.8298
297.77329
297.86719
297.82122
297.91254
301.62083
301.11691
299.89862
298.63949
298.23611
298.15409
298.21151
298.22118
298.22904
298.23084
298.23925
298.24597
298.256
298.26305
298.27037
298.27598
298.28055
298.28292
298.28376
298.28707
298.27891
298.28729
298.27245
298.2761
298.26126
298.24948
298.23829
298.21509
298.20288
298.18628
298.16712
298.14708
298.12636
298.10526
298.084
298.06278
298.04193
298.02162
298.00209
297.98374
297.96611
297.94945
297.93391
297.91954
297.9063
297.89412
297.88301
297.87285
297.86357
297.85514
297.84748
297.84056
297.8343
297.82868
297.82359
297.81908
297.81488
297.81122
297.80761
297.80467
297.80129
297.79907
297.79547
297.79424
297.78971
297.79021
297.78355
297.7874
297.77632
297.78777
297.76978
297.79465
297.7645
297.80983
297.76137
297.83466
297.77468
297.87145
297.82194
297.91613
301.74049
301.25184
300.00099
298.69763
298.15188
298.09261
298.21258
298.15806
298.15613
298.1522
298.1505
298.15707
298.16384
298.16936
298.17436
298.17761
298.1807
298.18176
298.18293
298.18069
298.18052
298.17393
298.17135
298.16215
298.15538
298.14667
298.13577
298.12599
298.11262
298.09862
298.08424
298.06904
298.05325
298.03715
298.02091
298.0047
297.98876
297.97324
297.95834
297.94436
297.93088
297.91818
297.9063
297.89531
297.88517
297.87588
297.86732
297.85951
297.85238
297.84591
297.84005
297.83476
297.82999
297.82573
297.82187
297.81845
297.81523
297.81244
297.80958
297.8073
297.80445
297.8027
297.79942
297.79851
297.79409
297.7948
297.78788
297.79204
297.78073
297.79239
297.77386
297.79907
297.76802
297.81389
297.76425
297.83845
297.77644
297.87539
297.82285
297.91959
301.37297
300.77664
299.39725
298.20043
297.8368
297.78498
297.8104
297.82549
297.85107
297.86133
297.88105
297.89194
297.907
297.91868
297.93169
297.94354
297.95534
297.96604
297.97574
297.9849
297.99209
297.99931
298.0038
298.00798
298.00966
298.00972
298.00835
298.00486
298.00026
297.99433
297.9871
297.97875
297.96955
297.95978
297.94962
297.93924
297.92891
297.91876
297.90901
297.89987
297.89097
297.88255
297.8747
297.86744
297.86076
297.85462
297.849
297.84386
297.83919
297.83496
297.83114
297.82771
297.82464
297.82191
297.81944
297.81726
297.81513
297.81331
297.81127
297.80971
297.80745
297.80621
297.8033
297.80273
297.79844
297.79939
297.79229
297.79676
297.78529
297.79704
297.77792
297.80356
297.77132
297.81813
297.7667
297.84256
297.77813
297.87933
297.8237
297.92304
301.22418
300.54319
299.07451
297.96426