/*--------------------------------*- C++ -*----------------------------------*\
  =========                 |
  \\      /  F ield         | OpenFOAM: The Open Source CFD Toolbox
   \\    /   O peration     | Website:  https://openfoam.org
    \\  /    A nd           | Version:  6
     \\/     M anipulation  |
\*---------------------------------------------------------------------------*/
FoamFile
{
    version     2.0;
    format      ascii;
    class       volVectorField;
    location    "250";
    object      U;
}
// * * * * * * * * * * * * * * * * * * * * * * * * * * * * * * * * * * * * * //

dimensions      [0 1 -1 0 0 0 0];

internalField   nonuniform List<vector> 
16000
(
(154.62681 1.2486465e-15 -17.923511)
(164.00861 -1.1065886e-15 -11.608703)
(160.4265 4.2907003e-18 -16.987078)
(162.12522 3.8756887e-18 -12.611024)
(160.72893 0 -15.865462)
(161.20185 -8.8650905e-16 -13.325504)
(160.5059 8.3975926e-16 -15.05826)
(160.54395 0 -13.70458)
(160.10509 -1.8332643e-19 -14.520521)
(159.96301 1.7345657e-19 -13.830228)
(159.62299 3.2876379e-19 -14.152813)
(159.39776 -6.3792969e-16 -13.79304)
(159.09134 6.0505196e-16 -13.870237)
(158.82483 4.7668011e-18 -13.657198)
(158.52431 5.4475187e-16 -13.617476)
(158.23459 -5.1721499e-16 -13.459588)
(157.92951 -9.8329847e-16 -13.363107)
(157.62507 9.3339357e-16 -13.218465)
(157.31285 0 -13.090902)
(156.99857 8.4384297e-16 -12.941656)
(156.68006 -8.025959e-16 -12.792995)
(156.35959 -7.6439771e-16 -12.63196)
(156.03705 -7.4477384e-19 -12.465705)
(155.71365 -3.7330267e-19 -12.290124)
(155.3899 6.4849508e-16 -12.107404)
(155.06673 0 -11.916347)
(154.74487 5.9871569e-16 -11.717655)
(154.4252 -5.6076027e-16 -11.511093)
(154.10855 -5.3020386e-19 -11.297004)
(153.7958 -5.0546536e-19 -11.075533)
(153.48785 -4.9385609e-16 -10.847012)
(153.18569 4.703057e-16 -10.611721)
(152.89021 -1.4044664e-17 -10.370371)
(152.60239 -1.2563349e-17 -10.123533)
(152.3232 8.1816444e-16 -9.8717223)
(152.05333 -1.5622063e-15 -9.6156283)
(151.79364 7.4513584e-16 -9.3557406)
(151.54481 1.1124466e-17 -9.0926948)
(151.30761 1.0623204e-17 -8.8273677)
(151.08272 0 -8.5607084)
(150.87066 -1.2105446e-18 -8.2935686)
(150.67194 1.1565901e-18 -8.02683)
(150.48696 -5.6503817e-16 -7.7614021)
(150.3161 5.4197248e-16 -7.4981969)
(150.15961 5.1618976e-16 -7.2380845)
(150.01768 -4.9433703e-16 -6.9819101)
(149.8904 -9.230688e-19 -6.7304803)
(149.7778 0 -6.4845394)
(149.67982 4.3248381e-16 -6.2447721)
(149.59631 -4.1367968e-16 -6.011791)
(149.52708 0 -5.7861285)
(149.47183 0 -5.568233)
(149.43023 2.2668966e-17 -5.3584637)
(149.40183 -1.3558432e-18 -5.1571022)
(149.38618 2.078411e-17 -4.9643399)
(149.38282 0 -4.7802722)
(149.39122 0 -4.6049228)
(149.41075 0 -4.4382398)
(149.44073 0 -4.2800878)
(149.48041 -3.569969e-17 -4.1302861)
(149.52909 -3.2224863e-17 -3.9885631)
(149.58582 0 -3.8546816)
(149.65007 2.9666992e-17 -3.728195)
(149.72036 0 -3.6089869)
(149.79706 -3.0765908e-17 -3.4961969)
(149.87664 -4.2356309e-16 -3.3903672)
(149.96238 4.0396848e-16 -3.2892534)
(150.04349 -3.0340042e-18 -3.195873)
(150.13381 3.7354641e-16 -3.1033282)
(150.20112 -3.7927538e-16 -3.0232532)
(150.29699 0 -2.9332432)
(150.32624 -3.3362954e-16 -2.8739252)
(150.45325 6.4323699e-16 -2.766806)
(150.38604 -3.1054967e-16 -2.7619384)
(150.61669 4.6794115e-18 -2.5677194)
(150.29177 0 -2.7565694)
(150.78385 -1.3995315e-16 -2.2204939)
(149.92496 1.7130267e-17 -3.0570401)
(150.87302 1.3133829e-16 -1.4235215)
(149.45084 -3.20292e-17 -4.0507741)
(154.31569 -1.2580848e-15 -19.665116)
(163.74491 1.1168755e-15 -13.064402)
(159.94771 -4.2347271e-18 -18.710016)
(161.75506 1.0147844e-15 -14.07271)
(160.26616 -9.6832361e-16 -17.515066)
(160.7885 7.0659287e-18 -14.804351)
(160.04343 0 -16.636584)
(160.09551 0 -15.186077)
(159.62916 7.5510408e-16 -16.03899)
(159.48412 -7.370719e-16 -15.295685)
(159.126 6.7754416e-16 -15.620291)
(158.89044 -6.5208846e-16 -15.227803)
(158.5691 0 -15.290288)
(158.28962 5.8263879e-16 -15.051314)
(157.97529 -5.5719206e-16 -14.989382)
(157.67223 0 -14.806197)
(157.35416 0 -14.683801)
(157.03711 0 -14.512258)
(156.71298 -8.9447795e-16 -14.356313)
(156.38738 8.6361025e-16 -14.177936)
(156.05838 0 -13.998711)
(155.72821 7.8203211e-16 -13.806236)
(155.39691 -7.3223115e-16 -13.607277)
(155.0657 -7.0852872e-16 -13.398027)
(154.73522 3.1246503e-17 -13.18053)
(154.40647 6.2211277e-16 -12.953748)
(154.08027 6.312554e-16 -12.718374)
(153.75757 -1.1752791e-15 -12.474288)
(153.43933 1.1113943e-15 -12.221904)
(153.12649 -5.1299339e-16 -11.961477)
(152.82002 5.0514347e-16 -11.693466)
(152.52088 -9.631228e-16 -11.418354)
(152.23001 9.329087e-16 -11.136715)
(151.94841 -8.6252864e-16 -10.849135)
(151.67695 4.178809e-16 -10.556569)
(151.41655 0 -10.259922)
(151.16798 2.3804275e-17 -9.9600668)
(150.93196 -1.1348675e-17 -9.6577634)
(150.70903 -7.0467097e-16 -9.3536596)
(150.49977 7.0364646e-16 -9.0488448)
(150.30464 0 -8.744437)
(150.12399 -6.0417625e-16 -8.4414339)
(149.95808 3.5917175e-17 -8.1408101)
(149.80712 1.1025244e-15 -7.8435916)
(149.67122 -5.2666184e-16 -7.5507473)
(149.5504 -5.0340276e-16 -7.2631818)
(149.44457 5.1111825e-16 -6.9817663)
(149.35361 -4.0239761e-16 -6.7072938)
(149.27729 8.2432532e-16 -6.4404785)
(149.21532 -4.2036231e-16 -6.1819552)
(149.16734 0 -5.9322644)
(149.13297 0 -5.6918526)
(149.11172 -2.2984337e-17 -5.4610689)
(149.10309 -7.0389264e-16 -5.2401679)
(149.10649 6.5257829e-16 -5.0293187)
(149.12141 6.0450291e-16 -4.8285798)
(149.14728 -2.1999695e-20 -4.637926)
(149.18344 -6.6512456e-16 -4.457262)
(149.22919 0 -4.2864045)
(149.28381 3.3899406e-17 -4.1251055)
(149.34654 -3.2502973e-17 -3.9730517)
(149.41657 -6.2285958e-17 -3.8299026)
(149.49317 -4.4774259e-16 -3.6952217)
(149.57533 6.5376634e-20 -3.5686612)
(149.66264 4.1192128e-16 -3.449589)
(149.75325 0 -3.3378839)
(149.8476 -4.0459817e-16 -3.2323129)
(149.94044 3.885583e-16 -3.1338245)
(150.03603 -4.6651958e-17 -3.0390499)
(150.1191 3.8099863e-16 -2.9531392)
(150.21157 -6.8952814e-16 -2.864728)
(150.26748 3.7315141e-16 -2.7950992)
(150.36973 3.1908615e-16 -2.698849)
(150.35976 -1.0055041e-19 -2.6698913)
(150.52207 -3.1916001e-16 -2.5080825)
(150.3136 2.6777944e-16 -2.6365664)
(150.67138 -2.7099952e-16 -2.1827544)
(149.99799 -1.6684593e-17 -2.8931645)
(150.74362 1.6033139e-17 -1.4216132)
(149.55421 3.1165882e-17 -3.8199298)
(153.8555 1.2718607e-15 -21.441822)
(163.31783 -6.1734474e-21 -14.588152)
(159.34589 -1.1037507e-15 -20.439186)
(161.23944 1.0210013e-15 -15.611631)
(159.67086 7.6454676e-18 -19.169465)
(160.22498 9.1463149e-16 -16.352518)
(159.4389 -1.7477752e-15 -18.226014)
(159.49461 1.251606e-17 -16.723013)
(159.00436 7.8248265e-16 -17.574724)
(158.8503 1.1575241e-17 -16.803577)
(158.47475 -7.1386007e-16 -17.107958)
(158.2252 6.6605113e-16 -16.694392)
(157.88845 0 -16.729784)
(157.59384 0 -16.468602)
(157.26492 -5.6973744e-16 -16.377244)
(156.94728 5.4081445e-16 -16.168392)
(156.61558 0 -16.015158)
(156.28526 1.5275059e-17 -15.814369)
(155.9489 -1.4504602e-17 -15.625927)
(155.6118 8.5584802e-16 -15.415139)
(155.27239 4.8406364e-19 -15.201396)
(154.93283 -7.741187e-16 -14.973732)
(154.59334 7.490756e-16 -14.738067)
(154.2552 -7.2394805e-16 -14.491175)
(153.91918 -7.1122303e-16 -14.234846)
(153.58635 6.7694126e-16 -13.968305)
(153.25767 1.9586563e-17 -13.692235)
(152.93418 3.7270259e-17 -13.406689)
(152.6169 3.55141e-17 -13.112171)
(152.30689 -5.5817556e-16 -12.809091)
(152.00516 4.8341386e-16 -12.498049)
(151.71273 5.2263873e-16 -12.179683)
(151.43058 -4.6878287e-16 -11.854755)
(151.15961 -4.4727334e-16 -11.524102)
(150.90068 8.5301916e-16 -11.188586)
(150.65465 -8.1372705e-16 -10.849245)
(150.42224 -3.6410442e-16 -10.507256)
(150.20419 7.4066872e-16 -10.163854)
(150.00095 0 -9.8200019)
(149.81287 -6.74856e-16 -9.4764812)
(149.64024 6.0376965e-16 -9.1345162)
(149.4833 0 -8.7953728)
(149.34209 -3.6683199e-17 -8.4600869)
(149.21664 0 -8.1297233)
(149.10687 6.6980132e-17 -7.8053532)
(149.01258 0 -7.4879179)
(148.93351 -3.0532747e-17 -7.1783082)
(148.86934 4.7082073e-20 -6.8773385)
(148.81965 1.1155064e-16 -6.5857133)
(148.78399 0 -6.3040506)
(148.76186 0 -6.0328619)
(148.7527 0 -5.7725515)
(148.75593 0 -5.5234226)
(148.77093 0 -5.2856684)
(148.79705 8.5178289e-17 -5.0593993)
(148.83364 4.0719642e-17 -4.8446167)
(148.88013 6.2345037e-16 -4.6412227)
(148.93583 -5.9665456e-16 -4.4490507)
(149.00001 -7.1386598e-17 -4.2678524)
(149.07194 0 -4.0973042)
(149.1509 6.539925e-17 -3.9370269)
(149.23611 5.636681e-16 -3.7865956)
(149.32681 -5.3993676e-16 -3.6455298)
(149.42217 0 -3.5133491)
(149.52153 -5.5085474e-17 -3.3894724)
(149.62372 -1.0556525e-16 -3.2734558)
(149.72812 4.0472449e-16 -3.1644799)
(149.83186 -3.8818235e-16 -3.0624694)
(149.93508 4.6535368e-17 -2.9657731)
(150.03025 -3.572204e-16 -2.8760467)
(150.12527 7.7755627e-20 -2.7881626)
(150.19893 2.8820089e-16 -2.7114796)
(150.29087 0 -2.623054)
(150.31661 0 -2.5745947)
(150.43826 1.826603e-17 -2.4424948)
(150.31167 1.7595925e-17 -2.5137822)
(150.56881 2.9594753e-17 -2.1396496)
(150.03288 -1.142673e-16 -2.7205932)
(150.65137 1.139136e-16 -1.4104597)
(149.57335 -6.025734e-17 -3.6319242)
(153.25328 3.0736193e-17 -23.26514)
(162.72714 9.0927468e-18 -16.145262)
(158.59738 1.1399928e-15 -22.206669)
(160.57818 4.8801829e-19 -17.184387)
(158.92699 -9.9645216e-16 -20.855204)
(159.51215 -9.3907999e-16 -17.932585)
(158.68333 8.9019417e-16 -19.841356)
(158.74069 -1.3147548e-17 -18.28804)
(158.22537 8.1067999e-16 -19.132006)
(158.06039 -7.3204868e-16 -18.334246)
(157.66653 -7.1708907e-16 -18.612973)
(157.40166 1.3384205e-15 -18.177846)
(157.04884 -6.4497862e-16 -18.181957)
(156.73836 1.9150832e-17 -17.896689)
(156.3945 0 -17.772423)
(156.06204 0 -17.535181)
(155.71674 -5.2497331e-16 -17.347824)
(155.37339 4.8308649e-16 -17.114607)
(155.02524 0 -16.890309)
(154.67733 9.3038687e-16 -16.643661)
(154.32844 -8.8451129e-16 -16.391893)
(153.98069 3.9454843e-20 -16.125442)
(153.63452 0 -15.849455)
(153.29126 -4.6251968e-17 -15.561273)
(152.95185 -7.0411525e-16 -15.262492)
(152.61744 6.2814513e-16 -14.952612)
(152.28914 -6.7840499e-16 -14.632356)
(151.96806 5.6991641e-16 -14.30197)
(151.65534 -3.6180685e-17 -13.962096)
(151.35207 -3.4530289e-17 -13.613334)
(151.05932 -4.9332861e-16 -13.256459)
(150.77814 4.6995815e-16 -12.89231)
(150.50947 0 -12.521837)
(150.25421 0 -12.146062)
(150.01318 0 -11.766107)
(149.78705 -5.1838175e-17 -11.383149)
(149.57647 -4.9369487e-17 -10.998335)
(149.38193 8.012601e-16 -10.613075)
(149.2039 -8.9751422e-17 -10.228955)
(149.04261 -6.4321351e-16 -9.8469842)
(148.89803 4.0906301e-17 -9.4680531)
(148.77021 6.2504436e-16 -9.0935672)
(148.65903 -5.2183329e-16 -8.7247898)
(148.56422 -5.6944192e-16 -8.3627443)
(148.4855 -6.7993012e-17 -8.0085435)
(148.42246 9.7306872e-16 -7.6631694)
(148.37464 -3.7159061e-16 -7.3274795)
(148.34149 -5.9132617e-17 -7.0022742)
(148.32242 3.9553147e-16 -6.6882176)
(148.3168 -5.3972038e-16 -6.385871)
(148.32398 -4.1244238e-16 -6.0956863)
(148.34326 3.9404973e-16 -5.8179937)
(148.37395 0 -5.5530206)
(148.41534 7.1957046e-16 -5.3008791)
(148.46669 -7.7369812e-16 -5.0615873)
(148.52728 0 -4.8350713)
(148.5965 6.2849227e-16 -4.6211522)
(148.67365 -9.7660378e-16 -4.4195712)
(148.75801 5.0290269e-16 -4.2300056)
(148.84886 5.4968902e-16 -4.052052)
(148.94547 -1.3156965e-16 -3.8852552)
(149.04712 -5.0315756e-16 -3.7291145)
(149.15308 -4.8138256e-16 -3.5830838)
(149.2626 5.7598475e-16 -3.4465949)
(149.37498 -4.4100762e-16 -3.3190323)
(149.48934 1.0562916e-16 -3.1998044)
(149.6048 4.0434809e-16 -3.0881858)
(149.7194 -3.8718714e-16 -2.9836969)
(149.83185 5.564949e-16 -2.885296)
(149.93768 0 -2.7931941)
(150.03872 0 -2.704944)
(150.12499 0 -2.6241251)
(150.21478 0 -2.5395818)
(150.26401 1.5032558e-16 -2.4781274)
(150.3626 -2.8845646e-16 -2.3666052)
(150.29014 3.4649566e-16 -2.3933622)
(150.48301 -3.6580424e-16 -2.0882019)
(150.05094 4.9630792e-16 -2.5521172)
(150.56239 -3.727385e-16 -1.3881252)
(149.58156 -1.1717916e-19 -3.4141179)
(152.50378 1.3304578e-15 -25.127973)
(161.95723 5.4255589e-19 -17.736405)
(157.69961 -1.1759617e-15 -24.000313)
(159.76223 0 -18.796755)
(158.02998 -1.5851635e-17 -22.560905)
(158.63978 -2.9894366e-17 -19.548806)
(157.76965 0 -21.473405)
(157.82331 -8.3091447e-16 -19.882256)
(157.28334 8.1282331e-16 -20.70362)
(157.10364 -7.9463877e-16 -19.885831)
(156.6911 7.3047411e-16 -20.129062)
(156.40849 -3.2907104e-20 -19.673981)
(156.0389 0 -19.640341)
(155.71115 6.0515587e-16 -19.3295)
(155.35177 -5.9286176e-16 -19.16748)
(155.00384 0 -18.898742)
(154.6447 5.3546064e-16 -18.672931)
(154.28827 -5.4044874e-16 -18.403383)
(153.9286 4.8384827e-16 -18.138909)
(153.57045 4.3161799e-16 -17.852105)
(153.21299 -8.4739282e-16 -17.557876)
(152.85834 -2.5991953e-17 -17.248164)
(152.50715 4.9555726e-17 -16.92736)
(152.16087 -8.7589754e-20 -16.593409)
(151.82058 0 -16.247762)
(151.48757 -7.9931599e-20 -15.890229)
(151.16303 0 -15.521624)
(150.84821 3.8759949e-17 -15.142431)
(150.5443 0 -14.753473)
(150.25243 3.5104193e-17 -14.35558)
(149.9737 0 -13.949747)
(149.70913 0 -13.537046)
(149.45963 6.0851751e-17 -13.118657)
(149.22601 0 -12.695835)
(149.00896 -4.4193774e-16 -12.269903)
(148.80906 4.737679e-16 -11.842238)
(148.62672 0 -11.414268)
(148.46222 -4.7835091e-17 -10.987361)
(148.31577 -6.3925916e-16 -10.563048)
(148.18749 6.0951822e-16 -10.143055)
(148.07719 -6.6453858e-16 -9.728401)
(147.9845 7.1310493e-16 -9.3200982)
(147.90912 -7.5597517e-16 -8.9196479)
(147.85052 5.7697429e-16 -8.5281233)
(147.80816 -1.3773313e-16 -8.1465363)
(147.78141 6.5648773e-17 -7.7758961)
(147.76955 -1.2531679e-16 -7.4169921)
(147.77186 1.1973342e-16 -7.0705535)
(147.78755 -4.5696181e-16 -6.7371729)
(147.81581 9.8154499e-16 -6.4173113)
(147.85584 -2.1634432e-20 -6.1113248)
(147.90683 -4.972216e-16 -5.8194357)
(147.96796 1.8997586e-16 -5.5417633)
(148.03845 0 -5.2783118)
(148.1175 0 -5.0289867)
(148.20437 0 -4.7936123)
(148.29834 -6.3235819e-16 -4.5719128)
(148.39878 4.5328898e-16 -4.3635305)
(148.50496 1.4433701e-16 -4.1680509)
(148.61618 -1.380001e-16 -3.9849887)
(148.73174 1.3185568e-16 -3.8138059)
(148.85098 -7.5638553e-16 -3.653927)
(148.97319 9.6418029e-16 -3.5047362)
(149.09771 -1.0371145e-15 -3.3655931)
(149.22387 9.9175024e-16 -3.2358275)
(149.35092 -2.1089405e-16 -3.1147593)
(149.47799 -6.0490177e-16 -3.0016549)
(149.60353 0 -2.8958494)
(149.72583 -1.8452548e-16 -2.7964901)
(149.84167 1.7661992e-16 -2.7031684)
(149.95026 0 -2.6145553)
(150.04673 0 -2.531451)
(150.13856 -1.5499501e-16 -2.4490102)
(150.20407 -2.969335e-16 -2.3787687)
(150.29034 -2.8443902e-16 -2.2818226)
(150.25838 6.8206118e-17 -2.2728079)
(150.40194 -6.540872e-17 -2.0263859)
(150.05226 2.5115635e-16 -2.3831316)
(150.48509 -6.0081625e-17 -1.3570004)
(149.56255 2.268737e-16 -3.2073111)
(151.60367 1.3279196e-15 -27.028419)
(160.99941 -1.2025167e-15 -19.36063)
(156.64576 1.8088514e-17 -25.819859)
(158.78475 0 -20.446911)
(156.9725 1.6094509e-17 -24.284709)
(157.60032 1.0031172e-15 -21.197953)
(156.6899 -8.9327115e-16 -23.11883)
(156.73441 -5.4562014e-17 -21.500869)
(156.16983 0 -22.284913)
(155.97171 -7.8465654e-16 -21.451991)
(155.53984 6.9344254e-17 -21.650046)
(155.23725 2.1602647e-17 -21.175024)
(154.85011 6.2790745e-16 -21.097075)
(154.5039 0 -20.757833)
(154.12849 6.0430794e-16 -20.552811)
(153.76468 -1.1118427e-15 -20.248365)
(153.39172 1.0905889e-15 -19.979143)
(153.02253 -4.8573115e-16 -19.668423)
(152.65207 0 -19.358735)
(152.2848 2.9252038e-17 -19.026656)
(151.92033 -8.9135539e-16 -18.684821)
(151.56079 1.6952129e-15 -18.326668)
(151.20709 -1.6631672e-15 -17.955931)
(150.86077 8.6303274e-16 -17.571162)
(150.52311 -7.3050363e-16 -17.173756)
(150.19549 6.9482276e-16 -16.763862)
(149.87924 0 -16.342453)
(149.57565 -5.9071803e-16 -15.910292)
(149.28596 5.998049e-16 -15.46844)
(149.01132 7.1502803e-17 -15.018003)
(148.7528 6.8102736e-17 -14.560237)
(148.51133 -5.8339076e-16 -14.096484)
(148.28774 9.2607336e-16 -13.628181)
(148.08268 1.7591633e-19 -13.156829)
(147.89667 -8.9677178e-16 -12.683988)
(147.73006 5.3416795e-16 -12.211239)
(147.58306 0 -11.740174)
(147.45568 3.8822934e-16 -11.272402)
(147.3478 -4.6259405e-16 -10.809382)
(147.25917 0 -10.352765)
(147.18954 -6.7277774e-16 -9.9042218)
(147.13809 8.029049e-17 -9.464641)
(147.10428 5.3509307e-16 -9.0352092)
(147.08734 0 -8.6172123)
(147.08642 1.3904132e-16 -8.2114977)
(147.10067 6.6361034e-16 -7.8190118)
(147.12914 -5.0640319e-16 -7.4404675)
(147.17088 1.2038043e-19 -7.0764564)
(147.22494 -4.609533e-16 -6.7274617)
(147.29035 8.7972452e-16 -6.3938037)
(147.36617 -4.6040709e-20 -6.0757041)
(147.45149 -1.0013281e-16 -5.7732466)
(147.54542 -1.9110233e-16 -5.4864138)
(147.6471 1.8252564e-16 -5.2150775)
(147.75572 1.7422471e-16 -4.9590154)
(147.87048 6.6501983e-16 -4.7179261)
(147.99067 -6.3505419e-16 -4.4914271)
(148.11566 0 -4.2790584)
(148.24477 0 -4.0803019)
(148.37732 1.3821684e-16 -3.894589)
(148.51269 5.2807787e-16 -3.7212985)
(148.65023 -2.5231902e-16 -3.5597812)
(148.78933 -4.8180191e-16 -3.409354)
(148.92937 -2.3008142e-16 -3.2693121)
(149.06975 2.1990625e-16 -3.1389289)
(149.20983 4.2016645e-16 -3.0174606)
(149.34881 8.0290786e-16 -2.9041357)
(149.48541 -3.8370383e-16 -2.7981929)
(149.61784 3.6661889e-16 -2.6988107)
(149.74342 -7.0098239e-16 -2.6053276)
(149.86027 -3.349932e-16 -2.5167884)
(149.96562 3.2037846e-16 -2.4328188)
(150.06175 1.5315056e-16 -2.351508)
(150.1392 1.464859e-16 -2.2759247)
(150.21908 -2.8027667e-16 -2.1889644)
(150.21737 1.3412144e-16 -2.1518177)
(150.32504 1.2837301e-16 -1.9546385)
(150.04194 -4.9195376e-16 -2.2165031)
(150.40773 2.940901e-16 -1.318269)
(149.53253 0 -2.9945299)
(150.54499 2.1373858e-17 -28.963084)
(159.84985 -1.1847814e-15 -21.017438)
(155.42382 3.6200619e-17 -27.663601)
(157.63249 1.101361e-15 -22.134822)
(155.74211 -1.0479891e-15 -26.023413)
(156.38007 1.0196377e-15 -22.878582)
(155.43102 -5.8619724e-17 -24.77353)
(155.46028 2.7725919e-17 -23.140098)
(154.87141 0 -23.870781)
(154.65098 7.983721e-16 -23.026734)
(154.19924 -8.5149905e-16 -23.169268)
(153.87447 0 -22.672998)
(153.46908 7.2457893e-16 -22.543544)
(153.10337 -6.4705582e-16 -22.171762)
(152.71161 6.1489684e-16 -21.917685)
(152.33181 -6.201415e-16 -21.572116)
(151.9454 4.8551542e-16 -21.253594)
(151.56423 -1.0544048e-15 -20.895763)
(151.18424 5.0094715e-16 -20.534856)
(150.80962 -4.76575e-16 -20.151397)
(150.44044 5.0956236e-16 -19.755909)
(150.07889 -5.3925639e-17 -19.343287)
(149.72614 -5.1293434e-17 -18.916738)
(149.38385 -4.8677989e-17 -18.475439)
(149.05346 0 -18.020819)
(148.73647 4.407323e-17 -17.553417)
(148.43427 6.7204333e-16 -17.074435)
(148.1482 -7.191708e-16 -16.584972)
(147.87948 5.3270924e-16 -16.086386)
(147.62922 -1.4463432e-16 -15.580103)
(147.39837 -6.2060074e-16 -15.067685)
(147.18776 -1.4560204e-19 -14.550771)
(146.99798 -5.0049929e-16 -14.031078)
(146.8295 4.7652842e-16 -13.510366)
(146.68257 1.1361699e-16 -12.990419)
(146.55724 -1.0801599e-16 -12.473016)
(146.4534 0 -11.959912)
(146.37075 -3.9258829e-16 -11.452812)
(146.30882 4.674702e-16 -10.953349)
(146.267 -7.1296125e-16 -10.462949)
(146.24452 8.4944528e-16 -9.9834225)
(146.24063 -1.6179088e-16 -9.5159549)
(146.25421 7.7156347e-16 -9.0612595)
(146.28432 -1.3242488e-15 -8.6206766)
(146.32976 -1.403296e-16 -8.1949771)
(146.38947 4.013214e-16 -7.7848973)
(146.46227 0 -7.3910486)
(146.54703 1.2179967e-16 -7.0138312)
(146.64265 0 -6.6535694)
(146.74802 -2.2132305e-16 -6.3104088)
(146.86211 0 -5.9843998)
(146.98391 -4.0253152e-16 -5.6754607)
(147.1125 1.9205598e-16 -5.3834129)
(147.24698 -3.6629547e-16 -5.1079769)
(147.38652 -1.7466991e-16 -4.8487887)
(147.53035 0 -4.6054095)
(147.67777 0 -4.3773424)
(147.82815 0 -4.1640199)
(147.9809 -5.7927128e-16 -3.9648206)
(148.13538 2.7662863e-16 -3.779091)
(148.29102 1.2881142e-19 -3.6061308)
(148.44727 5.0366699e-16 -3.4452208)
(148.60357 0 -3.2956162)
(148.75937 6.88089e-16 -3.1565558)
(148.91416 -6.5690745e-16 -3.0272624)
(149.06736 -2.0887693e-16 -2.9069424)
(149.2183 -1.993932e-16 -2.7947834)
(149.36589 7.6186863e-16 -2.6899633)
(149.50844 -3.6372044e-16 -2.5916405)
(149.64354 -5.2074801e-16 -2.4990435)
(149.76886 1.7969155e-19 -2.4112859)
(149.88232 1.7482738e-19 -2.3276198)
(149.98388 1.5117643e-15 -2.247157)
(150.07044 -5.7764793e-16 -2.1688663)
(150.14797 5.5168815e-16 -2.0884255)
(150.16979 0 -2.030259)
(150.2501 5.0365642e-16 -1.8735075)
(150.02349 -4.8195293e-16 -2.0513395)
(150.33383 0 -1.2725415)
(149.49397 2.1359096e-16 -2.7865905)
(149.3104 1.3642963e-15 -30.933229)
(158.54689 -2.4856791e-15 -22.711519)
(154.01728 -3.7961703e-17 -29.52852)
(156.28813 -7.3059856e-19 -23.858393)
(154.32288 1.0641603e-15 -27.771212)
(154.96257 -1.0057149e-15 -24.586122)
(153.97737 1.936228e-15 -26.430793)
(153.98527 -9.0238358e-16 -24.792584)
(153.37279 0 -25.453239)
(153.12644 0 -24.60049)
(152.65449 9.6210412e-17 -24.676903)
(152.30572 -7.3044548e-16 -24.156406)
(151.88164 7.3610896e-16 -23.967779)
(151.49586 0 -23.55784)
(151.08784 0 -23.247877)
(150.6925 5.934843e-16 -22.8545)
(150.29365 -4.9301602e-16 -22.47982)
(149.90206 0 -22.067816)
(149.51468 5.0906051e-16 -21.648701)
(149.13552 -4.835173e-16 -21.206773)
(148.76512 -5.7404447e-17 -20.750707)
(148.40573 5.457855e-17 -20.276786)
(148.05879 5.1899178e-17 -19.787869)
(147.72609 0 -19.283774)
(147.40921 0 -18.766082)
(147.1097 0 -18.235776)
(146.82898 0 -17.694375)
(146.56837 0 -17.143371)
(146.32901 6.9333072e-16 -16.584479)
(146.11186 -5.1312333e-16 -16.019488)
(145.9177 0 -15.4503)
(145.74707 5.9773195e-16 -14.878873)
(145.60034 1.4665825e-19 -14.307206)
(145.4776 1.1929044e-19 -13.737309)
(145.37876 -9.1668163e-16 -13.171169)
(145.3035 4.3652223e-16 -12.610724)
(145.2513 5.1980524e-16 -12.057846)
(145.22145 -3.9592707e-16 -11.514291)
(145.21311 -3.7713664e-16 -10.98169)
(145.22522 -3.5924378e-16 -10.461598)
(145.25662 -1.7096303e-16 -9.9553389)
(145.3064 6.5212733e-16 -9.4642806)
(145.3729 -1.5545184e-16 -8.9891964)
(145.45498 -4.4412158e-16 -8.5309584)
(145.5512 1.4104612e-16 -8.0903304)
(145.66024 6.7229184e-16 -7.6677558)
(145.78076 -2.5640417e-16 -7.2636806)
(145.91148 2.4433616e-16 -6.8782827)
(146.05114 -2.3277053e-16 -6.5116778)
(146.19859 2.218581e-16 -6.1638087)
(146.3527 0 -5.8345243)
(146.51244 -1.5389312e-19 -5.5235563)
(146.67687 -1.922667e-16 -5.2305478)
(146.84509 1.8332087e-16 -4.955056)
(147.0163 -3.4979949e-16 -4.6965672)
(147.18976 0 -4.4545034)
(147.36482 -3.1802415e-16 -4.2282481)
(147.5409 3.0305922e-16 -4.0171264)
(147.71748 -1.1566661e-15 -3.8204226)
(147.894 5.5173741e-16 -3.6373986)
(148.06997 5.2595209e-16 -3.4672839)
(148.24491 -2.5087028e-16 -3.3092955)
(148.41836 4.7839776e-16 -3.1626362)
(148.58985 -9.1264791e-16 -3.026497)
(148.75892 -4.3514082e-16 -2.9000596)
(148.9251 8.3024508e-16 -2.7824924)
(149.08782 9.3696801e-20 -2.672948)
(149.24617 3.7760039e-16 -2.5705637)
(149.39862 3.6011253e-16 -2.4744709)
(149.54293 0 -2.383836)
(149.67666 9.8246706e-16 -2.2977522)
(149.79771 -1.8746979e-15 -2.2154272)
(149.90522 8.7733869e-20 -2.1360242)
(149.99887 8.5280451e-16 -2.0571955)
(150.07659 -1.3559993e-15 -1.9807933)
(150.11665 1.9044237e-19 -1.9079597)
(150.17618 2.469583e-16 -1.7837567)
(149.9989 -4.7134075e-16 -1.8883555)
(150.25965 1.1244945e-15 -1.2209676)
(149.45044 -2.0739878e-16 -2.5793967)
(147.88095 0 -32.941087)
(157.10432 -1.2635641e-15 -24.439347)
(152.41497 1.2128408e-15 -31.403399)
(154.73865 3.5622386e-17 -25.609218)
(152.70223 1.1152129e-15 -29.517027)
(153.33396 -3.1137839e-17 -26.310865)
(152.31505 -9.6792864e-16 -28.080289)
(152.29491 8.6005564e-16 -26.447173)
(151.6592 -8.6897714e-16 -27.021388)
(151.38312 -8.760499e-16 -26.160645)
(150.89041 -4.4344704e-19 -26.16042)
(150.51586 7.4118354e-16 -25.610942)
(150.0727 1.2497571e-19 -25.354993)
(149.66654 -6.6802766e-16 -24.899706)
(149.24275 6.3369264e-16 -24.526077)
(148.83294 7.5364895e-17 -24.076798)
(148.4234 6.4345392e-16 -23.637964)
(148.02393 -5.428113e-16 -23.163462)
(147.63248 -5.1606218e-16 -22.678029)
(147.25292 4.2862537e-16 -22.169477)
(146.88627 -4.6597162e-16 -21.64497)
(146.53487 4.4257683e-16 -21.102128)
(146.2004 -4.2096059e-16 -20.543658)
(145.88474 2.9976513e-16 -19.97006)
(145.58954 0 -19.383202)
(145.31636 7.2354505e-16 -18.784572)
(145.06656 -6.8772017e-16 -18.1761)
(144.84132 -6.5436508e-16 -17.559727)
(144.64159 -2.4590957e-19 -16.937579)
(144.46807 5.9182573e-16 -16.31184)
(144.32121 5.6321137e-16 -15.684767)
(144.20121 -5.3570847e-16 -15.058632)
(144.10801 1.2761762e-16 -14.435697)
(144.04126 -4.8517841e-16 -13.818182)
(144.00041 8.0812124e-16 -13.208222)
(143.98466 -4.3944223e-16 -12.607852)
(143.99301 -7.3218113e-16 -12.018974)
(144.02431 3.9823264e-16 -11.443317)
(144.07723 0 -10.882474)
(144.1503 -1.806669e-16 -10.337866)
(144.24211 -6.8749099e-16 -9.8104779)
(144.35104 6.5481111e-16 -9.3016503)
(144.47544 7.7934161e-16 -8.8120745)
(144.6138 -7.4264341e-16 -8.3421446)
(144.7645 -2.826588e-16 -7.8925125)
(144.92602 6.7406882e-16 -7.4633269)
(145.09688 2.5661365e-16 -7.0547845)
(145.27569 2.4475065e-16 -6.6668183)
(145.46112 2.3312574e-16 -6.2992926)
(145.65196 -1.3100022e-19 -5.9519237)
(145.84709 -6.3503189e-16 -5.6243397)
(146.04548 6.0485508e-16 -5.3160715)
(146.24621 3.8417207e-16 -5.0265767)
(146.44843 -7.3266381e-16 -4.7552451)
(146.6514 3.4894697e-16 -4.5014133)
(146.85445 -6.6517414e-16 -4.2643693)
(147.057 1.5849486e-15 -4.0433783)
(147.25855 -3.022986e-16 -3.8376665)
(147.45866 -2.8802208e-16 -3.6464357)
(147.65688 -2.7440775e-16 -3.4688691)
(147.85281 0 -3.3041374)
(148.04607 -7.4796348e-16 -3.1514049)
(148.23627 -4.7500458e-16 -3.0098321)
(148.42303 1.3587316e-15 -2.8785742)
(148.60598 4.3153e-16 -2.7567827)
(148.78473 -4.1125134e-16 -2.6435995)
(148.95881 -1.567641e-15 -2.5381533)
(149.12747 -3.7329549e-16 -2.439555)
(149.2894 3.5601004e-16 -2.3469146)
(149.44251 0 -2.2593516)
(149.58434 9.6916614e-16 -2.1759456)
(149.71258 -6.1579809e-16 -2.0959369)
(149.82612 8.8001826e-16 -2.018177)
(149.92541 -8.3838185e-16 -1.9405528)
(150.00509 1.5822516e-19 -1.8665669)
(150.05912 5.0762401e-16 -1.7847887)
(150.10321 2.4178224e-16 -1.6860637)
(149.97035 0 -1.727823)
(150.18572 -2.1946672e-16 -1.1656133)
(149.41047 0 -2.3761825)
(146.24586 -1.4232991e-15 -34.984688)
(155.44199 -4.010042e-17 -26.193537)
(150.60542 -3.8529371e-17 -33.284149)
(152.9704 -3.6111816e-17 -27.385477)
(150.86615 -3.4251139e-17 -31.256577)
(151.47871 -1.0382525e-15 -28.047373)
(150.42807 1.0442045e-15 -29.715602)
(150.37255 5.8128404e-17 -28.09488)
(149.7135 9.379137e-16 -28.565884)
(149.40375 -7.3150826e-16 -27.694884)
(148.88949 -9.9137232e-17 -27.60687)
(148.48762 7.9951539e-16 -27.021019)
(148.0252 -7.5768837e-16 -26.688412)
(147.59897 0 -26.178402)
(147.1606 0 -25.731811)
(146.73841 -6.8614183e-16 -25.216702)
(146.32119 4.3393036e-16 -24.704177)
(145.91787 0 -24.15733)
(145.52736 -5.8753647e-16 -23.596142)
(145.15349 9.912891e-16 -23.011642)
(144.79767 3.19484e-19 -22.409888)
(144.46236 -7.8265486e-16 -21.789785)
(144.14938 4.2489232e-16 -21.154119)
(143.86066 -7.071238e-16 -20.504122)
(143.5978 8.6346746e-16 -19.842091)
(143.36225 -9.1341123e-17 -19.170092)
(143.15518 0 -18.490543)
(142.97748 0 -17.805885)
(142.82975 4.697877e-16 -17.118682)
(142.71229 1.5791271e-19 -16.431522)
(142.62506 1.4194536e-16 -15.746993)
(142.56774 -1.0773911e-15 -15.067644)
(142.53971 5.1264049e-16 -14.395938)
(142.54009 -4.873335e-16 -13.734221)
(142.56773 5.7960606e-16 -13.08469)
(142.62128 -4.4102156e-16 -12.449366)
(142.6992 6.2924203e-16 -11.830068)
(142.79982 0 -11.2284)
(142.92133 0 -10.645773)
(143.0619 3.6167801e-16 -10.083319)
(143.21971 -1.7227439e-16 -9.5418926)
(143.39264 -8.1933563e-16 -9.0224264)
(143.57907 -1.5593805e-16 -8.5252697)
(143.77713 1.0398806e-15 -8.0505667)
(143.98508 2.8294046e-16 -7.5986776)
(144.20124 -1.0774603e-15 -7.1694597)
(144.42407 0 -6.7627904)
(144.65212 -7.3262505e-16 -6.3783353)
(144.88407 4.6538844e-16 -6.0156826)
(145.11872 2.2167924e-16 -5.6743072)
(145.35498 4.2187181e-16 -5.3536097)
(145.59188 -8.0412517e-16 -5.0529179)
(145.82858 7.6574758e-16 -4.7715068)
(146.06432 -1.0945949e-15 -4.5086052)
(146.29845 3.4755489e-16 -4.2634085)
(146.53041 3.3104023e-16 -4.0350832)
(146.7597 0 -3.8227863)
(146.98593 0 -3.6256595)
(147.20878 5.7207672e-16 -3.442835)
(147.4279 5.448449e-16 -3.2734316)
(147.64299 -5.1931373e-16 -3.1165745)
(147.85378 4.9415011e-16 -2.9713889)
(148.05997 -4.7082261e-16 -2.8370067)
(148.26129 4.4825568e-16 -2.7125596)
(148.45742 -1.2812892e-15 -2.5971814)
(148.64807 -8.1323944e-16 -2.4900006)
(148.83286 1.1618057e-15 -2.3901331)
(149.0112 3.6866985e-16 -2.2966789)
(149.18199 0 -2.2087345)
(149.34334 6.6827814e-16 -2.1253847)
(149.4928 -6.3636109e-16 -2.0457254)
(149.62782 0 -1.968991)
(149.74725 -5.7661449e-16 -1.89374)
(149.85107 -5.4885313e-16 -1.8187389)
(149.93387 0 -1.7463686)
(149.99812 0 -1.6607162)
(150.03147 0 -1.5812167)
(149.93933 -4.5072008e-16 -1.5706262)
(150.11244 0 -1.1078383)
(149.37119 -7.7439383e-16 -2.1751754)
(144.38837 -4.517751e-17 -37.063705)
(153.55647 0 -27.975324)
(148.5678 -1.2119813e-15 -35.170329)
(150.9618 1.2119318e-15 -29.184728)
(148.79353 0 -32.984721)
(149.37489 -1.0544872e-15 -29.788572)
(148.29452 9.3503695e-16 -31.328415)
(148.19626 0 -29.724006)
(147.5136 8.3953719e-16 -30.074495)
(147.16662 -9.0075026e-16 -29.187396)
(146.63023 5.0157725e-17 -28.999463)
(146.2002 7.1486458e-16 -28.366825)
(145.7191 -8.9880014e-17 -27.946621)
(145.27424 -5.9918364e-16 -27.370042)
(144.82386 5.6890483e-16 -26.839333)
(144.39307 7.7753759e-17 -26.246429)
(143.97315 -5.1191901e-16 -25.648933)
(143.57223 0 -25.018288)
(143.19018 6.5767739e-17 -24.370567)
(142.83077 1.877539e-16 -23.699726)
(142.49575 -1.1897268e-16 -23.011151)
(142.18762 -2.2548872e-16 -22.305024)
(141.90823 0 -21.584438)
(141.6594 1.018423e-16 -20.851437)
(141.44255 -9.6377876e-17 -20.10887)
(141.25881 9.154521e-17 -19.359447)
(141.10898 0 -18.606129)
(140.99347 -1.6578321e-16 -17.85187)
(140.91231 -4.7204805e-16 -17.099663)
(140.8652 4.4799171e-16 -16.352451)
(140.85145 -1.4180996e-16 -15.613094)
(140.87006 0 -14.884312)
(140.91971 3.8507643e-16 -14.168662)
(140.99883 -6.1007583e-16 -13.468487)
(141.10564 1.1639826e-16 -12.785903)
(141.23814 -2.2083354e-16 -12.122773)