/*--------------------------------*- C++ -*----------------------------------*\
  =========                 |
  \\      /  F ield         | OpenFOAM: The Open Source CFD Toolbox
   \\    /   O peration     | Website:  https://openfoam.org
    \\  /    A nd           | Version:  6
     \\/     M anipulation  |
\*---------------------------------------------------------------------------*/
FoamFile
{
    version     2.0;
    format      ascii;
    class       volScalarField;
    location    "150";
    object      alphat;
}
// * * * * * * * * * * * * * * * * * * * * * * * * * * * * * * * * * * * * * //

dimensions      [1 -1 -1 0 0 0 0];

internalField   nonuniform List<scalar> 
16000
(
3.7715489e-06
2.3187774e-05
3.0610257e-05
3.7494465e-05
3.1101005e-05
3.8591551e-05
3.4955495e-05
3.909042e-05
3.7721796e-05
3.8281303e-05
3.7595086e-05
3.6878541e-05
3.65807e-05
3.6067493e-05
3.6126685e-05
3.6055115e-05
3.6408842e-05
3.6749072e-05
3.7380761e-05
3.8079459e-05
3.8996601e-05
4.0034283e-05
4.1266184e-05
4.2660913e-05
4.4261589e-05
4.6072246e-05
4.8129594e-05
5.0459264e-05
5.3103408e-05
5.6106852e-05
5.9545608e-05
6.3507975e-05
6.8095097e-05
7.3438738e-05
7.9607481e-05
8.6739305e-05
9.502247e-05
0.00010474405
0.00011628059
0.00012997884
0.00014626823
0.00016575072
0.00018918857
0.00021752217
0.00025194212
0.00029397692
0.00034553351
0.00040896572
0.00048712582
0.0005833558
0.00070146247
0.00084568952
0.0010207541
0.0012146833
0.0012158636
0.0012159439
0.0012152934
0.0012142772
0.0012130686
0.0012116337
0.0012097769
0.0012073353
0.0012042885
0.0012006927
0.0011968065
0.0011930228
0.0011896381
0.0011866959
0.0011841022
0.0011818543
0.0011798246
0.0011782228
0.0011766464
0.0011759108
0.0011744673
0.0011753883
0.0011734255
0.0011773013
0.001170887
0.0011767852
3.2079137e-06
2.2953695e-05
2.6676583e-05
3.4218904e-05
2.8488744e-05
3.4889804e-05
3.2132143e-05
3.5431995e-05
3.4718574e-05
3.4763191e-05
3.4441565e-05
3.3494771e-05
3.3387682e-05
3.2771658e-05
3.2884863e-05
3.2747327e-05
3.3083328e-05
3.3356684e-05
3.3927057e-05
3.4540561e-05
3.5362796e-05
3.6288943e-05
3.7393956e-05
3.864475e-05
4.0082134e-05
4.1708622e-05
4.3557621e-05
4.5652989e-05
4.8034698e-05
5.0746099e-05
5.3842932e-05
5.738314e-05
6.146514e-05
6.6206955e-05
7.1746071e-05
7.8240038e-05
8.5818036e-05
9.4651039e-05
0.00010504084
0.00011743457
0.00013224287
0.00014997274
0.00017133308
0.00019721551
0.00022869166
0.00026712108
0.00031418083
0.00037187253
0.00044257475
0.00052904319
0.00063441895
0.00076233047
0.00091705553
0.001103939
0.0012149859
0.0012152058
0.001214593
0.0012135677
0.0012123577
0.0012109669
0.001209312
0.0012071518
0.0012043329
0.001200877
0.0011970263
0.0011932069
0.0011897764
0.0011867965
0.0011841843
0.0011819054
0.0011798833
0.0011782244
0.0011766976
0.0011758144
0.0011745019
0.0011750698
0.0011733491
0.0011769852
0.0011710255
0.0011766596
2.8322834e-06
2.2745436e-05
2.4465659e-05
3.1405085e-05
2.6427107e-05
3.1662209e-05
2.9928694e-05
3.2005414e-05
3.2135052e-05
3.1326402e-05
3.1502243e-05
3.0231139e-05
3.0361285e-05
2.9621792e-05
2.9812958e-05
2.9617097e-05
2.9951113e-05
3.0172749e-05
3.0697115e-05
3.1243548e-05
3.1988972e-05
3.2824693e-05
3.3825233e-05
3.4957791e-05
3.6260425e-05
3.7735338e-05
3.9412748e-05
4.1314534e-05
4.347684e-05
4.5939097e-05
4.8752632e-05
5.1979943e-05
5.5698851e-05
5.9990618e-05
6.49879e-05
7.0852312e-05
7.779069e-05
8.5971967e-05
9.5548016e-05
0.0001068821
0.00012048298
0.00013683363
0.00015652952
0.00018040719
0.00020945196
0.0002448452
0.00028805327
0.00034078883
0.00040504784
0.00048316584
0.0005778482
0.00069234884
0.00083068619
0.00099800563
0.0012010286
0.0012144961
0.0012139265
0.0012128851
0.0012116576
0.0012102684
0.001208668
0.0012067474
0.001204206
0.0012009373
0.0011971586
0.0011933254
0.0011898622
0.0011868582
0.0011842326
0.0011819386
0.0011799194
0.0011782313
0.0011767366
0.0011757606
0.0011745485
0.0011748387
0.0011733376
0.0011766828
0.0011710077
0.0011762386
2.5143428e-06
2.251816e-05
2.2489795e-05
2.8767817e-05
2.4483458e-05
2.870005e-05
2.7837313e-05
2.8865797e-05
2.9645124e-05
2.8186058e-05
2.8730141e-05
2.7266349e-05
2.7543877e-05
2.6753048e-05
2.6983043e-05
2.6766057e-05
2.7086026e-05
2.7276999e-05
2.7757344e-05
2.8252445e-05
2.8930844e-05
2.9691869e-05
3.0603009e-05
3.1635757e-05
3.2823687e-05
3.417019e-05
3.5702363e-05
3.744121e-05
3.9419905e-05
4.167516e-05
4.4254394e-05
4.7214903e-05
5.0627924e-05
5.4582291e-05
5.9185172e-05
6.4562235e-05
7.0896423e-05
7.8444431e-05
8.7414954e-05
9.7983538e-05
0.0001105899
0.00012581099
0.00014417654
0.00016639808
0.00019340491
0.00022623351
0.0002661495
0.00031465547
0.00037347804
0.00044469457
0.00053079374
0.00063487052
0.00076085555
0.00091377634
0.0011000903
0.001213818
0.0012132997
0.0012122369
0.0012109821
0.0012095771
0.0012079848
0.0012061352
0.0012038673
0.0012008385
0.0011971743
0.0011933526
0.001189873
0.001186859
0.001184231
0.0011819345
0.0011799232
0.0011782211
0.001176755
0.0011757136
0.0011745971
0.0011746419
0.0011733388
0.0011762091
0.0011710962
0.0011759897
2.2453356e-06
2.2242877e-05
2.0740189e-05
2.6332378e-05
2.2710955e-05
2.5995672e-05
2.5912488e-05
2.5964792e-05
2.7262766e-05
2.5314398e-05
2.6102018e-05
2.4532361e-05
2.4895337e-05
2.4100926e-05
2.4345225e-05
2.4131374e-05
2.4431839e-05
2.4606355e-05
2.5046696e-05
2.5502015e-05
2.6122538e-05
2.6821112e-05
2.7655575e-05
2.8603248e-05
2.969281e-05
3.0929322e-05
3.2337025e-05
3.3936333e-05
3.5757933e-05
3.783657e-05
4.0216583e-05
4.2951984e-05
4.6109967e-05
4.9772295e-05
5.4040898e-05
5.9043945e-05
6.4925654e-05
7.1890114e-05
8.0240058e-05
9.0201725e-05
0.0001020261
0.00011622455
0.00013341394
0.00015417234
0.0001793249
0.00020982669
0.00024676635
0.00029149461
0.000345578
0.00041094394
0.00048998394
0.00058570863
0.00070195849
0.00084357403
0.0010166281
0.001213153
0.0012127
0.0012116132
0.0012103245
0.0012088948
0.0012072934
0.0012054685
0.0012033166
0.0012005845
0.001197081
0.0011932971
0.001189817
0.0011868063
0.0011841866
0.0011818986
0.0011799008
0.0011781973
0.001176756
0.0011756716
0.0011746376
0.0011744758
0.0011733634
0.0011757924
0.0011711816
0.0011756962
2.0181673e-06
2.1883981e-05
1.921424e-05
2.4066777e-05
2.1091844e-05
2.3504617e-05
2.4122822e-05
2.3280635e-05
2.4962808e-05
2.2706944e-05
2.3620852e-05
2.2032972e-05
2.2425883e-05
2.1670164e-05
2.1908567e-05
2.1717531e-05
2.1995518e-05
2.2165042e-05
2.2570494e-05
2.2996108e-05
2.3568202e-05
2.4215868e-05
2.4986349e-05
2.586328e-05
2.6870698e-05
2.8015437e-05
2.931932e-05
3.0802421e-05
3.2493475e-05
3.4425659e-05
3.6640858e-05
3.9190351e-05
4.2137874e-05
4.5561649e-05
4.9558129e-05
5.4245855e-05
5.9774482e-05
6.6316693e-05
7.4110885e-05
8.3486517e-05
9.4676191e-05
0.00010804494
0.00012418328
0.00014368368
0.00016721629
0.000195684
0.00023006683
0.0002716015
0.00032178091
0.00038245095
0.00045595324
0.00054522729
0.00065398731
0.00078683726
0.00094944078
0.0011486896
0.0012121207
0.0012110094
0.0012096819
0.0012082212
0.0012066009
0.0012047794
0.0012026829
0.0012001621
0.0011968725
0.0011931555
0.0011896912
0.0011866976
0.0011840972
0.0011818286
0.0011798509
0.001178157
0.0011767383
0.00117563
0.0011746663
0.0011743361
0.0011733915
0.001175381
0.0011713094
0.0011755125
1.8268143e-06
2.1404761e-05
1.7901315e-05
2.1955013e-05
1.960368e-05
2.119259e-05
2.2428916e-05
2.0854613e-05
2.2737624e-05
2.0330779e-05
2.1270089e-05
1.9740585e-05
2.0120682e-05
1.9435744e-05
1.9655172e-05
1.9500307e-05
1.9755839e-05
1.9928259e-05
2.0304405e-05
2.0708047e-05
2.1240208e-05
2.1846375e-05
2.2563749e-05
2.3381858e-05
2.4320757e-05
2.5388839e-05
2.6605993e-05
2.799206e-05
2.9574216e-05
3.1384435e-05
3.3462595e-05
3.5857693e-05
3.8630674e-05
4.1856027e-05
4.5625772e-05
5.0053323e-05
5.5278324e-05
6.1473473e-05
6.8836969e-05
7.7668127e-05
8.8271167e-05
0.00010094868
0.00011614811
0.00013451779
0.00015663309
0.0001833157
0.00021551095
0.00025437529
0.00030137116
0.00035829979
0.00042745448
0.00051168826
0.00061455242
0.00074038987
0.00089447763
0.0010832106
0.0012115515
0.0012104179
0.0012090479
0.001207552
0.0012059068
0.001204077
0.0012020037
0.0011995762
0.0011965487
0.0011929305
0.0011894982
0.0011865348
0.0011839647
0.0011817255
0.0011797753
0.0011781008
0.001176704
0.0011755877
0.0011746813
0.0011742204
0.001173433
0.0011750192
0.0011714292
0.0011753458
1.6665729e-06
1.9854457e-05
1.678317e-05
1.9964327e-05
1.8227434e-05
1.9017816e-05
2.0793548e-05
1.8654549e-05
2.0592623e-05
1.8161466e-05
1.9051161e-05
1.7640134e-05
1.7980085e-05
1.7386838e-05
1.7581529e-05
1.7470508e-05
1.7706275e-05
1.7886746e-05
1.8239605e-05
1.8627427e-05
1.9127624e-05
1.9700506e-05
2.0374672e-05
2.1144681e-05
2.2027361e-05
2.3032458e-05
2.4178348e-05
2.548467e-05
2.6977421e-05
2.8687567e-05
3.0653425e-05
3.2921998e-05
3.5551866e-05
3.8614434e-05
4.2197524e-05
4.6409515e-05
5.1382928e-05
5.7278879e-05
6.4297077e-05
7.2680073e-05
8.2744429e-05
9.4787497e-05
0.00010921102
0.00012656926
0.00014746944
0.00017264302
0.00020303083
0.00023974754
0.00028423364
0.00033825858
0.00040405255
0.00048436367
0.00058256575
0.00070275212
0.00084987429
0.0010299438
0.0012109822
0.0012098318
0.0012084169
0.0012068832
0.0012052094
0.0012033649
0.0012013017
0.0011989369
0.0011961078
0.0011926245
0.0011892395
0.0011863194
0.0011837903
0.0011815902
0.0011796753
0.001178029
0.0011766549
0.001175544
0.0011746824
0.0011741263
0.0011734706
0.0011746458
0.0011715642
0.0011752218
1.5288249e-06
1.6853626e-05
1.5755066e-05
1.8060351e-05
1.697257e-05
1.7012403e-05
1.9210371e-05
1.6664421e-05
1.8542943e-05
1.6190685e-05
1.6980406e-05
1.5725378e-05
1.6009828e-05
1.5516718e-05
1.5685231e-05
1.5619716e-05
1.5839137e-05
1.6029742e-05
1.6364596e-05
1.6740898e-05
1.7215789e-05
1.7762055e-05
1.8401362e-05
1.9132346e-05
1.9969366e-05
2.0923149e-05
2.2011012e-05
2.3252357e-05
2.467227e-05
2.630088e-05
2.8175177e-05
3.0340425e-05
3.2853068e-05
3.5781654e-05
3.9210359e-05
4.3242621e-05
4.8004046e-05
5.3649033e-05
6.0367353e-05
6.83687e-05
7.7960661e-05
8.9442636e-05
0.00010318648
0.00011968135
0.00013955827
0.00016350163
0.00019244139
0.00022747872
0.00027002708
0.00032182188
0.00038501774
0.00046224903
0.00055672141
0.00067231507
0.00081373153
0.00098670479
0.0011982627
0.0012092438
0.0012077828
0.0012062098
0.0012045054
0.0012026425
0.0012005806
0.0011982544
0.001195548
0.0011922418
0.001188919
0.0011860542
0.0011835763
0.0011814242
0.0011795528
0.0011779425
0.0011765941
0.0011754989
0.0011746712
0.0011740537
0.0011735125
0.0011743171
0.0011717023
0.00117511
1.3956213e-06
1.6185909e-05
1.450868e-05
1.623259e-05
1.5821137e-05
1.5218246e-05
1.76455e-05
1.4872941e-05
1.6593115e-05
1.4406353e-05
1.5064252e-05
1.3985039e-05
1.4208201e-05
1.3814901e-05
1.3959422e-05
1.3937476e-05
1.4144756e-05
1.4346124e-05
1.4667903e-05
1.5036117e-05
1.5491686e-05
1.6017183e-05
1.6629093e-05
1.7329097e-05
1.8129838e-05
1.9042694e-05
2.0084227e-05
2.1273596e-05
2.2635157e-05
2.4198327e-05
2.5998945e-05
2.8080663e-05
3.0497968e-05
3.3316777e-05
3.6617752e-05
4.0499341e-05
4.5081438e-05
5.0511596e-05
5.6964163e-05
6.4648516e-05
7.3842759e-05
8.4841499e-05
9.7988976e-05
0.00011378793
0.00013283775
0.00015581981
0.00018364514
0.00021741123
0.00025849989
0.00030860491
0.00036980263
0.00044461863
0.00053611678
0.00064801218
0.00078482773
0.00095210307
0.0011566525
0.0012086468
0.0012071399
0.0012055275
0.0012037919
0.0012019089
0.0011998437
0.0011975427
0.0011949139
0.001191788
0.0011885411
0.001185743
0.0011833258
0.0011812301
0.0011794099
0.0011778428
0.0011765244
0.0011754532
0.0011746504
0.001174001
0.0011735567
0.0011740308
0.0011718523
0.0011750158
1.2815318e-06
1.5473389e-05
1.3399888e-05
1.4501214e-05
1.4737361e-05
1.3601478e-05
1.6083328e-05
1.3245085e-05
1.4735405e-05
1.2780853e-05
1.3295368e-05
1.239846e-05
1.2564043e-05
1.2265427e-05
1.2391704e-05
1.2410175e-05
1.2610451e-05
1.2822958e-05
1.3088513e-05
1.3443853e-05
1.3879387e-05
1.4384179e-05
1.4970454e-05
1.5641676e-05
1.6408986e-05
1.7283957e-05
1.8282384e-05
1.9422959e-05
2.0729176e-05
2.22296e-05
2.3958846e-05
2.5958697e-05
2.8281558e-05
3.0990542e-05
3.4162627e-05
3.7891397e-05
4.2291371e-05
4.7503377e-05
5.4041118e-05
6.1459544e-05
7.0327664e-05
8.0925489e-05
9.3586535e-05
0.00010884135
0.00012725201
0.00014951212
0.00017651358
0.00020934651
0.0002493605
0.00029820237
0.00035787731
0.00043081848
0.00051998215
0.00062896572
0.00076216872
0.00092499269
0.0011240849
0.0012080344
0.0012064827
0.001204832
0.0012030659
0.0012011626
0.0011990923
0.0011968108
0.0011942459
0.00119127
0.0011881115
0.0011853906
0.0011830426
0.0011810107
0.0011792491
0.001177732
0.0011764493
0.0011754081
0.0011746236
0.0011739676
0.001173603
0.0011737941
0.0011720183
0.0011749425
1.1813894e-06
1.471778e-05
1.2345668e-05
1.2851873e-05
1.3693342e-05
1.2127965e-05
1.4525286e-05
1.1754868e-05
1.2978941e-05
1.1295325e-05
1.16723e-05
1.0951732e-05
1.1069779e-05
1.0857171e-05
1.0927045e-05
1.0965444e-05
1.1154328e-05
1.1372956e-05
1.1678419e-05
1.2037499e-05
1.2468313e-05
1.2965536e-05
1.3539227e-05
1.4194592e-05
1.4942123e-05
1.5793763e-05
1.6764953e-05
1.7874168e-05
1.9144351e-05
2.0603469e-05
2.2285326e-05
2.4230127e-05
2.6488656e-05
2.9121824e-05
3.2203727e-05
3.5824146e-05
4.0093465e-05
4.5148739e-05
5.1147518e-05
5.8295679e-05
6.683795e-05
7.7039943e-05
8.994016e-05
0.00010479261
0.00012273806
0.00014448499
0.00017091063
0.00020308806
0.00024233881
0.00029026372
0.00034881079
0.00042034372
0.00050774486
0.00061453298
0.00074502301
0.0009045146
0.0010995219
0.0012074005
0.0012058063
0.0012041195
0.0012023247
0.0012004023
0.0011983265
0.0011960607
0.0011935488
0.0011906959
0.001187637
0.0011850024
0.0011827314
0.0011807699
0.0011790733
0.0011776121
0.0011763719
0.0011753654
0.0011745952
0.0011739523
0.0011736504
0.0011736129
0.0011722045
0.001174856
1.0939789e-06
1.3881016e-05
1.1359405e-05
1.1356986e-05
1.2668533e-05
1.0781139e-05
1.2976582e-05
1.038974e-05
1.1340745e-05
9.9395852e-06
1.0195927e-05
9.6363861e-06
9.6526235e-06
9.4949502e-06
9.5961775e-06
9.681128e-06
9.8825467e-06
1.0119925e-05
1.043053e-05
1.0793914e-05
1.1222736e-05
1.1715513e-05
1.2280987e-05
1.2925572e-05
1.3659316e-05
1.4494396e-05
1.5445989e-05
1.6532309e-05
1.7775779e-05
1.9203794e-05
2.0849534e-05
2.2751624e-05
2.4959486e-05
2.7532166e-05
3.0541433e-05
3.4074115e-05
3.8237071e-05
4.316542e-05
4.9013013e-05
5.5984477e-05
6.4321334e-05
7.4283933e-05
8.6234022e-05
0.00010069156
0.00011820746
0.00014063148
0.00016668898
0.0001984386
0.00023718115
0.00028447964
0.00034224178
0.00041278569
0.00049894753
0.00060419606
0.00073278756
0.00088994509
0.001082079
0.0012067404
0.001205107
0.0012033871
0.0012015665
0.0011996273
0.0011975468
0.0011952949
0.0011928275
0.0011900748
0.001187125
0.0011845849
0.0011823974
0.0011805117
0.0011788854
0.0011774856
0.0011762949
0.0011753267
0.0011745703
0.0011739542
0.0011736981
0.0011734888
0.0011724063
0.0011747781
1.0175003e-06
1.2936628e-05
1.043282e-05
1.0002349e-05
1.1647703e-05
9.5482689e-06
1.1451732e-05
9.1396168e-06
9.8335772e-06
8.7049831e-06
8.7871671e-06
8.3334602e-06
8.3792935e-06
8.3063289e-06
8.4241202e-06
8.5470294e-06
8.7611732e-06
9.0148307e-06
9.3318123e-06
9.7004096e-06
1.012988e-05
1.0621268e-05
1.1182565e-05
1.1821046e-05
1.2546424e-05
1.3371013e-05
1.4309778e-05
1.5380657e-05
1.6605547e-05
1.8011267e-05
1.9561167e-05
2.1416724e-05
2.3568876e-05
2.6074835e-05
2.9004254e-05
3.2441575e-05
3.6694328e-05
4.1526557e-05
4.7261737e-05
5.410551e-05
6.2305474e-05
7.2109739e-05
8.3884554e-05
9.8156798e-05
0.00011549414
0.00013657232
0.0001622455
0.00019521608
0.00023366535
0.00028059151
0.00033787811
0.00040781833
0.00049322239
0.00059752885
0.00072495371
0.00088066539
0.0010709998
0.0012060502
0.0012043817
0.0012026329
0.0012007902
0.0011988374
0.0011967545
0.001194516
0.0011920871
0.0011894167
0.001186584
0.0011841451
0.0011820464
0.0011802409
0.0011786884
0.0011773546
0.0011762201
0.0011752938
0.0011745534
0.0011739724
0.0011737454
0.0011734159
0.0011726129
0.0011747283
9.5091033e-07
1.1871064e-05
9.5593893e-06
8.7738685e-06
1.0629713e-05
8.4169864e-06
9.9733264e-06
7.9951083e-06
8.4643766e-06
7.4627479e-06
7.5114958e-06
7.2094211e-06
7.2668785e-06
7.2616157e-06
7.3965971e-06
7.5507504e-06
7.7779689e-06
8.0463152e-06
8.3709448e-06
8.7459342e-06
9.1785807e-06
9.67153e-06
1.0232364e-05
1.0847565e-05
1.1563501e-05
1.2376516e-05
1.33011e-05
1.4354629e-05
1.5558194e-05
1.6937567e-05
1.852388e-05
2.035494e-05
2.2476758e-05
2.4945645e-05
2.7830337e-05
3.1214912e-05
3.5204781e-05
3.9929404e-05
4.5541471e-05
5.2250755e-05
6.0310805e-05
7.047933e-05
8.2161344e-05
9.6351956e-05
0.00011361944
0.00013462538
0.00016022259
0.00019143149
0.00023159564
0.00027837832
0.0003354729
0.00040516325
0.00049024787
0.00059414945
0.0007210593
0.00087611278
0.0010656016
0.0012053275
0.0012036288
0.0012018557
0.0011999956
0.0011980334
0.0011959512
0.0011937272
0.0011913336
0.0011887322
0.0011860226
0.0011836901
0.0011816844
0.0011799622
0.0011784857
0.001177221
0.0011761482
0.0011752673
0.0011745482
0.0011740058
0.0011737912
0.0011733849
0.0011728204
0.0011747086
8.9369474e-07
1.068215e-05
8.7334574e-06
7.658307e-06
9.5896642e-06
7.3781245e-06
8.5700326e-06
6.8963812e-06
7.06769e-06
6.3729585e-06
6.4095256e-06
6.2272666e-06
6.2999454e-06
6.3486864e-06
6.5013694e-06
6.6817063e-06
6.9223548e-06
7.2044957e-06
7.5380384e-06
7.9207519e-06
8.3438787e-06
8.8367504e-06
9.3960848e-06
1.0029499e-05
1.0746774e-05
1.1559604e-05
1.2482357e-05
1.3532181e-05
1.4729725e-05
1.6100346e-05
1.7674648e-05
1.948986e-05
2.1591518e-05
2.403553e-05
2.6890329e-05
3.024034e-05
3.4192466e-05
3.8875821e-05
4.444352e-05
5.1116625e-05
5.9153273e-05
6.8763997e-05
8.0324764e-05
9.4409337e-05
0.00011249358
0.0001335324
0.00015916988
0.00019042582
0.000228553
0.00027764709
0.00033480769
0.00040456769
0.00048972452
0.00059369701
0.00072066684
0.00087575759
0.0010652461
0.0012045714
0.0012028479
0.0012010558
0.0011991834
0.0011972167
0.0011951394
0.0011929326
0.0011905731
0.0011880318
0.0011854495
0.0011832271
0.0011813174
0.0011796802
0.0011782805
0.0011770864
0.0011760786
0.0011752467
0.0011745564
0.0011740537
0.0011738357
0.0011733857
0.0011730199
0.0011747109
8.4565127e-07
9.3776329e-06
7.9494879e-06
6.6439164e-06
8.5105022e-06
6.425429e-06
7.269528e-06
5.8065545e-06
5.9044117e-06
5.4271622e-06
5.4629242e-06
5.3743717e-06
5.4650651e-06
5.5571021e-06
5.7277339e-06
5.9305622e-06
6.1849611e-06
6.4805079e-06
6.8108478e-06
7.1992699e-06
7.6416983e-06
8.1426443e-06
8.7088151e-06
9.3480753e-06
1.0070196e-05
1.0886787e-05
1.1812078e-05
1.2863064e-05
1.4059937e-05
1.5427783e-05
1.6996873e-05
1.8804183e-05
2.0895228e-05
2.3326055e-05
2.6165468e-05
2.9499528e-05
3.343718e-05
3.8106604e-05
4.3664845e-05
5.0348968e-05
5.8406e-05
6.8020688e-05
7.9605962e-05
9.3765427e-05
0.00011102251
0.0001320213
0.00015896375
0.00019038736
0.00022871389
0.0002754659
0.00033567042
0.00040578023
0.00049134997
0.00059580628
0.00072333534
0.0008790697
0.0010692974
0.0012037828
0.0012020402
0.0012002347
0.0011983554
0.0011963895
0.0011943221
0.0011921362
0.001189812
0.0011873262
0.0011848733
0.001182763
0.0011809509
0.0011793995
0.0011780762
0.0011769522
0.0011760099
0.0011752295
0.001174577
0.0011741148
0.0011738847
0.0011734194
0.0011732193
0.001174713
8.0767262e-07
7.974313e-06
7.2072795e-06
5.7216854e-06
7.3876487e-06
5.5522217e-06
5.883185e-06
4.8672283e-06
4.9194832e-06
4.6113624e-06
4.6553708e-06
4.6397409e-06
4.7503709e-06
4.8775988e-06
5.0661518e-06
5.2888763e-06
5.5462029e-06
5.8523002e-06
6.2047021e-06
6.6050393e-06
7.0580624e-06
7.5688598e-06
8.1441959e-06
8.7920473e-06
9.5221618e-06
1.034598e-05
1.1277595e-05
1.231114e-05
1.3504731e-05
1.4866103e-05
1.6425061e-05
1.8218283e-05
2.0291226e-05
2.2700041e-05
2.5514109e-05
2.8821516e-05
3.2732232e-05
3.7373102e-05
4.2910475e-05
4.9914994e-05
5.8017803e-05
6.7666191e-05
7.9336674e-05
9.3632552e-05
0.00011103749
0.00013222273
0.00015803541
0.00019117451
0.00022982814
0.00027697963
0.00033449978
0.00040853121
0.00049479861
0.00060008551
0.00072859436
0.00088548515
0.00107708
0.001202964
0.0012012083
0.0011993952
0.0011975146
0.0011955551
0.001193503
0.0011913428
0.0011890568
0.0011866254
0.001184302
0.0011823042
0.0011805899
0.001179124
0.0011778756
0.0011768198
0.0011759403
0.0011752114
0.0011746037
0.001174184
0.001173942
0.0011734799
0.0011734097
0.0011747045
7.824921e-07
6.6337463e-06
6.5120755e-06
4.889352e-06
6.259553e-06
4.5978805e-06
4.9768773e-06
4.0664535e-06
4.0907391e-06
3.9128999e-06
3.9726794e-06
4.0138945e-06
4.1454226e-06
4.3018876e-06
4.4998557e-06
4.7376566e-06
5.018265e-06
5.3395568e-06
5.7052353e-06
6.1181154e-06
6.5830208e-06
7.1053866e-06
7.6920034e-06
8.3508529e-06
9.0810725e-06
9.9112437e-06
1.0847529e-05
1.1906265e-05
1.3107332e-05
1.4475033e-05
1.6039277e-05
1.7837136e-05
1.9914742e-05
2.2329103e-05
2.5151385e-05
2.8472749e-05
3.2404116e-05
3.7073085e-05
4.2661315e-05
4.9419775e-05
5.7516194e-05
6.7643246e-05
7.9452153e-05
9.3920447e-05
0.00011151971
0.00013294958
0.00015905493
0.00019087727
0.0002317218
0.00027940205
0.00033755692
0.00040850528
0.00049970919
0.00060610134
0.00073592439
0.00089438116
0.001087847
0.0012021196
0.0012003567
0.0011985415
0.0011966652
0.0011947173
0.0011926859
0.0011905568
0.0011883138
0.0011859387
0.0011837429
0.001181856
0.0011802385
0.0011788567
0.0011776815
0.001176691
0.0011758695
0.0011751883
0.0011746283
0.0011742534
0.0011740025
0.0011735479
0.0011735936
0.0011746839
7.7380336e-07
5.4090255e-06
5.8468212e-06
4.2775852e-06
5.818356e-06
3.7952961e-06
3.8376663e-06
3.3784318e-06
3.4041883e-06
3.3225224e-06
3.4029978e-06
3.4892394e-06
3.6415092e-06
3.8146305e-06
4.035426e-06
4.2920434e-06
4.5881058e-06
4.9239237e-06
5.3031271e-06
5.7292606e-06
6.207234e-06
6.7426709e-06
7.3365159e-06
8.0060332e-06
8.7566432e-06
9.5994502e-06
1.0547829e-05
1.1618005e-05
1.282983e-05
1.4207705e-05
1.578188e-05
1.7590085e-05
1.9679284e-05
2.2107564e-05
2.4948643e-05
2.8296688e-05
3.226158e-05
3.6973314e-05
4.2632868e-05
4.9483266e-05
5.7650695e-05
6.738609e-05
7.9861097e-05
9.4528454e-05
0.00011236227
0.00013408217
0.00016053544
0.00019277968
0.00023420075
0.00028250223
0.00034140157
0.00041324005
0.0005056686
0.00061335755
0.00074473029
0.00090504314
0.0011007389
0.0012012557
0.0011994912
0.0011976793
0.0011958121
0.0011938807
0.0011918748
0.0011897821
0.0011875879
0.0011852743
0.0011832022
0.0011814231
0.0011798996
0.0011785995
0.0011774952
0.0011765669
0.0011757978
0.001175159
0.0011746441
0.0011743076
0.001174046
0.0011736154
0.0011737714
0.0011746529
7.8398953e-07
5.2938376e-06
5.1957407e-06
4.8957251e-06
4.9320044e-06
3.0182282e-06
3.1119465e-06
2.8029733e-06
2.8411284e-06
2.8348832e-06
2.9367659e-06
3.0588717e-06
3.2238694e-06
3.424116e-06
3.6625712e-06
3.9356036e-06
4.2462277e-06
4.5962049e-06
4.9892291e-06
5.4292611e-06
5.9212587e-06
6.4670221e-06
7.0794067e-06
7.7635788e-06
8.5287173e-06
9.3857991e-06
1.0348083e-05
1.1431757e-05
1.2656729e-05
1.4047653e-05
1.5635303e-05
1.7458213e-05
1.9564186e-05
2.2012885e-05
2.488123e-05
2.826477e-05
3.2270056e-05
3.7037042e-05
4.2791663e-05
4.9743248e-05
5.7970006e-05
6.8302529e-05
8.0474216e-05
9.5364241e-05
0.00011345819
0.00013549473
0.00016232918
0.00019503317
0.00023703927
0.00028600904
0.00034570953
0.00041850652
0.00051219131
0.00062127142
0.00075431178
0.0009166289
0.0011147415
0.0012003799
0.0011986194
0.0011968157
0.0011949619
0.0011930506
0.0011910733
0.0011890205
0.0011868806
0.0011846388
0.0011826847
0.0011810086
0.0011795749
0.0011783529
0.0011773165
0.0011764471
0.0011757258
0.0011751252
0.0011746492
0.0011743367
0.0011740613
0.0011736716
0.0011738793
0.001174601
8.0426159e-07
5.5128672e-06
4.5474632e-06
3.3264807e-06
3.1545188e-06
2.4998043e-06
2.4917563e-06
2.3444112e-06
2.3902234e-06
2.4410171e-06
2.5639926e-06
2.7091939e-06
2.897058e-06
3.1164983e-06
3.3705003e-06
3.6583722e-06
3.9830216e-06
4.3470173e-06
4.7541193e-06
5.2084891e-06
5.7129674e-06
6.2764521e-06
6.9041204e-06
7.6036216e-06
8.3840168e-06
9.2561765e-06
1.0233292e-05
1.1331565e-05
1.2571049e-05
1.3976779e-05
1.5580168e-05
1.7420506e-05
1.9546574e-05
2.202036e-05
2.4921681e-05
2.8344108e-05
3.2393006e-05
3.7232022e-05
4.3099657e-05
5.0119966e-05
5.8775958e-05
6.8830271e-05
8.1228279e-05
9.6333066e-05
0.00011469124
0.00013704238
0.00016426176
0.00019742723
0.00023997372
0.00028960577
0.00035010026
0.00042384763
0.00051871209
0.00062916369
0.00076385136
0.00092815332
0.0011286664
0.0011995015
0.0011977505
0.0011959597
0.0011941233
0.0011922347
0.0011902871
0.0011882732
0.001186185
0.0011840373
0.0011821936
0.0011806141
0.0011792648
0.0011781159
0.0011771435
0.0011763289
0.0011756516
0.0011750875
0.0011746465
0.0011743475
0.0011740595
0.0011737172
0.0011739443
0.0011745091
6.0310795e-07
4.5620793e-06
3.5043233e-06
2.4448372e-06
2.4414085e-06
2.0274844e-06
2.0206676e-06
1.9651338e-06
2.0357356e-06
2.127224e-06
2.2716066e-06
2.4399684e-06
2.6455218e-06
2.8812479e-06
3.1495805e-06
3.4514776e-06
3.7898914e-06
4.1678175e-06
4.5890452e-06
5.057803e-06
5.5789968e-06
6.1562813e-06
6.7991469e-06
7.5138708e-06
8.3094176e-06
9.196576e-06
1.0188528e-05
1.1301539e-05
1.2555884e-05
1.3977007e-05
1.5596946e-05
1.7455688e-05
1.9603353e-05
2.2104656e-05
2.5040324e-05
2.849976e-05
3.25963e-05
3.7721204e-05
4.3726684e-05
5.0817559e-05
5.9185905e-05
6.9423982e-05
8.2016193e-05
9.7309117e-05
0.00011591691
0.00013855814
0.00016613412
0.00020147679
0.00024270276
0.00029292948
0.00035413553
0.00042873452
0.00052457119
0.00063623773
0.0007723866
0.0009384525
0.0011411026
0.0011986312
0.0011968949
0.0011951223
0.0011933075
0.0011914449
0.0011895282
0.0011875508
0.0011855057
0.0011834736
0.0011817311
0.0011802403
0.0011789684
0.001177887
0.0011769734
0.0011762089
0.0011755718
0.0011750426
0.0011746327
0.0011743419
0.0011740476
0.0011737506
0.001173958
0.001174349
4.6334187e-07
2.4776807e-06
2.7417019e-06
1.9277031e-06
1.8863619e-06
1.6498975e-06
1.6593247e-06
1.6696647e-06
1.7647397e-06
1.8874656e-06
2.0504329e-06
2.2386916e-06
2.4591476e-06
2.7090028e-06
2.9905287e-06
3.3055773e-06
3.6571141e-06
4.0483245e-06
4.4829751e-06
4.965292e-06
5.5001198e-06
6.0930043e-06
6.7503788e-06
7.4797954e-06
8.2902536e-06
9.1926406e-06
1.0200303e-05
1.1329794e-05
1.2601842e-05
1.4042596e-05
1.5684922e-05
1.7569747e-05
1.9749246e-05
2.2290835e-05
2.5273405e-05
2.8784438e-05
3.2958366e-05
3.8003107e-05
4.4049451e-05
5.1116671e-05
5.9546224e-05
6.9949166e-05
8.268901e-05
9.8147301e-05
0.00011695345
0.00014100706
0.00016906571
0.00020322461
0.00024482544
0.00029549848
0.00035723578
0.00043655197
0.0005289049
0.00064145717
0.00077867312
0.00094602998
0.0011502481
0.0011977796
0.0011960636
0.001194314
0.001192526
0.0011906943
0.0011888132
0.0011868771
0.0011848797
0.0011829504
0.001181298
0.0011798863
0.0011786836
0.0011776629
0.0011768023
0.0011760828
0.0011754826
0.0011749867
0.0011746043
0.0011743208
0.0011740334
0.0011737843
0.0011739591
0.0011742121
3.7201196e-07
1.9375328e-06
2.0588477e-06
1.5298328e-06
1.4775096e-06
1.3580335e-06
1.3879781e-06
1.4457683e-06
1.5626874e-06
1.7086392e-06
1.8869243e-06
2.0910712e-06
2.323905e-06
2.5857105e-06
2.8787121e-06
3.2051799e-06
3.5680543e-06
3.9705897e-06
4.4165253e-06
4.9100749e-06
5.4560469e-06
6.0599439e-06
6.7281386e-06
7.4681095e-06
8.2887738e-06
9.2009418e-06
1.0217905e-05
1.1356241e-05
1.263688e-05
1.4086268e-05
1.5737441e-05
1.763204e-05
1.9824234e-05
2.2381318e-05
2.5376993e-05
2.8905016e-05
3.3128006e-05
3.822991e-05
4.423756e-05
5.1248837e-05
5.9775794e-05
7.0833468e-05
8.3753241e-05
9.9429152e-05
0.00011848386
0.00014165543
0.00016985213
0.00020417599
0.00024597177
0.00029687452
0.00036215286
0.00043823352
0.00053092128
0.00064387479
0.00078157482
0.00094952007
0.0011544584
0.0011969589
0.0011952675
0.0011935454
0.0011917881
0.0011899909
0.0011881489
0.001186257
0.0011843099
0.0011824687
0.0011808937
0.0011795498
0.0011784066
0.0011774383
0.0011766235
0.0011759428
0.0011753756
0.00117491
0.0011745508
0.0011742739
0.0011740007
0.001173796
0.001173932
0.0011740668
2.7890106e-07
1.4863583e-06
1.5244064e-06
1.23327e-06
1.1769245e-06
1.1371735e-06
1.1910972e-06
1.2850021e-06
1.4221461e-06
1.5872042e-06
1.7797976e-06
1.9979669e-06
2.2432131e-06
2.5169451e-06
2.821451e-06
3.1589902e-06
3.5329355e-06
3.9464005e-06
4.403122e-06
4.907312e-06
5.4637535e-06
6.0779044e-06
6.7560713e-06
7.5056523e-06
8.3354877e-06
9.2563357e-06
1.0281496e-05
1.1427654e-05
1.2715935e-05
1.4172897e-05
1.583179e-05
1.7735484e-05
1.99393e-05
2.2506557e-05
2.559889e-05
2.917116e-05
3.347212e-05
3.8602624e-05
4.4553655e-05
5.1603225e-05
6.0305341e-05
7.0975704e-05
8.3898213e-05
9.9595166e-05
0.00011865997
0.00014184408
0.00017004574
0.00020619071
0.0002482787
0.00029951044
0.00036188702
0.00043785211
0.00053039123
0.0006431563
0.00078062091
0.00094827574
0.0011528601
0.0011961769
0.0011945139
0.0011928227
0.0011910992
0.0011893393
0.0011875385
0.0011856923
0.0011837961
0.0011820266
0.0011805145
0.001179226
0.0011781313
0.0011772057
0.001176428
0.0011757789
0.0011752391
0.0011747988
0.0011744574
0.0011741867
0.0011739323
0.0011737619
0.001173848
0.0011738839
2.1270444e-07
1.2106894e-06
1.1008764e-06
9.9707287e-07
9.6094694e-07
9.7268703e-07
1.0483368e-06
1.165908e-06
1.3163359e-06
1.4923682e-06
1.6927764e-06
1.9176925e-06
2.1685922e-06
2.4472726e-06
2.7558001e-06
3.09672e-06
3.4729958e-06
3.8879512e-06
4.3453216e-06
4.8493116e-06
5.404686e-06
6.0168762e-06
6.6921507e-06
7.4378752e-06
8.262863e-06
9.1778509e-06
1.0196139e-05
1.1334427e-05
1.2613755e-05
1.4060463e-05
1.570798e-05
1.760007e-05
1.9790149e-05
2.2335392e-05
2.5313218e-05
2.8862061e-05
3.3124953e-05
3.8105122e-05
4.3881071e-05
5.0892293e-05
5.9561194e-05
7.0091484e-05
8.348134e-05
9.9081872e-05
0.0001180274
0.00014105806
0.00016906842
0.00020315092
0.00024463542
0.00029514405
0.00035665575
0.00043158777
0.00052289483
0.00063419255
0.00076991204
0.00093549394
0.0011376186
0.0011954635
0.0011938329
0.001192176
0.0011904892
0.0011887687
0.0011870108
0.0011852117
0.0011833675
0.0011816468
0.0011801779
0.0011789275
0.0011778664
0.0011769702
0.0011762179
0.00117559
0.0011750691
0.0011746458
0.0011743142
0.0011740473
0.0011738118
0.0011736664