/*--------------------------------*- C++ -*----------------------------------*\
  =========                 |
  \\      /  F ield         | OpenFOAM: The Open Source CFD Toolbox
   \\    /   O peration     | Website:  https://openfoam.org
    \\  /    A nd           | Version:  6
     \\/     M anipulation  |
\*---------------------------------------------------------------------------*/
FoamFile
{
    version     2.0;
    format      ascii;
    class       volScalarField;
    location    "150";
    object      k;
}
// * * * * * * * * * * * * * * * * * * * * * * * * * * * * * * * * * * * * * //

dimensions      [0 2 -2 0 0 0 0];

internalField   nonuniform List<scalar> 
16000
(
0.10314324
0.031500262
0.023385034
0.017381992
0.015453332
0.014129491
0.013275678
0.012811729
0.012390525
0.012115106
0.011868806
0.011674558
0.011517152
0.011392798
0.011290979
0.011207502
0.011137707
0.011079007
0.01102902
0.010986165
0.010949112
0.010916875
0.010888642
0.010863783
0.01084178
0.010822218
0.010804753
0.010789099
0.010775015
0.0107623
0.010750771
0.010740259
0.010730508
0.010721563
0.010713223
0.01070548
0.010698303
0.010691581
0.010685227
0.010679175
0.010673323
0.010667568
0.010661827
0.010656045
0.010650174
0.010644148
0.010637895
0.010631342
0.010624416
0.010617039
0.01060913
0.010600601
0.010591359
0.010581295
0.010570282
0.010558149
0.010544666
0.010529511
0.010512194
0.010491676
0.010464943
0.010429496
0.01038507
0.010332567
0.010276053
0.010221484
0.010173515
0.010132519
0.010097556
0.010067697
0.010042658
0.010022753
0.010007088
0.0099990378
0.0099911025
0.010002811
0.010000784
0.010042659
0.010001296
0.010049514
0.089581491
0.032040171
0.022794184
0.017206345
0.015211761
0.014010694
0.013136886
0.012706954
0.012286128
0.0120196
0.011779226
0.011595963
0.011449169
0.011333333
0.011238404
0.011160624
0.011095584
0.011040908
0.010994356
0.010954456
0.010919966
0.010889965
0.010863692
0.010840557
0.010820076
0.010801859
0.010785582
0.010770978
0.01075782
0.010745918
0.01073511
0.010725253
0.01071622
0.010707876
0.010699999
0.010692625
0.010685611
0.010679042
0.010672804
0.010666824
0.010661006
0.010655253
0.010649475
0.01064362
0.01063765
0.010631505
0.010625116
0.010618415
0.010611332
0.010603794
0.010595723
0.010587035
0.01057764
0.010567434
0.010556296
0.010544075
0.010530561
0.010515482
0.010498472
0.010478946
0.01045562
0.010424786
0.010384112
0.010333984
0.010278196
0.010223278
0.010174735
0.010133381
0.010098153
0.01006815
0.010042997
0.010022914
0.010007205
0.0099984517
0.0099904757
0.0099999291
0.0099976948
0.010040799
0.010002176
0.010049989
0.080583603
0.032595838
0.022095812
0.017011113
0.014961991
0.013880321
0.012996164
0.012596501
0.012181541
0.011921145
0.011691727
0.011521594
0.01138502
0.011277351
0.011189063
0.011116764
0.011056309
0.01100551
0.01096227
0.01092522
0.0108932
0.010865351
0.010840964
0.010819485
0.010800462
0.01078353
0.010768387
0.01075478
0.010742498
0.010731361
0.010721217
0.010711932
0.010703391
0.010695486
0.010688116
0.01068113
0.010674417
0.010667914
0.010661712
0.010655754
0.01064992
0.010644113
0.010638247
0.010632266
0.010626143
0.010619823
0.010613244
0.010606339
0.010599045
0.010591291
0.010583003
0.010574102
0.0105645
0.010554097
0.010542778
0.010530402
0.010516782
0.010501667
0.010484744
0.010465579
0.010443412
0.010416568
0.010380439
0.010333435
0.010278967
0.010224045
0.01017517
0.010133642
0.010098313
0.010068313
0.010043165
0.01002306
0.010007429
0.0099982827
0.0099904946
0.009998079
0.0099962016
0.010038962
0.010000548
0.010046037
0.072641698
0.033050657
0.021379779
0.0167959
0.014710823
0.013735959
0.012856348
0.012477969
0.012077545
0.01182177
0.011608916
0.011451257
0.011324514
0.011224655
0.011142756
0.011075716
0.011019672
0.010972597
0.010932541
0.010898228
0.01086858
0.010842795
0.010820213
0.010800318
0.010782686
0.010766977
0.010752906
0.010740239
0.010728777
0.010718351
0.010708817
0.01070005
0.010691944
0.0106844
0.010677326
0.010670637
0.010664235
0.01065792
0.010651697
0.010645689
0.010639799
0.010633893
0.010627891
0.010621738
0.010615416
0.010608877
0.010602062
0.01059491
0.010587361
0.010579347
0.010570799
0.010561641
0.010551789
0.010541146
0.010529602
0.010517024
0.010503241
0.010488022
0.01047108
0.010452051
0.010430363
0.010404943
0.01037333
0.010330291
0.010277824
0.010223302
0.010174372
0.010132883
0.010097658
0.01006781
0.010042828
0.010022796
0.010007405
0.0099979373
0.0099907173
0.0099962571
0.009995149
0.010033886
0.010000751
0.010043519
0.065634329
0.033328818
0.0206603
0.016559537
0.014460099
0.01357709
0.012718153
0.012351044
0.011973917
0.01172789
0.011530929
0.011385105
0.011267801
0.011175404
0.011099641
0.011037642
0.010985835
0.010942334
0.010905334
0.010873646
0.010846269
0.010822459
0.010801601
0.010783213
0.010766901
0.010752346
0.010739283
0.010727492
0.010716787
0.01070701
0.010698024
0.010689715
0.01068198
0.010674729
0.010667879
0.010661353
0.010655074
0.010648956
0.010642824
0.010636668
0.010630655
0.010624606
0.010618412
0.010612036
0.010605464
0.010598655
0.010591557
0.010584111
0.01057626
0.010567941
0.010559089
0.010549631
0.010539485
0.010528559
0.010516748
0.010503925
0.01048993
0.01047455
0.010457518
0.010438512
0.01041706
0.010392372
0.010362869
0.010324687
0.010274951
0.010221247
0.010172521
0.01013128
0.010096341
0.010066795
0.010042112
0.010022264
0.010007181
0.0099975209
0.0099909567
0.0099946566
0.009994507
0.010029364
0.010000756
0.010039794
0.059452225
0.033330657
0.019950657
0.016300915
0.014212229
0.013402919
0.012582417
0.01221508
0.011869627
0.0116395
0.011457753
0.011323145
0.011214883
0.011129603
0.011059721
0.011002546
0.010954798
0.010914719
0.010880645
0.010851465
0.010826258
0.010804329
0.010785108
0.010768146
0.010753077
0.010739602
0.010727474
0.010716489
0.010706472
0.010697275
0.01068877
0.010680849
0.010673419
0.010666393
0.010659696
0.01065326
0.010647017
0.010640898
0.010634829
0.010628614
0.010622365
0.010616126
0.010609695
0.010603042
0.010596174
0.010589048
0.010581622
0.010573837
0.010565643
0.010556979
0.010547783
0.010537986
0.010527509
0.010516266
0.010504152
0.010491047
0.0104768
0.010461215
0.010444041
0.010424983
0.010403638
0.010379369
0.010351058
0.010316433
0.010270258
0.01021783
0.01016957
0.010128789
0.010094316
0.010065225
0.010040962
0.01002142
0.010006679
0.0099969736
0.0099910612
0.0099932057
0.0099940195
0.01002457
0.010001325
0.010037159
0.053999058
0.032953107
0.019263571
0.016019254
0.013969338
0.013213062
0.01244983
0.01208563
0.011768362
0.011556663
0.011389435
0.011265449
0.01116583
0.011087332
0.011023074
0.010970507
0.010926641
0.010889829
0.010858548
0.01083176
0.010808615
0.010788468
0.010770793
0.010755171
0.01074126
0.010728784
0.010717512
0.010707254
0.010697845
0.01068915
0.010681049
0.01067344
0.010666237
0.010659361
0.010652743
0.01064632
0.010640033
0.010633824
0.010627631
0.010621371
0.010614868
0.010608376
0.010601666
0.010594681
0.010587467
0.010579979
0.01057218
0.010564016
0.010555439
0.010546393
0.010536818
0.010526648
0.010515808
0.010504214
0.010491766
0.010478349
0.010463818
0.010447992
0.010430635
0.010411475
0.010390153
0.010366133
0.010338526
0.010305654
0.010263784
0.010213126
0.010165581
0.010125464
0.010091626
0.010063139
0.010039415
0.010020295
0.010005922
0.0099963085
0.0099909765
0.0099919079
0.0099936564
0.010020235
0.010001506
0.010034386
0.04918876
0.032087132
0.018609978
0.015713783
0.013733063
0.013007119
0.012319437
0.011964416
0.011673864
0.011479406
0.011325997
0.011212068
0.011120688
0.011048647
0.010989754
0.010941582
0.010901418
0.010867718
0.010839092
0.010814573
0.010793378
0.01077491
0.010758682
0.010744304
0.010731459
0.01071989
0.010709384
0.010699762
0.010690875
0.010682593
0.010674806
0.010667422
0.010660361
0.010653551
0.01064693
0.010640441
0.010634032
0.010627654
0.010621256
0.010614772
0.010608115
0.010601247
0.010594212
0.010586847
0.010579239
0.010571345
0.010563134
0.010554554
0.01054556
0.0105361
0.010526116
0.010515545
0.010504315
0.010492345
0.010479539
0.010465786
0.010450947
0.010434854
0.010417283
0.010397984
0.010376632
0.010352765
0.010325662
0.010294071
0.01025553
0.010207194
0.010160601
0.010121341
0.010088299
0.010060553
0.010037486
0.010018897
0.010004924
0.0099955209
0.0099906729
0.0099907286
0.0099932355
0.010015442
0.010001701
0.010031933
0.044946133
0.030716855
0.017998825
0.015383182
0.013504773
0.012801625
0.012189861
0.011851409
0.011586096
0.01140778
0.011267485
0.011163075
0.011079531
0.011013628
0.010959841
0.010915849
0.010879203
0.010848457
0.010822344
0.010799965
0.010780601
0.010763698
0.010748806
0.010735566
0.010723684
0.01071292
0.010703077
0.010693991
0.010685521
0.010677552
0.010669981
0.010662725
0.01065571
0.010648873
0.010642158
0.010635517
0.010628903
0.010622277
0.010615592
0.010608807
0.010601882
0.010594617
0.010587215
0.010579429
0.010571385
0.010563049
0.010554391
0.010545363
0.010535924
0.010526024
0.010515607
0.010504613
0.010492972
0.010480607
0.010467426
0.010453319
0.010438156
0.010421775
0.010403972
0.010384508
0.01036309
0.010339313
0.010312572
0.010281884
0.010245508
0.010200133
0.010154711
0.010116487
0.010084388
0.010057509
0.010035211
0.010017254
0.010003725
0.0099946253
0.009990163
0.0099896679
0.0099928081
0.01001106
0.010001648
0.010029328
0.041205299
0.029107973
0.01742961
0.015025494
0.013285086
0.012610008
0.012059605
0.011746551
0.011505009
0.011341828
0.011213942
0.011118543
0.011042431
0.010982354
0.010933411
0.010893385
0.010860069
0.010832113
0.010808362
0.010787985
0.010770322
0.010754859
0.010741183
0.010728962
0.010717922
0.010707846
0.010698549
0.010689881
0.010681714
0.010673944
0.010666477
0.010659239
0.010652165
0.010645201
0.010638298
0.010631414
0.010624511
0.010617555
0.01061051
0.010603344
0.010596009
0.010588385
0.010580558
0.010572313
0.010563795
0.010554985
0.01054585
0.010536351
0.010526445
0.010516085
0.010505218
0.010493786
0.010481723
0.010468951
0.010455382
0.010440911
0.010425414
0.010408738
0.010390689
0.010371046
0.01034954
0.010325814
0.010299352
0.01026935
0.010234434
0.010192058
0.010148005
0.010110978
0.010079955
0.010054056
0.010032632
0.010015396
0.010002367
0.00999364
0.0099894729
0.0099887082
0.0099923583
0.010007057
0.01000148
0.010026656
0.037905066
0.027654699
0.016879431
0.014640082
0.013073685
0.012432632
0.011935219
0.011649809
0.01143057
0.011281598
0.01116542
0.011078546
0.011009465
0.01095491
0.010910547
0.010874269
0.010844091
0.010818751
0.010797203
0.010778679
0.010762571
0.010748408
0.01073581
0.01072447
0.010714138
0.010704612
0.010695727
0.010687344
0.01067935
0.01067165
0.010664164
0.010656825
0.01064958
0.010642382
0.010635191
0.010627973
0.010620697
0.010613336
0.010605863
0.010598252
0.010590451
0.010582429
0.010574116
0.010565377
0.010556355
0.010547046
0.010537416
0.010527428
0.010517041
0.010506211
0.010494885
0.010483008
0.010470514
0.01045733
0.010443371
0.010428534
0.010412701
0.010395726
0.010377429
0.010357602
0.010335999
0.010312302
0.010286072
0.010256651
0.010222966
0.010183106
0.010140598
0.010104911
0.010075077
0.010050256
0.010029799
0.010013367
0.010000903
0.0099925967
0.0099886515
0.009987841
0.0099918781
0.010003537
0.010001154
0.010024121
0.034986105
0.026321776
0.016355435
0.014242035
0.012869265
0.012269405
0.011821035
0.011561139
0.011362757
0.011227143
0.011121982
0.011043171
0.010980723
0.010931387
0.010891339
0.010858584
0.010831341
0.010808434
0.010788913
0.010772073
0.010757359
0.010744334
0.010732654
0.010722036
0.010712253
0.010703122
0.010694494
0.010686246
0.010678277
0.010670507
0.010662868
0.010655302
0.010647767
0.010640226
0.010632648
0.010625006
0.010617278
0.010609442
0.010601479
0.010593368
0.010585064
0.010576589
0.010567748
0.010558494
0.010548952
0.010539128
0.010528993
0.010518508
0.010507636
0.010496332
0.010484547
0.010472225
0.010459304
0.010445711
0.010431364
0.010416166
0.010400002
0.010382734
0.010364195
0.010344188
0.010322489
0.010298812
0.010272781
0.010243859
0.010211215
0.010173436
0.010132621
0.010098395
0.010069847
0.010046183
0.010026768
0.010011211
0.0099993867
0.009991535
0.0099877617
0.0099870631
0.0099913682
0.010000571
0.01000079
0.010021315
0.032397599
0.025079529
0.0158571
0.013879819
0.012669711
0.012119841
0.011716749
0.011480485
0.01130156
0.011178521
0.011083706
0.011012512
0.010956303
0.010911884
0.010875877
0.010846411
0.010821883
0.010801207
0.010783519
0.010768173
0.010754663
0.010742589
0.010731639
0.010721558
0.010712141
0.010703226
0.010694681
0.010686399
0.010678296
0.010670304
0.010662369
0.010654446
0.010646504
0.010638514
0.010630454
0.010622307
0.010614055
0.010605683
0.010597178
0.010588524
0.010579683
0.01057069
0.010561328
0.010551546
0.010541477
0.010531136
0.010520495
0.010509516
0.010498164
0.010486393
0.010474156
0.010461398
0.010448057
0.010434065
0.010419342
0.010403793
0.010387311
0.010369764
0.010350995
0.010330821
0.010309036
0.010285383
0.010259535
0.010231052
0.010199291
0.010163221
0.010124221
0.010091554
0.010064367
0.01004192
0.010023602
0.010008979
0.0099978695
0.0099905007
0.0099868764
0.0099863786
0.0099908313
0.0099981806
0.010000471
0.010018646
0.030095946
0.023897665
0.015383753
0.01355145
0.012478377
0.011983542
0.011622132
0.011407829
0.011247015
0.01113582
0.011050695
0.010986683
0.010936317
0.010896504
0.010864258
0.010837826
0.010815772
0.010797094
0.010781012
0.010766935
0.010754405
0.010743061
0.010732623
0.010722864
0.010713604
0.010704702
0.010696046
0.010687549
0.010679141
0.01067077
0.010662398
0.010653992
0.01064553
0.010636994
0.010628371
0.010619649
0.010610817
0.010601864
0.010592784
0.010583558
0.010574156
0.010564616
0.010554747
0.010544428
0.010533836
0.010522985
0.010511849
0.010500389
0.010488569
0.010476346
0.010463673
0.010450495
0.010436753
0.010422379
0.010407297
0.010391416
0.010374634
0.010356827
0.010337849
0.01031753
0.010295677
0.010272061
0.010246394
0.010218312
0.010187313
0.010152646
0.010115551
0.010084518
0.010058749
0.010037557
0.010020368
0.010006722
0.0099963945
0.0099895387
0.0099860681
0.0099857983
0.0099902665
0.0099962853
0.010000203
0.010016437
0.028043305
0.022744084
0.014934215
0.013254949
0.012305324
0.011860097
0.011536983
0.011343156
0.011199176
0.011099135
0.011023065
0.010965802
0.010920891
0.010885356
0.01085656
0.010832875
0.010813015
0.010796063
0.010781316
0.01076824
0.010756427
0.010745553
0.010735372
0.01072569
0.010716352
0.010707243
0.010698271
0.010689369
0.010680486
0.010671585
0.010662642
0.010653638
0.01064456
0.010635399
0.010626148
0.010616803
0.010607355
0.010597797
0.010588125
0.010578322
0.010568357
0.010558282
0.010547898
0.010537049
0.010525951
0.010514609
0.010502998
0.010491079
0.010478815
0.010466163
0.010453077
0.010439503
0.010425383
0.010410652
0.010395234
0.010379046
0.010361989
0.010343949
0.010324787
0.010304349
0.010282457
0.0102589
0.010233426
0.010205726
0.010175402
0.010141902
0.010106775
0.010077426
0.010053108
0.010033191
0.010017137
0.010004488
0.0099949939
0.0099886859
0.0099854028
0.0099853431
0.0099896767
0.009994746
0.0099998599
0.010014684
0.026207378
0.021584835
0.014506855
0.012987963
0.012149446
0.011749131
0.011461165
0.011286478
0.01115813
0.011068581
0.011000968
0.010950015
0.010910141
0.010878519
0.01085282
0.010831544
0.010813545
0.010797991
0.010784256
0.010771865
0.010760457
0.010749753
0.010739543
0.010729666
0.010719999
0.010710451
0.010700956
0.010691467
0.010681949
0.010672384
0.010662759
0.010653065
0.010643299
0.01063346
0.010623544
0.010613551
0.010603475
0.01059331
0.010583054
0.010572683
0.010562172
0.010551589
0.0105407
0.010529341
0.010517766
0.010505962
0.010493906
0.010481558
0.010468881
0.010455832
0.010442363
0.010428423
0.010413956
0.010398896
0.010383174
0.010366708
0.010349407
0.010331163
0.01031185
0.010291325
0.010269426
0.010245961
0.010220703
0.010193386
0.010163684
0.010131184
0.010098054
0.010070414
0.010047562
0.010028918
0.010013983
0.010002325
0.009993686
0.0099879616
0.0099849307
0.0099850509
0.0099891054
0.0099934837
0.0099993338
0.010013275
0.024560614
0.02038416
0.014099563
0.012748438
0.012009802
0.011650337
0.011394622
0.011237853
0.011124004
0.011044343
0.010984571
0.01093945
0.010904144
0.010876008
0.010852985
0.010833713
0.010817173
0.010802623
0.010789516
0.010777436
0.010766078
0.01075521
0.010744662
0.010734308
0.010724059
0.01071385
0.01070364
0.010693402
0.010683118
0.010672784
0.010662397
0.010651957
0.010641467
0.010630927
0.010620341
0.010609705
0.010599014
0.010588266
0.010577453
0.010566543
0.010555527
0.010544482
0.010533099
0.010521264
0.010509249
0.010497023
0.01048456
0.010471822
0.01045877
0.01044536
0.010431545
0.010417276
0.010402496
0.010387144
0.010371151
0.010354442
0.010336931
0.010318518
0.01029909
0.010278515
0.010256646
0.01023331
0.010208302
0.010181386
0.010152287
0.01012068
0.010089545
0.010063611
0.010042222
0.010024833
0.010010982
0.010000281
0.009992478
0.0099873583
0.0099846616
0.0099849483
0.009988635
0.0099925347
0.0099988477
0.01001193
0.023080718
0.019104913
0.013721028
0.012534644
0.011885646
0.011563483
0.011337376
0.011197418
0.011097031
0.011026599
0.010974006
0.010934163
0.010902879
0.010877714
0.01085686
0.010839095
0.01082353
0.010809518
0.010796591
0.010784405
0.01077271
0.010761326
0.010750127
0.010739024
0.01072796
0.010716898
0.010705818
0.010694712
0.010683576
0.010672413
0.010661229
0.010650029
0.010638816
0.010627594
0.010616362
0.010605119
0.010593855
0.01058257
0.010571246
0.010559846
0.010548389
0.01053693
0.010525063
0.010512806
0.010500398
0.010487798
0.010474974
0.01046189
0.010448506
0.010434778
0.01042066
0.010406101
0.010391049
0.010375443
0.010359219
0.010342305
0.010324622
0.010306079
0.010286573
0.010265986
0.010244188
0.010221022
0.010196305
0.010169825
0.010141337
0.010110569
0.010081396
0.010057143
0.01003719
0.010021023
0.010008212
0.0099984086
0.0099913802
0.0099868467
0.0099845488
0.0099850189
0.0099883221
0.0099918673
0.0099984516
0.010010532
0.021750655
0.017962411
0.013387033
0.012345034
0.011776466
0.01148846
0.011289508
0.011165354
0.011077392
0.011015458
0.010969298
0.010934072
0.010906151
0.010883323
0.010864017
0.010847162
0.010832001
0.010817993
0.010804757
0.010792021
0.010779598
0.010767361
0.010755227
0.010743144
0.010731086
0.010719036
0.010706993
0.01069496
0.010682943
0.010670949
0.010658985
0.010647056
0.010635165
0.010623312
0.010611495
0.010599705
0.010587934
0.010576176
0.010564402
0.01055258
0.010540759
0.010528907
0.010516602
0.010503992
0.010491245
0.010478322
0.010465189
0.010451808
0.010438139
0.01042414
0.010409763
0.010394961
0.01037968
0.010363863
0.010347451
0.010330374
0.01031256
0.010293927
0.010274381
0.010253821
0.010232131
0.010209175
0.010184793
0.010158792
0.010130951
0.010101019
0.010073745
0.01005112
0.010032557
0.010017567
0.010005741
0.0099967683
0.0099904241
0.0099864077
0.009984517
0.0099852001
0.0099881761
0.0099913988
0.0099981387
0.010009023
0.020552721
0.01698067
0.013093126
0.012178695
0.011682001
0.011425127
0.011251386
0.011141929
0.011065247
0.011010937
0.010970308
0.010938867
0.010913487
0.010892213
0.010873707
0.01085707
0.010841679
0.010827106
0.010813063
0.010799355
0.010785855
0.010772488
0.010759209
0.010745997
0.010732845
0.010719756
0.010706735
0.010693791
0.01068093
0.01066816
0.010655484
0.010642903
0.010630416
0.010618018
0.010605699
0.010593447
0.010581251
0.010569098
0.010556947
0.010544775
0.010532659
0.010520453
0.010507778
0.010494878
0.010481849
0.010468659
0.01045527
0.010441644
0.010427741
0.010413519
0.010398932
0.010383933
0.01036847
0.01035249
0.010335934
0.010318739
0.010300838
0.010282156
0.01026261
0.010242112
0.010220564
0.010197851
0.010173839
0.010148363
0.010121223
0.010092173
0.01006671
0.010045636
0.010028396
0.010014522
0.010003626
0.009995416
0.0099896616
0.0099860646
0.0099845129
0.009985358
0.0099880361
0.0099909932
0.0099978286
0.010007543
0.019471292
0.016138592
0.012835786
0.012035427
0.011602475
0.011373817
0.011223022
0.011127302
0.01106055
0.011012739
0.010976508
0.010947802
0.01092396
0.010903313
0.010884772
0.010867609
0.010851347
0.010835673
0.01082039
0.010805374
0.010790553
0.01077589
0.01076137
0.010746989
0.010732753
0.010718666
0.010704737
0.010690969
0.010677366
0.010663928
0.010650652
0.010637532
0.01062456
0.010611723
0.010599005
0.010586389
0.010573863
0.010561399
0.010548946
0.010536512
0.010524185
0.010511665
0.010498678
0.010485547
0.010472296
0.010458896
0.010445305
0.010431488
0.010417403
0.01040301
0.010388262
0.010373115
0.01035752
0.010341424
0.010324773
0.010307507
0.010289565
0.010270878
0.010251372
0.010230971
0.010209592
0.010187142
0.010163514
0.010138583
0.010112197
0.010084154
0.010060388
0.010040767
0.010024764
0.010011931
0.010001898
0.0099943856
0.0099891438
0.0099858852
0.0099845659
0.0099854133
0.0099877144
0.0099904454
0.0099968966
0.010006041
0.018493753
0.015420565
0.01261031
0.01191349
0.011536727
0.011334767
0.011204748
0.011121178
0.011062715
0.011019957
0.010986734
0.010959502
0.010936058
0.010915052
0.010895632
0.010877252
0.010859574
0.010842392
0.010825585
0.010809085
0.010792857
0.010776885
0.010761167
0.010745704
0.010730496
0.010715547
0.010700854
0.010686413
0.010672218
0.01065826
0.010644526
0.010631003
0.010617672
0.010604516
0.01059151
0.010578637
0.010565878
0.010553187
0.010540519
0.010527932
0.010515465
0.010502632
0.010489402
0.010476105
0.010462694
0.010449141
0.010435406
0.010421452
0.010407239
0.010392725
0.010377869
0.010362625
0.010346946
0.010330785
0.010314088
0.010296802
0.010278867
0.010260222
0.010240799
0.010220532
0.010199347
0.010177168
0.01015391
0.010129483
0.010103786
0.010077064
0.010054856
0.010036569
0.010021698
0.010009816
0.010000569
0.0099936836
0.0099888925
0.0099859293
0.0099847799
0.0099855278
0.0099874282
0.0099899591
0.0099958796
0.010004257
0.017608164
0.014793644
0.012413789
0.011807883
0.011483921
0.01130805
0.011195901
0.011122499
0.011070292
0.01103083
0.010999017
0.010971893
0.010947711
0.010925434
0.010904438
0.010884341
0.010864923
0.010846054
0.010827663
0.010809711
0.010792176
0.010775045
0.010758309
0.010741959
0.010725986
0.010710378
0.01069512
0.010680197
0.010665591
0.01065128
0.010637245
0.010623461
0.010609905
0.010596549
0.010583369
0.010570344
0.010557442
0.010544606
0.01053183
0.010519198
0.010506545
0.010493433
0.010480094
0.010466689
0.010453181
0.010439533
0.010425709
0.010411672
0.010397383
0.010382802
0.010367888
0.010352598
0.010336889
0.010320713
0.010304022
0.010286765
0.010268889
0.010250336
0.010231046
0.010210957
0.010190003
0.010168117
0.010145222
0.010121238
0.010096078
0.010070984
0.010050175
0.010033083
0.010019227
0.010008193
0.009999645
0.0099933082
0.0099889076
0.0099862053
0.0099851857
0.009985797
0.0099873341
0.0099896253
0.0099947901
0.010001817
0.016807502
0.01423593
0.012246734
0.011721288
0.011445243
0.011292399
0.011194861
0.011129065
0.011080758
0.011042629
0.011010606
0.010982332
0.01095649
0.010932315
0.01090937
0.01088739
0.010866223
0.010845777
0.010825994
0.010806832
0.01078826
0.010770252
0.01075278
0.010735818
0.010719339
0.010703315
0.010687718
0.010672518
0.010657688
0.010643196
0.010629013
0.010615109
0.010601454
0.010588015
0.010574767
0.010561684
0.01054872
0.01053582
0.010523033
0.010510414
0.010497573
0.01048429
0.010470907
0.010457456
0.010443907
0.010430222
0.010416366
0.0104023
0.010387989
0.010373393
0.010358473
0.010343189
0.010327499
0.010311359
0.010294725
0.01027755
0.010259783
0.010241374
0.010222267
0.010202407
0.010181737
0.010160194
0.010137714
0.010114226
0.010089654
0.010065979
0.010046386
0.010030335
0.010017358
0.010007061
0.0099991183
0.0099932527
0.009989191
0.0099867238
0.0099858147
0.0099863151
0.0099876225
0.0099897911
0.0099943449
0.010000262
0.016091997
0.013729462
0.012108036
0.011653462
0.011418878
0.011285135
0.011198315
0.011137207
0.011090372
0.011051778
0.011018264
0.010988029
0.010960096
0.01093389
0.010909077
0.010885445
0.010862856
0.010841212
0.010820435
0.010800464
0.010781241
0.010762716
0.010744842
0.010727572
0.010710863
0.010694671
0.010678956
0.010663678
0.0106488
0.010634285
0.010620097
0.010606202
0.010592564
0.010579149
0.010565933
0.010552879
0.010539925
0.010527059
0.010514364
0.010501753
0.010488727
0.010475378
0.010462013
0.010448581
0.010435051
0.010421386
0.010407552
0.010393512
0.010379231
0.010364673
0.010349798
0.010334571
0.010318951
0.010302897
0.010286369
0.010269323
0.010251714
0.010233495
0.010214616
0.01019503
0.010174684
0.010153524
0.010131495
0.010108534
0.01008458
0.01006209
0.010043514
0.010028328
0.010016083
0.010006396
0.009998952
0.0099934708
0.0099896883
0.009987417
0.0099865885
0.0099869944
0.009988158
0.0099902554
0.0099943069
0.0099992921
0.015467858
0.013314188
0.011996849
0.011602287
0.011400856
0.011281484
0.011201327
0.011142151
0.01109488
0.011054705
0.01101918
0.010986908
0.010957108
0.010929288
0.01090313
0.010878414
0.010854971
0.010832672
0.01081141
0.01079109
0.010771631
0.010752959
0.010735007
0.010717715
0.010701025
0.010684885
0.010669246
0.010654061
0.010639287
0.010624884
0.010610812
0.010597033
0.010583509
0.010570211
0.010557109
0.010544151
0.010531284
0.010518559
0.010506027
0.010493313
0.010480164
0.010466905
0.010453613
0.010440258
0.010426803
0.010413214
0.010399457
0.010385498
0.010371302
0.010356833
0.010342056
0.010326936
0.010311435
0.010295516
0.010279141
0.010262269
0.01024486
0.010226872
0.01020826
0.010188981
0.01016899
0.010148239
0.01012668
0.010104259
0.01008092
0.01005936
0.010041579
0.010027067
0.010015387
0.01000617
0.009999102
0.0099939055
0.0099903281
0.0099881949
0.0099874018
0.0099877143
0.0099887795
0.0099907987
0.0099943737
0.0099985262
0.014950042
0.012985527
0.011910392
0.011563233
0.011385498
0.011275606
0.011198732
0.011139704
0.011091232
0.011049455
0.011012349
0.010978715
0.010947822
0.01091918
0.010892442
0.010867347
0.010843689
0.0108213
0.010800043
0.010779803
0.010760477
0.010741976
0.010724222
0.010707145
0.01069068
0.01067477
0.010659362
0.010644407
0.010629858
0.010615673
0.010601813
0.010588236
0.010574908
0.010561802
0.010548875
0.010536063
0.010523368
0.010510876
0.010498471
0.010485665
0.010472543
0.010459431
0.010446281
0.010433065
0.010419747
0.010406294
0.010392674
0.010378853
0.010364798
0.010350475
0.010335851
0.010320891
0.010305561
0.010289826
0.010273649
0.010256994
0.010239824
0.010222099
0.010203781
0.01018483
0.010165209
0.010144876
0.010123791
0.010101911
0.010079192
0.010058206
0.010040913
0.010026813
0.010015475
0.010006535
0.0099996789
0.009994631
0.0099911499
0.0099890638
0.0099882363
0.0099884358
0.0099894197
0.0099913578
0.0099945281
0.0099980591
0.014456289
0.012682544
0.011812345
0.011509266
0.011350734
0.011249983
0.011177521
0.011120595
0.011073161
0.011032015
0.010995376
0.01096215
0.010931632
0.010903333
0.01087697
0.010852314
0.010829132
0.010807237
0.010786481
0.010766733
0.010747887
0.010729849
0.010712537
0.01069588
0.010679813
0.01066428
0.010649226
0.010634606
0.010620374
0.010606491
0.010592917
0.010579612
0.010566548
0.010553695
0.010540992
0.010528396
0.010515983
0.010503785
0.010491341
0.010478487
0.01046558
0.010452666
0.010439714
0.01042669
0.010413563
0.0104003
0.010386871
0.010373243
0.010359385
0.010345263
0.010330847
0.010316103
0.010300998
0.010285497
0.010269568
0.010253174
0.01023628
0.01021885
0.010200845
0.010182229
0.010162965
0.010143014
0.010122339
0.010100898
0.01007865
0.010058021
0.010041029
0.010027176
0.010016035
0.010007243
0.010000487
0.0099954924
0.0099920255
0.0099899084
0.0099889795
0.0099890304
0.0099898997
0.0099916725
0.0099943883
0.0099974244
0.013844124
0.012455783
0.011712276
0.011441408
0.011296582
0.011203224
0.011135477
0.011082082
0.01103754
0.010998972
0.010964734
0.010933808
0.010905518
0.010879384
0.010854994
0.010832047
0.010810355
0.01078977
0.010770166
0.01075144
0.010733501
0.010716271
0.010699683
0.010683675
0.01066819
0.01065318
0.010638598
0.010624402
0.010610553
0.010597036
0.010583817
0.010570859
0.010558133
0.010545594
0.010533187
0.010520932
0.010508891
0.010496834
0.010484406
0.010471773
0.010459164
0.01044654
0.010433873
0.010421132
0.010408287
0.010395306
0.010382159
0.010368817
0.010355248
0.010341421
0.010327307
0.010312872
0.010298086
0.010282917
0.010267331
0.010251295
0.010234777
0.010217739
0.010200148
0.010181968
0.010163164
0.010143701
0.010123542
0.01010265
0.010080986
0.010060031
0.010042784
0.010028733
0.010017434
0.010008511
0.010001639
0.0099965353
0.0099929642
0.0099907311
0.0099896579
0.0099895634
0.0099903243
0.0099919228
0.0099942665
0.0099970107
0.013584263
0.012336889
0.011618368
0.011366818
0.011232581
0.011147116
0.011085254
0.011036581
0.010995878
0.010960496
0.010928929
0.010900265
0.010873909
0.010849444
0.010826571
0.010805069
0.010784763
0.010765515
0.010747208
0.010729742
0.01071303
0.010696998
0.010681577
0.010666706
0.01065233
0.010638399
0.010624864
0.010611685
0.01059882
0.010586209
0.010573817
0.010561623
0.010549595
0.010537679
0.010525865
0.010514235
0.010502743
0.01049092
0.010478758
0.01046662
0.010454468
0.010442283
0.010430034
0.010417696
0.010405241
0.010392641
0.010379868
0.010366894
0.01035369
0.010340227
0.010326476
0.010312407
0.01029799
0.010283194
0.010267987
0.010252339
0.010236215
0.010219583
0.010202407
0.010184655
0.010166291
0.010147281
0.010127591
0.010107183
0.010086019
0.010064444
0.010046653
0.010032122
0.0100204
0.010011099
0.010003887
0.009998477
0.0099946259
0.0099921271
0.0099907966
0.0099904706
0.0099910267
0.0099923773
0.0099944039
0.0099969569
59.980494
108.85764
59.941842
38.582969
25.71632
17.610401
12.346907
8.8296745
6.3627187
4.6093042
3.3348231
2.4137579
1.7408732
1.2525144
0.89344915
0.63271598
0.44470981
0.31110314
0.21689444
0.15088327
0.10503538
0.073522267
0.052117433
0.03776553
0.028269353
0.022076204
0.018093573
0.015564794
0.013978263
0.012992096
0.012381872
0.012003007
0.011764286
0.011609348
0.011504145
0.011428494
0.011370676
0.011323972
0.011284506
0.011250388
0.011220183
0.011193018
0.011168764
0.011146618
0.01112622
0.011107391
0.011089925
0.011073602
0.011058187
0.011043308
0.011027302
0.010998111