/*--------------------------------*- C++ -*----------------------------------*\
  =========                 |
  \\      /  F ield         | OpenFOAM: The Open Source CFD Toolbox
   \\    /   O peration     | Website:  https://openfoam.org
    \\  /    A nd           | Version:  6
     \\/     M anipulation  |
\*---------------------------------------------------------------------------*/
FoamFile
{
    version     2.0;
    format      ascii;
    class       volScalarField;
    location    "150";
    object      nut;
}
// * * * * * * * * * * * * * * * * * * * * * * * * * * * * * * * * * * * * * //

dimensions      [0 2 -1 0 0 0 0];

internalField   nonuniform List<scalar> 
16000
(
3.256468e-06
1.9922171e-05
2.6337034e-05
3.2227905e-05
2.6746476e-05
3.3173741e-05
3.0054173e-05
3.3601012e-05
3.2425997e-05
3.2901124e-05
3.2309822e-05
3.1688994e-05
3.1429705e-05
3.0983657e-05
3.1029846e-05
3.0962725e-05
3.1260751e-05
3.1546446e-05
3.2081937e-05
3.267424e-05
3.345338e-05
3.4335171e-05
3.538277e-05
3.6569113e-05
3.7931065e-05
3.9471936e-05
4.1223045e-05
4.3206174e-05
4.5457246e-05
4.8014433e-05
5.0942533e-05
5.4316818e-05
5.822343e-05
6.2774396e-05
6.8031853e-05
7.4109589e-05
8.1167832e-05
8.9451416e-05
9.9281937e-05
0.00011095458
0.0001248349
0.00014143604
0.0001614075
0.00018555033
0.00021487893
0.0002506957
0.00029462544
0.00034867379
0.00041527122
0.00049726564
0.0005979014
0.00072079566
0.00086996994
0.0010352227
0.0010362124
0.0010362777
0.001035733
0.0010348889
0.0010338929
0.0010327154
0.0010311895
0.0010291755
0.0010266559
0.0010236771
0.0010204614
0.0010173391
0.001014571
0.0010121794
0.0010101121
0.0010083168
0.0010067766
0.0010055077
0.0010044574
0.0010038124
0.0010031456
0.0010035484
0.0010031315
0.0010051144
0.0010023216
0.0010043694
2.7697758e-06
1.9719245e-05
2.2952233e-05
2.9409663e-05
2.4498125e-05
2.9987745e-05
2.7622977e-05
3.0450965e-05
2.9838709e-05
2.987077e-05
2.9592403e-05
2.8773534e-05
2.8677813e-05
2.8143319e-05
2.8235628e-05
2.8111723e-05
2.8394284e-05
2.8622405e-05
2.9105036e-05
2.9624036e-05
3.0321518e-05
3.1107418e-05
3.2045961e-05
3.3108656e-05
3.4330383e-05
3.5713164e-05
3.7285484e-05
3.9067621e-05
4.1093626e-05
4.3400409e-05
4.6035445e-05
4.9048032e-05
5.2522009e-05
5.6558e-05
6.1272802e-05
6.6801734e-05
7.3256656e-05
8.0779661e-05
8.9628306e-05
0.00010018407
0.00011279653
0.00012789753
0.00014609101
0.00016813631
0.00019494622
0.00022767887
0.00026776287
0.0003169034
0.00037712694
0.0004507815
0.0005405439
0.00064950676
0.00078131683
0.00094053117
0.0010351451
0.0010353491
0.0010348554
0.0010340216
0.0010330413
0.0010319174
0.0010305783
0.001028818
0.0010265054
0.0010236582
0.001020483
0.0010173415
0.0010145414
0.0010121298
0.0010100475
0.0010082439
0.0010066972
0.001005418
0.0010043649
0.0010036798
0.0010030101
0.0010032849
0.001002855
0.0010049037
0.0010022613
0.0010042752
2.4451657e-06
1.9536662e-05
2.1047341e-05
2.6985938e-05
2.2720996e-05
2.7207168e-05
2.5722396e-05
2.7498284e-05
2.7609982e-05
2.6908724e-05
2.7057332e-05
2.596003e-05
2.6067779e-05
2.5427376e-05
2.5586412e-05
2.5412462e-05
2.5693145e-05
2.5876822e-05
2.6319815e-05
2.6781162e-05
2.7412594e-05
2.8120795e-05
2.8969581e-05
2.9930739e-05
3.1036778e-05
3.2289469e-05
3.3714563e-05
3.5330649e-05
3.7168503e-05
3.9261684e-05
4.1653885e-05
4.4398303e-05
4.7561169e-05
5.1211593e-05
5.5462594e-05
6.0451733e-05
6.6354657e-05
7.3319577e-05
8.1471594e-05
9.1119824e-05
0.00010269814
0.00011661802
0.00013338633
0.00015371539
0.00017844429
0.00020857909
0.00024536867
0.00029027181
0.0003449888
0.00041150951
0.00049213929
0.00058965137
0.00070747107
0.00084998472
0.0010229227
0.0010344312
0.0010339949
0.0010331669
0.00103219
0.0010310847
0.0010298081
0.001028267
0.0010262047
0.0010235301
0.0010204281
0.0010172861
0.0010144672
0.0010120455
0.0010099572
0.0010081534
0.0010066065
0.0010053256
0.0010042764
0.0010035685
0.0010029085
0.0010030771
0.0010026661
0.0010046937
0.0010020607
0.0010039395
2.1701254e-06
1.9335236e-05
1.9342484e-05
2.4711417e-05
2.1043028e-05
2.4652433e-05
2.3915592e-05
2.4790119e-05
2.5459189e-05
2.4199528e-05
2.4663823e-05
2.3401527e-05
2.3635456e-05
2.2951272e-05
2.3143399e-05
2.2951411e-05
2.3219853e-05
2.3377179e-05
2.3782228e-05
2.419942e-05
2.4773181e-05
2.5417154e-05
2.6189086e-05
2.7064473e-05
2.8071973e-05
2.9214385e-05
3.0514785e-05
3.1991017e-05
3.3671311e-05
3.5586899e-05
3.777813e-05
4.0293749e-05
4.3194356e-05
4.6555524e-05
5.0468405e-05
5.5039908e-05
6.0425755e-05
6.6843946e-05
7.4476215e-05
8.3468485e-05
9.419423e-05
0.00010714573
0.00012277385
0.000141684
0.00016466749
0.00019260677
0.00022657956
0.00026786556
0.00031793548
0.00037855908
0.0004518569
0.00054046636
0.00064773739
0.00077795509
0.00093662386
0.0010335152
0.0010331461
0.0010323221
0.0010313428
0.0010302434
0.0010289917
0.0010275277
0.0010257138
0.0010232578
0.0010202662
0.001017146
0.0010143234
0.0010119032
0.00100982
0.0010080241
0.0010064859
0.0010052084
0.0010041719
0.0010034452
0.0010028163
0.0010028689
0.0010025002
0.0010043018
0.0010019637
0.0010036927
1.9372058e-06
1.9090522e-05
1.7830797e-05
2.2608841e-05
1.9510624e-05
2.2318006e-05
2.2250201e-05
2.2286067e-05
2.3399396e-05
2.1720456e-05
2.2393064e-05
2.1040699e-05
2.1347555e-05
2.0660752e-05
2.0864924e-05
2.0675798e-05
2.0927348e-05
2.1070554e-05
2.1441144e-05
2.1824118e-05
2.234809e-05
2.2938364e-05
2.3644378e-05
2.4446652e-05
2.5369639e-05
2.6417578e-05
2.7611097e-05
2.8967535e-05
3.0512993e-05
3.2277013e-05
3.4297307e-05
3.6619802e-05
3.9301634e-05
4.2412317e-05
4.603853e-05
5.0289249e-05
5.5287083e-05
6.1205641e-05
6.8301918e-05
7.6773411e-05
8.6828534e-05
9.890304e-05
0.00011352277
0.0001311791
0.00015257441
0.00017852184
0.00020994821
0.00024800378
0.00029402278
0.000349647
0.00041691392
0.00049838861
0.0005973436
0.00071790392
0.00086524558
0.0010325961
0.0010323079
0.0010314873
0.0010305014
0.0010294016
0.0010281613
0.0010267359
0.0010250371
0.0010228487
0.0010200076
0.0010169319
0.0010141198
0.0010117125
0.0010096445
0.0010078646
0.0010063423
0.0010050743
0.0010040543
0.0010033158
0.001002723
0.0010026714
0.001002356
0.0010039393
0.0010018574
0.0010033863
1.7403057e-06
1.8771893e-05
1.6510209e-05
2.065111e-05
1.810874e-05
2.0166107e-05
2.0699512e-05
1.9967887e-05
2.1409434e-05
1.9468012e-05
2.0248047e-05
1.8881135e-05
1.9213224e-05
1.8560174e-05
1.8759074e-05
1.8589719e-05
1.8821854e-05
1.8960781e-05
1.9301319e-05
1.9658722e-05
2.0141017e-05
2.068749e-05
2.1338477e-05
2.2079922e-05
2.2932298e-05
2.3901368e-05
2.5005686e-05
2.6262299e-05
2.7695632e-05
2.9333883e-05
3.1212652e-05
3.3375524e-05
3.5876663e-05
3.8782543e-05
4.2175129e-05
4.6155174e-05
5.0849871e-05
5.6405954e-05
6.3026087e-05
7.0990702e-05
8.0501544e-05
9.1863899e-05
0.00010558203
0.00012215984
0.00014216731
0.00016637318
0.00019561167
0.00023093577
0.00027361688
0.00032522701
0.00038776079
0.00046372222
0.00055627572
0.00066934422
0.0008077545
0.00097738102
0.0010314765
0.0010306603
0.0010296648
0.0010285603
0.001027324
0.0010259199
0.0010242851
0.0010222921
0.0010196472
0.0010166413
0.0010138539
0.0010114711
0.001009428
0.0010076725
0.0010061727
0.0010049209
0.0010039192
0.0010031774
0.0010026205
0.0010024808
0.0010022194
0.0010035614
0.0010017851
0.0010031484
1.5742693e-06
1.8348281e-05
1.537185e-05
1.8825097e-05
1.6818523e-05
1.8167896e-05
1.9230137e-05
1.7871549e-05
1.9483453e-05
1.7414445e-05
1.8215224e-05
1.6899648e-05
1.7220314e-05
1.662856e-05
1.6811014e-05
1.6672875e-05
1.6885651e-05
1.7027061e-05
1.7342359e-05
1.7680825e-05
1.8128744e-05
1.863949e-05
1.9244781e-05
1.993562e-05
2.0729067e-05
2.1632221e-05
2.2661978e-05
2.3835184e-05
2.5174922e-05
2.6708351e-05
2.8469348e-05
3.0499533e-05
3.285067e-05
3.5586025e-05
3.8783754e-05
4.2540194e-05
4.6973971e-05
5.2231805e-05
5.8482037e-05
6.5979058e-05
7.4983815e-05
8.5752728e-05
9.8665333e-05
0.00011427369
0.00013306682
0.00015574422
0.00018311052
0.00021615011
0.00025610825
0.00030451861
0.00036333425
0.00043498511
0.00052249637
0.00062956822
0.00076069762
0.0009213353
0.0010306487
0.0010298396
0.0010288321
0.0010277201
0.001026483
0.0010250906
0.0010234927
0.0010215947
0.0010191871
0.001016278
0.001013529
0.0010111818
0.001009173
0.0010074501
0.0010059794
0.0010047502
0.0010037682
0.0010030307
0.0010025058
0.0010022977
0.0010020894
0.0010032107
0.0010016938
0.0010029097
1.4350438e-06
1.7005617e-05
1.4400111e-05
1.7103016e-05
1.5623782e-05
1.6287927e-05
1.7810458e-05
1.5969703e-05
1.76266e-05
1.553907e-05
1.6296267e-05
1.5083597e-05
1.5369478e-05
1.4856897e-05
1.5018023e-05
1.4917639e-05
1.5113396e-05
1.5261688e-05
1.5556922e-05
1.5881719e-05
1.6302099e-05
1.6784157e-05
1.7352237e-05
1.8001657e-05
1.8746711e-05
1.9595654e-05
2.0564087e-05
2.1668676e-05
2.2931488e-05
2.4378813e-05
2.6043177e-05
2.7964483e-05
3.019246e-05
3.2787718e-05
3.5824806e-05
3.9395734e-05
4.3613031e-05
4.8613485e-05
5.4566722e-05
6.1678785e-05
7.0218381e-05
8.0442981e-05
9.2689508e-05
0.00010743061
0.00012518241
0.00014656728
0.00017238603
0.00020358719
0.00024139708
0.000287322
0.00034326093
0.00041155411
0.00049507529
0.00059731176
0.00072248285
0.00087571224
0.0010298205
0.0010290235
0.0010280023
0.0010268804
0.0010256396
0.0010242535
0.0010226812
0.001020852
0.0010186272
0.0010158455
0.0010131478
0.0010108469
0.0010088811
0.0010071983
0.0010057631
0.0010045627
0.0010036022
0.0010028758
0.0010023777
0.0010021206
0.0010019561
0.0010028354
0.0010016066
0.0010026952
1.3151938e-06
1.4421683e-05
1.3504972e-05
1.5455715e-05
1.4532708e-05
1.4553992e-05
1.6435344e-05
1.4248773e-05
1.5852302e-05
1.3834949e-05
1.4505546e-05
1.3427845e-05
1.3665908e-05
1.3239635e-05
1.3378271e-05
1.3317007e-05
1.3498708e-05
1.3655645e-05
1.3935352e-05
1.4250158e-05
1.4648709e-05
1.510779e-05
1.5645814e-05
1.6261584e-05
1.6967286e-05
1.7772008e-05
1.8690442e-05
1.9739044e-05
2.0939096e-05
2.2316157e-05
2.390161e-05
2.5733857e-05
2.7860785e-05
3.0340547e-05
3.3244558e-05
3.6660591e-05
4.0695239e-05
4.5479567e-05
5.1174675e-05
5.7958625e-05
6.6092488e-05
7.5833551e-05
8.7496628e-05
0.00010149711
0.00011837161
0.00013870209
0.00016328001
0.00019304215
0.00022919157
0.00027320531
0.00032691776
0.00039257208
0.00047289856
0.00057120272
0.00069149062
0.00083864901
0.0010186683
0.0010282107
0.0010271744
0.0010260413
0.0010247945
0.0010234111
0.0010218565
0.0010200749
0.0010179681
0.0010153491
0.0010127147
0.00101047
0.0010085553
0.0010069197
0.0010055263
0.0010043601
0.0010034237
0.0010027138
0.0010022373
0.0010019499
0.001001823
0.0010024849
0.001001509
0.0010024782
1.1992786e-06
1.3834642e-05
1.2422515e-05
1.3874603e-05
1.3529982e-05
1.3002102e-05
1.5076199e-05
1.2699202e-05
1.4164884e-05
1.2291871e-05
1.2848852e-05
1.1922884e-05
1.2108331e-05
1.1767948e-05
1.1886035e-05
1.1862167e-05
1.2033437e-05
1.2199528e-05
1.2467937e-05
1.2775677e-05
1.3157523e-05
1.3598629e-05
1.4112982e-05
1.4701985e-05
1.5376358e-05
1.6145741e-05
1.7024177e-05
1.8027905e-05
1.9177573e-05
2.0498123e-05
2.2019941e-05
2.3780038e-05
2.5824615e-05
2.8209564e-05
3.1003284e-05
3.428927e-05
3.816923e-05
4.2768367e-05
4.8234641e-05
5.4745747e-05
6.2537973e-05
7.1862379e-05
8.3013509e-05
9.6416502e-05
0.00011258124
0.00013208681
0.00015570845
0.00018437957
0.00021927608
0.0002618394
0.00031383707
0.00037741946
0.00045519593
0.00055033113
0.00066667864
0.00080895912
0.00098298035
0.0010273999
0.0010263478
0.0010252025
0.0010239485
0.0010225655
0.0010210238
0.0010192779
0.0010172497
0.0010147953
0.0010122353
0.0010100555
0.0010081993
0.001006617
0.0010052714
0.0010041446
0.0010032354
0.001002546
0.0010020864
0.0010017851
0.0010016896
0.0010021578
0.0010014089
0.0010022629
1.0998434e-06
1.3208338e-05
1.1458167e-05
1.2377386e-05
1.2585145e-05
1.1603372e-05
1.3720237e-05
1.1291144e-05
1.2558182e-05
1.0886343e-05
1.1320152e-05
1.0551178e-05
1.0687347e-05
1.0428302e-05
1.0530817e-05
1.0541573e-05
1.0706816e-05
1.0882352e-05
1.110289e-05
1.1399535e-05
1.1764128e-05
1.2187369e-05
1.2679614e-05
1.3243789e-05
1.3889332e-05
1.4626046e-05
1.5467314e-05
1.6428972e-05
1.7530926e-05
1.8797377e-05
2.0257655e-05
2.1947171e-05
2.3910333e-05
2.620063e-05
2.8883309e-05
3.2037703e-05
3.5760923e-05
4.0172423e-05
4.5707093e-05
5.1989162e-05
5.9500818e-05
6.8479346e-05
7.921267e-05
9.2147818e-05
0.00010776317
0.00012664802
0.00014956112
0.00017742947
0.0002114014
0.00025287821
0.00030356672
0.00036553848
0.00044131105
0.00053394855
0.00064719909
0.00078566519
0.00095501181
0.0010265904
0.0010255222
0.0010243643
0.0010231025
0.0010217186
0.0010201872
0.0010184709
0.0010165086
0.001014192
0.0010117159
0.001009609
0.0010078176
0.0010062942
0.0010050014
0.0010039187
0.0010030406
0.0010023748
0.0010019282
0.0010016261
0.001001556
0.0010018605
0.001001304
0.0010020604
1.0124452e-06
1.2544772e-05
1.0540965e-05
1.0952135e-05
1.1674507e-05
1.0328673e-05
1.2369243e-05
1.0002476e-05
1.1040355e-05
9.6023332e-06
9.9183388e-06
9.3009166e-06
9.3965389e-06
9.2112511e-06
9.2659197e-06
9.2938509e-06
9.449411e-06
9.6301403e-06
9.8844101e-06
1.0184049e-05
1.0544388e-05
1.0960913e-05
1.1442133e-05
1.1992457e-05
1.2620771e-05
1.3337186e-05
1.4154779e-05
1.5089192e-05
1.6159854e-05
1.7390446e-05
1.8809595e-05
2.0451354e-05
2.235874e-05
2.4583352e-05
2.718797e-05
3.0248678e-05
3.3859038e-05
3.8135266e-05
4.3210978e-05
4.9260822e-05
5.6492669e-05
6.5130896e-05
7.6060552e-05
8.8648901e-05
0.00010386321
0.00012230536
0.00014472141
0.00017202383
0.00020533687
0.00024602264
0.00029573917
0.00035649872
0.00043075569
0.00052150695
0.00063242818
0.00076803463
0.00093387728
0.0010257817
0.0010246977
0.0010235274
0.0010222577
0.0010208723
0.0010193493
0.0010176581
0.0010157511
0.0010135479
0.001011164
0.0010091367
0.0010074155
0.0010059554
0.0010047199
0.0010036854
0.0010028428
0.0010022026
0.0010017668
0.0010014734
0.0010014228
0.0010015974
0.0010012012
0.0010018476
9.3601154e-07
1.1811636e-05
9.682388e-06
9.6607154e-06
1.0780698e-05
9.1638557e-06
1.1028215e-05
8.8225227e-06
9.6261534e-06
8.4311904e-06
8.6441951e-06
8.1649e-06
8.1742227e-06
8.0361835e-06
8.1175405e-06
8.1851241e-06
8.3512769e-06
8.5478399e-06
8.8063136e-06
9.1094009e-06
9.4677973e-06
9.8802563e-06
1.0354171e-05
1.0894974e-05
1.1511171e-05
1.2213069e-05
1.3013514e-05
1.3927919e-05
1.4975262e-05
1.6178728e-05
1.75664e-05
1.9170982e-05
2.1034315e-05
2.3206403e-05
2.5748033e-05
2.8732761e-05
3.2251139e-05
3.6417679e-05
4.1362832e-05
4.7260149e-05
5.4314687e-05
6.2746474e-05
7.2867129e-05
8.5115741e-05
9.9960007e-05
0.00011896728
0.00014106346
0.00016799425
0.00020086619
0.00024100909
0.00029004659
0.00034995199
0.00042314013
0.000512565
0.00062185196
0.00075545061
0.00091882295
0.001024974
0.0010238748
0.0010226927
0.0010214157
0.0010200289
0.0010185135
0.001016844
0.0010149835
0.0010128729
0.001010588
0.0010086459
0.0010069991
0.0010056058
0.0010044306
0.0010034479
0.0010026452
0.0010020327
0.0010016068
0.0010013276
0.0010012906
0.0010013701
0.0010011053
0.0010016468
8.6898433e-07
1.0987075e-05
8.8754273e-06
8.4909681e-06
9.8910373e-06
8.0980802e-06
9.7101096e-06
7.7427236e-06
8.3265667e-06
7.3655545e-06
7.43079e-06
7.042527e-06
7.0770817e-06
7.0112732e-06
7.106726e-06
7.2065411e-06
7.3834058e-06
7.5936492e-06
7.8573502e-06
8.1646391e-06
8.5233296e-06
8.9343205e-06
9.4043707e-06
9.9396396e-06
1.0548349e-05
1.1240915e-05
1.2029999e-05
1.2930777e-05
1.396177e-05
1.5145665e-05
1.6451801e-05
1.8016172e-05
1.9831415e-05
2.1945965e-05
2.4418799e-05
2.7321426e-05
3.0913417e-05
3.4996686e-05
3.9844477e-05
4.5631166e-05
5.2566843e-05
6.0861196e-05
7.0829225e-05
8.2916412e-05
9.7604202e-05
0.00011546675
0.00013723027
0.00016518561
0.00019780014
0.00023761738
0.00028624026
0.0003456207
0.00041815122
0.00050675985
0.0006150373
0.00074738626
0.00090920495
0.0010241681
0.0010230548
0.001021862
0.0010205787
0.0010191913
0.0010176832
0.0010160333
0.0010142125
0.0010121777
0.0010099969
0.0010081442
0.0010065751
0.0010052507
0.0010041379
0.0010032095
0.0010024508
0.001001868
0.0010014527
0.0010011899
0.0010011598
0.0010011744
0.0010010168
0.0010014759
8.1043986e-07
1.0060393e-05
8.1145637e-06
7.4308406e-06
9.0048992e-06
7.120822e-06
8.4346547e-06
6.7551033e-06
7.1474907e-06
6.2967027e-06
6.3337437e-06
6.0747856e-06
6.1193298e-06
6.1110956e-06
6.2211215e-06
6.3473701e-06
6.5352009e-06
6.7577319e-06
7.0277179e-06
7.3401949e-06
7.7013216e-06
8.1133551e-06
8.5827073e-06
9.0981008e-06
9.6984975e-06
1.0380916e-05
1.1157611e-05
1.2043276e-05
1.3055747e-05
1.4216818e-05
1.555282e-05
1.7095735e-05
1.8884491e-05
2.0966743e-05
2.3400672e-05
2.6257464e-05
2.9626372e-05
3.361705e-05
3.8358865e-05
4.4029636e-05
5.0844393e-05
5.9442554e-05
6.9328622e-05
8.1342816e-05
9.5966998e-05
0.00011376328
0.0001354567
0.00016191476
0.00019597223
0.00023565956
0.00028411024
0.0003432681
0.00041551549
0.00050376668
0.00061159111
0.00074336296
0.00090444234
0.0010233655
0.0010222394
0.0010210374
0.0010197492
0.0010183625
0.0010168625
0.0010152311
0.0010134453
0.0010114731
0.0010094
0.0010076396
0.0010061503
0.0010048961
0.0010038462
0.0010029734
0.001002262
0.0010017112
0.0010013089
0.0010010621
0.001001031
0.0010010028
0.0010009284
0.0010013345
7.5989841e-07
9.030788e-06
7.3950272e-06
6.4689951e-06
8.1016496e-06
6.2242892e-06
7.226566e-06
5.8092101e-06
5.9495527e-06
5.3601466e-06
5.3870836e-06
5.230037e-06
5.2875766e-06
5.3251235e-06
5.4500973e-06
5.5984098e-06
5.7974691e-06
6.0314972e-06
6.3088251e-06
6.6276143e-06
6.9805868e-06
7.3923378e-06
7.860186e-06
8.3905806e-06
8.9917966e-06
9.673722e-06
1.0448504e-05
1.1330642e-05
1.2337592e-05
1.3490789e-05
1.4816109e-05
1.6345036e-05
1.8116083e-05
2.0176549e-05
2.2584338e-05
2.5410912e-05
2.8746758e-05
3.270119e-05
3.7403918e-05
4.3042278e-05
4.9835025e-05
5.7960042e-05
6.7740968e-05
7.9662155e-05
9.4971951e-05
0.00011279196
0.00013451487
0.00016100759
0.00019333563
0.00023497175
0.00028347099
0.00034267951
0.00041497859
0.00050327902
0.0006111418
0.0007429308
0.00090399309
0.0010225682
0.0010214312
0.0010202218
0.0010189306
0.0010175462
0.0010160556
0.001014443
0.0010126893
0.0010107705
0.0010088068
0.0010071403
0.0010057316
0.0010045479
0.0010035601
0.001002743
0.0010020802
0.0010015639
0.0010011787
0.0010009467
0.0010009071
0.001000851
0.0010008344
0.001001216
7.1717419e-07
7.9060706e-06
6.7121136e-06
5.5953925e-06
7.1675882e-06
5.4031747e-06
6.1094774e-06
4.8744715e-06
4.9528651e-06
4.5483857e-06
4.5748768e-06
4.4973001e-06
4.5701363e-06
4.644256e-06
4.7843279e-06
4.9515174e-06
5.1620446e-06
5.4072206e-06
5.6817922e-06
6.0052361e-06
6.3742125e-06
6.7925552e-06
7.2659428e-06
7.801032e-06
8.4060865e-06
9.0909225e-06
9.8675673e-06
1.0750384e-05
1.1756442e-05
1.2906939e-05
1.4227463e-05
1.5749275e-05
1.7510856e-05
1.9559607e-05
2.1953728e-05
2.4766036e-05
2.8088733e-05
3.2030317e-05
3.6723808e-05
4.2369993e-05
4.9178091e-05
5.730429e-05
6.7104364e-05
7.908638e-05
9.3695278e-05
0.00011147817
0.00013429987
0.00016093077
0.00019342341
0.0002330729
0.00028414268
0.00034364172
0.00041628409
0.00050498707
0.00061331532
0.00074564004
0.00090731752
0.0010217792
0.0010206332
0.0010194185
0.0010181264
0.0010167466
0.0010152673
0.0010136745
0.001011952
0.0010100807
0.0010082266
0.001006654
0.001005326
0.0010042118
0.0010032846
0.0010025214
0.0010019066
0.0010014262
0.0010010632
0.0010008457
0.0010007932
0.0010007214
0.001000747
0.0010011045
6.8293325e-07
6.7020919e-06
6.0658338e-06
4.8023391e-06
6.1998372e-06
4.6518374e-06
4.925627e-06
4.0701165e-06
4.1103461e-06
3.8492525e-06
3.8829253e-06
3.8669812e-06
3.9566604e-06
4.0603895e-06
4.2154817e-06
4.3993114e-06
4.6122894e-06
4.8662342e-06
5.1591525e-06
5.4924642e-06
5.8701976e-06
6.2966718e-06
6.7776134e-06
7.3197729e-06
7.9313919e-06
8.6221438e-06
9.4039365e-06
1.0272053e-05
1.1275183e-05
1.2420048e-05
1.3731833e-05
1.5241536e-05
1.6987578e-05
1.9017428e-05
2.1389764e-05
2.417908e-05
2.7478416e-05
3.1395152e-05
3.6070172e-05
4.1984791e-05
4.8830028e-05
5.6983372e-05
6.6854582e-05
7.8950223e-05
9.3682339e-05
0.00011162098
0.00013348632
0.00016156436
0.00019433136
0.00023431633
0.000283111
0.00034592633
0.00041915617
0.00050855895
0.00061771303
0.00075101277
0.00091384313
0.0010210025
0.0010198497
0.0010186317
0.0010173409
0.0010159682
0.0010145026
0.0010129317
0.001011241
0.0010094144
0.0010076682
0.0010061883
0.0010049398
0.0010038935
0.0010030245
0.0010023123
0.0010017424
0.0010012973
0.0010009603
0.0010007587
0.0010006926
0.0010006123
0.0010006691
0.0010009931
6.5939016e-07
5.5555791e-06
5.4604443e-06
4.0878666e-06
5.2317048e-06
3.8361481e-06
4.1488841e-06
3.3856541e-06
3.4027702e-06
3.2517314e-06
3.2988539e-06
3.3307661e-06
3.4380157e-06
3.566247e-06
3.7292643e-06
3.925692e-06
4.1580528e-06
4.4246416e-06
4.7286011e-06
5.0723447e-06
5.4599638e-06
5.8960683e-06
6.3864062e-06
6.9377319e-06
7.5494641e-06
8.2455151e-06
9.0311975e-06
9.9203169e-06
1.0929665e-05
1.2079776e-05
1.3395914e-05
1.49094e-05
1.6659214e-05
1.8693537e-05
2.1072536e-05
2.38733e-05
2.7189639e-05
3.1129584e-05
3.5846957e-05
4.1554106e-05
4.839295e-05
5.694923e-05
6.6936665e-05
7.9177218e-05
9.4072742e-05
0.0001122174
0.00013432943
0.00016129416
0.00019591226
0.00023634407
0.00028567544
0.00034587962
0.000423289
0.00051362771
0.00062389499
0.00075852148
0.00092293722
0.0010202429
0.0010190854
0.0010178665
0.0010165793
0.0010152159
0.0010137666
0.0010122202
0.0010105634
0.0010087816
0.0010071401
0.0010057501
0.0010045787
0.001003598
0.0010027845
0.0010021198
0.0010015899
0.0010011766
0.0010008665
0.0010006826
0.0010006063
0.0010005192
0.0010006002
0.0010008787
6.4949326e-07
4.5112871e-06
4.8814208e-06
3.5603735e-06
4.8402169e-06
3.1514828e-06
3.1835664e-06
2.7989905e-06
2.8177205e-06
2.7476404e-06
2.8122536e-06
2.8819147e-06
3.0065351e-06
3.1487599e-06
3.3307997e-06
3.5429084e-06
3.7881494e-06
4.0668526e-06
4.3821034e-06
4.7369249e-06
5.1354811e-06
5.5825397e-06
6.0790044e-06
6.6393143e-06
7.2681228e-06
7.9748179e-06
8.7707008e-06
9.669481e-06
1.0687924e-05
1.1846639e-05
1.3171174e-05
1.4693398e-05
1.6452979e-05
1.8499009e-05
2.0893788e-05
2.3716935e-05
2.7061388e-05
3.1037228e-05
3.5814577e-05
4.1598962e-05
4.8497249e-05
5.6724879e-05
6.7273353e-05
7.9682185e-05
9.4776054e-05
0.00011316621
0.00013557288
0.00016289516
0.0001980019
0.00023896073
0.00028892395
0.00034988387
0.00042833293
0.0005197733
0.0006313573
0.00076756105
0.00093387184
0.0010195062
0.0010183464
0.0010171286
0.001015847
0.0010144948
0.0010130639
0.0010115447
0.0010099252
0.0010081909
0.0010066494
0.0010053453
0.0010042475
0.0010033294
0.0010025685
0.0010019476
0.0010014528
0.001001066
0.0010007792
0.0010006104
0.0010005256
0.0010004346
0.0010005359
0.0010007688
6.5497099e-07
4.3940857e-06
4.315897e-06
4.0539395e-06
4.0807499e-06
2.4925576e-06
2.5673093e-06
2.3095248e-06
2.3389678e-06
2.3320757e-06
2.4146878e-06
2.5142949e-06
2.649637e-06
2.8144343e-06
3.0111966e-06
3.2370015e-06
3.4944137e-06
3.7849703e-06
4.111812e-06
4.4783082e-06
4.888663e-06
5.3444848e-06
5.8565295e-06
6.4292229e-06
7.0703294e-06
7.7891286e-06
8.5968257e-06
9.5070939e-06
1.0536746e-05
1.1706599e-05
1.3042637e-05
1.4577399e-05
1.6351264e-05
1.841464e-05
2.0832533e-05
2.3685704e-05
2.7064323e-05
3.1086908e-05
3.5944587e-05
4.1814292e-05
4.8762639e-05
5.7494987e-05
6.7789173e-05
8.0387047e-05
9.5701805e-05
0.00011436102
0.00013709172
0.00016480499
0.00020040935
0.00024193695
0.0002925822
0.00035435833
0.00043387701
0.00052650239
0.00063950702
0.0007774182
0.0009457878
0.0010187992
0.0010176394
0.0010164248
0.0010151504
0.0010138107
0.0010123993
0.0010109086
0.0010093295
0.0010076502
0.0010062024
0.001004979
0.0010039502
0.0010030906
0.0010023788
0.0010017985
0.0010013346
0.00100097
0.0010007007
0.0010005381
0.0010004401
0.0010003471
0.0010004409
0.0010006603
6.6821348e-07
4.5507449e-06
3.7553235e-06
2.738097e-06
2.5939351e-06
2.0516992e-06
2.0430759e-06
1.9202157e-06
1.9564799e-06
1.9971482e-06
2.097414e-06
2.2163206e-06
2.3706824e-06
2.5514729e-06
2.7612248e-06
2.9994527e-06
3.2686354e-06
3.5709792e-06
3.9096792e-06
4.2882729e-06
4.7092198e-06
5.1799835e-06
5.7049826e-06
6.290693e-06
6.9447812e-06
7.6764373e-06
8.4968087e-06
9.4195803e-06
1.0461684e-05
1.1644257e-05
1.2993816e-05
1.4543535e-05
1.6334615e-05
1.8419428e-05
2.0865415e-05
2.3751687e-05
2.7167458e-05
3.1251233e-05
3.620462e-05
4.2132559e-05
4.944272e-05
5.7944327e-05
6.8430694e-05
8.1211705e-05
9.6751738e-05
0.00011567933
0.00013873845
0.00016684558
0.00020291156
0.00024500471
0.00029632812
0.00035891608
0.00043944264
0.00053323973
0.00064765168
0.00078725839
0.00095767822
0.0010181298
0.0010169725
0.0010157633
0.0010144978
0.0010131713
0.0010117787
0.0010103144
0.0010087724
0.0010071657
0.0010058044
0.0010046552
0.0010036899
0.0010028839
0.0010022172
0.0010016735
0.0010012373
0.0010008925
0.0010006373
0.001000475
0.0010003624
0.0010002683
0.0010003455
0.0010005387
4.9781756e-07
3.7414122e-06
2.8737866e-06
1.9984141e-06
1.9936398e-06
1.6528743e-06
1.6459803e-06
1.5996244e-06
1.6566763e-06
1.7311469e-06
1.8492344e-06
1.9874001e-06
2.1565027e-06
2.3508966e-06
2.5726639e-06
2.82268e-06
3.1034608e-06
3.4175652e-06
3.7682133e-06
4.1589972e-06
4.59408e-06
5.076607e-06
5.614548e-06
6.21325e-06
6.8802974e-06
7.6248156e-06
8.4579408e-06
9.3934128e-06
1.0448349e-05
1.1644229e-05
1.3008093e-05
1.4573713e-05
1.6383411e-05
1.8491863e-05
2.0967274e-05
2.3885291e-05
2.7341888e-05
3.1666714e-05
3.6736948e-05
4.2725175e-05
4.9796696e-05
5.8454984e-05
6.9107376e-05
8.2049725e-05
9.7803608e-05
0.00011697987
0.00014034465
0.00017029718
0.00020525349
0.00024785679
0.00029979065
0.00036310923
0.00044447096
0.00053931039
0.00065497572
0.00079609512
0.00096834705
0.001017507
0.0010163552
0.0010151541
0.0010138998
0.0010125879
0.001011214
0.0010097731
0.0010082597
0.0010067433
0.0010054596
0.0010043772
0.0010034688
0.0010027111
0.0010020846
0.0010015735
0.0010011616
0.0010008347
0.0010005912
0.0010004271
0.0010003015
0.0010002035
0.0010002502
0.001000383
3.7939914e-07
2.0162475e-06
2.2303779e-06
1.5635394e-06
1.5286982e-06
1.3354993e-06
1.3426727e-06
1.3509098e-06
1.4283493e-06
1.5286731e-06
1.6622184e-06
1.816921e-06
1.9984882e-06
2.2047368e-06
2.4376168e-06
2.698737e-06
2.9906248e-06
3.3159953e-06
3.6780508e-06
4.0803823e-06
4.527102e-06
5.0229147e-06
5.5732739e-06
6.1845758e-06
6.8644361e-06
7.6220609e-06
8.468729e-06
9.4184184e-06
1.0488632e-05
1.170144e-05
1.3084593e-05
1.4672646e-05
1.6509674e-05
1.8652622e-05
2.1168185e-05
2.4130429e-05
2.7653142e-05
3.1912028e-05
3.7017618e-05
4.2987174e-05
5.0114127e-05
5.8913517e-05
6.9693325e-05
8.2778483e-05
9.8703742e-05
0.00011907733
0.00014285594
0.00017181496
0.00020709569
0.00025008524
0.00030247884
0.0003698049
0.0004482299
0.00054383572
0.00066042395
0.00080265924
0.00097626561
0.0010169402
0.0010157971
0.0010146072
0.0010133671
0.0010120731
0.001010721
0.0010093066
0.0010078252
0.0010063874
0.0010051716
0.0010041474
0.0010032887
0.001002573
0.0010019817
0.0010014987
0.0010011083
0.001000798
0.0010005649
0.0010004
0.0010002684
0.0010001721
0.0010001954
0.0010002794
3.017407e-07
1.5628946e-06
1.6601302e-06
1.2307261e-06
1.1882029e-06
1.0917086e-06
1.11625e-06
1.1635797e-06
1.2591172e-06
1.3786371e-06
1.524943e-06
1.6928889e-06
1.8848665e-06
2.1012017e-06
2.3438041e-06
2.6146247e-06
2.9161702e-06
3.2512127e-06
3.6229324e-06
4.0349103e-06
4.4912291e-06
4.9965579e-06
5.5562999e-06
6.176791e-06
6.8655794e-06
7.6318073e-06
8.4867082e-06
9.4442844e-06
1.0522207e-05
1.1742804e-05
1.3133966e-05
1.4730864e-05
1.6579256e-05
1.8735992e-05
2.1263436e-05
2.4240995e-05
2.7806169e-05
3.2114318e-05
3.7188483e-05
4.311338e-05
5.0326177e-05
5.9679856e-05
7.0615025e-05
8.3888011e-05
0.00010002806
0.00011966264
0.00014356414
0.00017266992
0.00020812409
0.00025131801
0.00030672223
0.00037132235
0.00045004688
0.00054601125
0.00066303137
0.00080579065
0.00098003705
0.0010164395
0.0010153077
0.0010141318
0.0010129085
0.0010116347
0.0010103068
0.001008921
0.0010074735
0.0010061017
0.0010049426
0.0010039671
0.0010031499
0.0010024693
0.0010019072
0.0010014477
0.0010010753
0.0010007791
0.0010005546
0.0010003893
0.0010002559
0.0010001632
0.0010001677
0.001000211
2.2400274e-07
1.1879046e-06
1.2181739e-06
9.8435707e-07
9.3987332e-07
9.0881431e-07
9.5326015e-07
1.030162e-06
1.1423675e-06
1.2776675e-06
1.4358923e-06
1.6155558e-06
1.817975e-06
2.0443872e-06
2.2967517e-06
2.5770089e-06
2.8880177e-06
3.2324349e-06
3.6134386e-06
4.0346087e-06
4.500007e-06
5.0142655e-06
5.5827327e-06
6.2116776e-06
6.9085851e-06
7.6825558e-06
8.5448304e-06
9.5095052e-06
1.0594417e-05
1.1821992e-05
1.3220313e-05
1.4825594e-05
1.6684562e-05
1.8850763e-05
2.1460296e-05
2.4476327e-05
2.8108499e-05
3.2442013e-05
3.7470235e-05
4.3432043e-05
5.0794963e-05
5.9825946e-05
7.0767158e-05
8.4062369e-05
0.00010021614
0.00011986741
0.00014378025
0.00017443505
0.00021014714
0.000253632
0.00030659309
0.00037111095
0.00044972782
0.00054555382
0.00066239929
0.00080494141
0.00097892155
0.0010160156
0.0010148976
0.0010137378
0.0010125335
0.0010112817
0.0010099793
0.0010086231
0.0010072095
0.0010058896
0.0010047752
0.0010038378
0.0010030529
0.0010023996
0.0010018599
0.0010014181
0.0010010595
0.0010007739
0.0010005549
0.0010003888
0.0010002552
0.0010001647
0.0010001504
0.0010001566
1.6895958e-07
9.5880298e-07
8.7247368e-07
7.9076756e-07
7.635139e-07
7.744732e-07
8.3677911e-07
9.3305232e-07
1.0562771e-06
1.2007614e-06
1.3656384e-06
1.5511079e-06
1.7584598e-06
1.9892445e-06
2.2452378e-06
2.5286116e-06
2.8418875e-06
3.1878916e-06
3.5697973e-06
3.9911769e-06
4.4560758e-06
4.9691031e-06
5.535576e-06
6.1617354e-06
6.8550448e-06
7.6245878e-06
8.4816085e-06
9.4402198e-06
1.0518194e-05
1.1737784e-05
1.3127233e-05
1.4723518e-05
1.6571781e-05
1.8720428e-05
2.1235047e-05
2.4232687e-05
2.7834082e-05
3.2042346e-05
3.6925691e-05
4.2859121e-05
5.01967e-05
5.9112931e-05
7.0452501e-05
8.3671317e-05
9.9730205e-05
0.0001192587
0.00014301787
0.00017193734
0.00020714901
0.00025003376
0.00030227655
0.00036593579
0.000443528
0.00053813291
0.00065352536
0.00079434064
0.00096627085
0.0010157039
0.0010146015
0.0010134594
0.0010122751
0.001011046
0.0010097698
0.0010084435
0.0010070646
0.0010057767
0.0010046899
0.001003776
0.0010030109
0.0010023739
0.0010018474
0.0010014155
0.0010010642
0.0010007837
0.0010005657