/*--------------------------------*- C++ -*----------------------------------*\
  =========                 |
  \\      /  F ield         | OpenFOAM: The Open Source CFD Toolbox
   \\    /   O peration     | Website:  https://openfoam.org
    \\  /    A nd           | Version:  6
     \\/     M anipulation  |
\*---------------------------------------------------------------------------*/
FoamFile
{
    version     2.0;
    format      ascii;
    class       volScalarField;
    location    "150";
    object      omega;
}
// * * * * * * * * * * * * * * * * * * * * * * * * * * * * * * * * * * * * * //

dimensions      [0 0 -1 0 0 0 0];

internalField   nonuniform List<scalar> 
16000
(
1292.8564
1581.1661
850.1699
506.99826
351.97161
260.71774
197.60063
160.95798
130.61534
110.6248
93.591204
80.912516
70.259276
61.871439
54.79687
48.98813
44.04897
39.882959
36.302931
33.225489
30.552631
28.223724
26.180676
24.38153
22.789731
21.376696
20.118149
18.994305
17.988494
17.086831
16.277591
15.550926
14.89835
14.312729
13.787822
13.318194
12.89898
12.525721
12.194327
11.901006
11.642192
11.414601
11.215206
11.041226
10.890084
10.759369
10.646828
10.550388
10.468166
10.398484
10.339894
10.291227
10.251711
10.221274
10.200883
10.188533
10.180872
10.174533
10.167585
10.15931
10.148419
10.133836
10.115434
10.09358
10.070006
10.047273
10.027405
10.010596
9.9964708
9.9846568
9.975061
9.9678531
9.9626802
9.9610618
9.9597728
9.9674423
9.9695638
9.9915582
9.9781311
10.005795
1058.9498
1624.8174
854.80816
513.48237
353.34711
263.78595
198.48046
162.30166
131.09725
111.08444
93.705302
81.016768
70.285552
61.890258
54.784134
48.966715
44.015325
39.845143
36.261707
33.183661
30.511237
28.184004
26.143278
24.346925
22.758162
21.34829
20.092922
18.97219
17.969354
17.07047
16.263828
15.539608
14.88937
14.305835
13.782621
13.314312
12.896047
12.523587
12.192926
11.900247
11.641964
11.414823
11.215806
11.042142
10.891268
10.760787
10.648445
10.552157
10.470026
10.400343
10.341625
10.292639
10.252471
10.220702
10.197891
10.184077
10.175877
10.169499
10.162684
10.154831
10.145392
10.132779
10.115984
10.095151
10.071893
10.049013
10.0289
10.011939
9.9977011
9.9858271
9.9761847
9.9689026
9.9637142
9.961794
9.9604941
9.9671883
9.9692326
9.9918019
9.9796084
10.007206
1087.7775
1668.4446
854.48356
519.05442
353.77719
266.31214
198.9256
163.2935
131.31707
111.27402
93.645233
80.995179
70.203215
61.810036
54.683922
48.865507
43.910127
39.742104
36.161487
33.088008
30.420823
28.099453
26.064895
24.274777
22.692187
21.288328
20.038757
18.923551
17.925937
17.031931
16.229781
15.509648
14.863168
14.283118
13.763178
13.297794
12.882036
12.51158
12.182677
11.891657
11.634875
11.409063
11.211227
11.038609
10.888652
10.758972
10.64732
10.551601
10.469913
10.400534
10.341965
10.292942
10.252482
10.219975
10.195407
10.179896
10.171019
10.164541
10.157765
10.150068
10.141124
10.130217
10.115368
10.095879
10.073192
10.050314
10.030062
10.01303
9.9987532
9.9868854
9.9772504
9.9699639
9.9648154
9.9627307
9.9615214
9.9674085
9.9696217
9.9920622
9.9799827
10.006616
1114.4748
1709.3486
851.43903
523.65645
353.41923
268.20525
199.00809
163.84714
131.29007
111.18911
93.444116
80.835596
70.007799
61.62332
54.491927
48.679882
43.730073
39.570806
35.999877
32.93647
30.279704
27.968681
25.94438
24.164159
22.591072
21.196245
19.955228
18.84807
17.858003
16.971025
16.175366
15.461198
14.82019
14.245118
13.729744
13.268616
12.856823
12.489858
12.163871
11.875482
11.621147
11.397546
11.201672
11.030799
10.882371
10.754021
10.643508
10.548738
10.467813
10.399015
10.340842
10.292029
10.251563
10.218748
10.193343
10.175974
10.166269
10.159641
10.152861
10.145225
10.136489
10.126193
10.113279
10.095492
10.073669
10.050969
10.030698
10.013689
9.9994628
9.9876678
9.9781117
9.9708644
9.9658286
9.9636112
9.9626596
9.967661
9.9702212
9.9909068
9.9811506
10.006568
1138.9912
1745.8307
845.94209
527.1947
352.29681
269.39019
198.74087
163.90668
131.00421
110.91843
93.105879
80.539663
69.70109
61.33153
54.209294
48.410969
43.476044
39.332135
35.77762
32.729782
30.088538
27.792305
25.782321
24.015636
22.455354
21.072563
19.842844
18.746255
17.766062
16.88827
16.101103
15.394753
14.76094
14.192472
13.683143
13.227534
12.82084
12.458666
12.136957
11.852228
11.601221
11.380679
11.187519
11.019038
10.872704
10.746158
10.637184
10.543699
10.463825
10.395857
10.338311
10.289931
10.249699
10.216862
10.191023
10.172346
10.161629
10.154803
10.14799
10.140369
10.131738
10.121757
10.109751
10.094051
10.073406
10.051063
10.030887
10.013991
9.9998973
9.9882414
9.9788239
9.9716655
9.966773
9.9644802
9.9638249
9.9680285
9.9710157
9.9900106
9.9822152
10.005911
1161.2965
1775.5619
838.3384
529.56157
350.46741
269.77369
198.14922
163.39568
130.43073
110.45975
92.631402
80.105467
69.282098
60.933394
53.834966
48.05793
43.147286
39.025519
35.494222
32.46757
29.847024
27.57012
25.578573
23.829126
22.285008
20.917307
19.701681
18.61822
17.650264
16.78385
16.007214
15.31057
14.685711
14.125478
13.623707
13.175027
12.774668
12.418318
12.10204
11.822179
11.575384
11.358673
11.168947
11.003466
10.859741
10.735438
10.628372
10.536486
10.457936
10.391047
10.33436
10.286637
10.246863
10.214259
10.188338
10.169042
10.15709
10.150012
10.143146
10.13551
10.126929
10.117134
10.105641
10.091473
10.072364
10.050576
10.030607
10.013919
10.000036
9.9885874
9.9793626
9.9723473
9.9676139
9.9653101
9.9649484
9.9684762
9.9718879
9.9889952
9.9835034
10.005657
1181.4311
1795.9779
829.12256
530.64675
348.00313
269.25827
197.26231
162.58826
129.63538
109.81655
92.023831
79.534823
68.751898
60.430211
53.369752
47.621794
42.744581
38.65182
35.15046
32.150664
29.555955
27.302932
25.333928
23.605436
22.080842
20.731292
19.532554
18.464788
17.511433
16.658592
15.894525
15.20947
14.595313
14.044939
13.552225
13.111849
12.719099
12.369686
12.059739
11.785777
11.544122
11.331964
11.1463
10.984373
10.843711
10.722038
10.61721
10.527211
10.450245
10.384673
10.329069
10.282217
10.243108
10.21095
10.185192
10.165626
10.152653
10.145262
10.138326
10.130653
10.12209
10.112406
10.101221
10.087811
10.070559
10.04954
10.029887
10.013494
9.9998973
9.9887217
9.9797427
9.9729222
9.9683595
9.9661044
9.9660035
9.969002
9.9728192
9.9881658
9.9845935
10.005274
1199.475
1804.0419
818.82721
530.31414
344.97165
267.72113
196.07172
161.52246
128.69179
108.99149
91.28379
78.828903
68.110329
59.822636
52.813714
47.103127
42.268294
38.211621
34.746889
31.77971
29.216008
26.991459
25.049139
23.345349
21.843662
20.515348
19.336317
18.286825
17.350445
16.513377
15.763919
15.092332
14.490614
13.951701
13.469514
13.038783
12.654859
12.313488
12.010785
11.74351
11.507883
11.300939
11.11988
10.961998
10.824804
10.706107
10.603823
10.51598
10.440848
10.376827
10.322525
10.276747
10.238495
10.206966
10.18157
10.161986
10.148319
10.140539
10.133522
10.125798
10.11723
10.10762
10.096658
10.083804
10.067991
10.047979
10.028746
10.012734
9.999493
9.9886513
9.9799697
9.973392
9.969014
9.9668585
9.9669741
9.9695869
9.9737255
9.9871244
9.9856582
10.004967
1215.5515
1796.1245
808.00191
528.36653
341.4384
265.46399
194.54707
160.20711
127.60467
107.98809
90.411224
77.989613
67.357519
59.112108
52.167545
46.503167
41.719457
37.706092
34.284667
31.355924
28.8284
26.636943
24.725448
23.050127
21.574741
20.270756
19.114251
18.085611
17.168569
16.34946
15.61664
14.960367
14.372787
13.84689
13.376642
12.956827
12.582867
12.250556
11.955954
11.696106
11.467148
11.266029
11.090066
10.936643
10.803276
10.687859
10.588399
10.502965
10.429904
10.367655
10.314858
10.270339
10.233111
10.202367
10.177495
10.158107
10.144106
10.135837
10.12873
10.120945
10.112358
10.102795
10.091997
10.079538
10.064664
10.045937
10.027217
10.011665
9.9988449
9.9883927
9.9800582
9.9737669
9.9695919
9.9675757
9.9678619
9.9702269
9.9746243
9.9862459
9.9865779
10.004535
1229.8312
1770.8087
796.81893
524.50292
337.46595
262.82184
192.64244
158.6537
126.37861
106.81235
89.406909
77.020432
66.494489
58.300838
51.432556
45.82365
41.099517
37.136765
33.76527
30.88082
28.394641
26.240904
24.36438
22.721303
21.275618
19.999055
18.867896
17.862676
16.967314
16.168322
15.454134
14.814976
14.243171
13.731772
13.274795
12.86707
12.504105
12.181788
11.896018
11.644228
11.42246
11.227707
11.057241
10.908628
10.779405
10.667542
10.571165
10.488374
10.417601
10.357325
10.306213
10.263113
10.227048
10.197216
10.172994
10.153962
10.139948
10.131145
10.123945
10.116095
10.107481
10.097949
10.087279
10.075123
10.060886
10.043461
10.025342
10.010319
9.9979783
9.9879652
9.9800237
9.9740581
9.9701095
9.9682605
9.9686742
9.9709095
9.9755037
9.9855104
9.9874089
10.004017
1242.5397
1747.7571
784.19353
518.41809
333.11249
259.86085
190.53631
156.88472
125.01934
105.47458
88.273135
75.926556
65.523287
57.391883
50.610758
45.06684
40.410457
36.505584
33.190622
30.356327
27.916653
25.805258
23.967848
22.360809
20.948219
19.702164
18.599158
17.619903
16.748516
15.971738
15.278124
14.6578
14.103313
13.607791
13.1653
12.770712
12.419631
12.10814
11.831777
11.588586
11.374468
11.186491
11.021823
10.878333
10.753534
10.645463
10.552402
10.472458
10.404162
10.346028
10.296751
10.255199
10.22041
10.191588
10.16811
10.149534
10.135629
10.12646
10.119166
10.111249
10.102604
10.093095
10.082534
10.070637
10.05694
10.04061
10.023168
10.008737
9.9969256
9.987394
9.9798858
9.9742806
9.970586
9.9689228
9.9694281
9.9716261
9.9763547
9.9849599
9.9881297
10.003509
1253.9547
1726.3651
770.58005
510.305
328.39203
256.64107
188.36396
154.92147
123.52799
103.98382
87.010706
74.712288
64.445448
56.38784
49.703981
44.234899
39.654358
35.814612
32.557073
29.778598
27.390749
25.326615
23.532824
21.966019
20.590304
19.378201
18.306476
17.356007
16.511121
15.758834
15.087914
14.488266
13.952733
13.474536
13.047804
12.66744
12.329123
12.029371
11.764087
11.529924
11.323825
11.142954
10.984297
10.846197
10.726065
10.62198
10.532436
10.455502
10.389831
10.333969
10.286638
10.24673
10.2133
10.185563
10.1629
10.144859
10.131164
10.121778
10.114392
10.106411
10.097736
10.088248
10.077783
10.066111
10.052871
10.03745
10.02075
10.006964
9.9957237
9.9867083
9.9796657
9.9744513
9.9710411
9.9695757
9.9701463
9.9723701
9.9771728
9.9846214
9.9887916
10.002834
1264.3362
1705.9192
756.01329
501.74295
323.25162
253.19398
186.1287
152.77683
121.89931
102.34496
85.617756
73.379599
63.261212
55.290122
48.703259
43.31673
38.81986
35.054329
31.866545
29.151113
26.82135
24.809896
23.064455
21.542186
20.207088
19.032258
17.994776
17.075713
16.2596
15.533785
14.887427
14.310001
13.794754
13.335026
12.925033
12.559707
12.234679
11.946983
11.69243
11.467793
11.270138
11.096794
10.945216
10.81272
10.69746
10.597493
10.511625
10.43781
10.374861
10.321355
10.276042
10.23784
10.205823
10.179222
10.157427
10.13998
10.126576
10.117099
10.109629
10.101589
10.09289
10.083423
10.073048
10.061575
10.048727
10.034053
10.018148
10.005051
9.9944147
9.985941
9.9793873
9.974588
9.9714927
9.9702342
9.9708556
9.9731382
9.9779541
9.9845007
9.9894295
10.002174
1273.9959
1685.454
740.58586
492.80905
317.84217
249.55796
183.83001
150.46601
120.12854
100.56336
84.093241
71.930525
61.948826
54.074908
47.603919
42.314616
37.912828
34.231672
31.122111
28.477051
26.211783
24.258472
22.566076
21.092662
19.80187
18.667548
17.667164
16.782007
15.996775
15.299152
14.679086
14.125219
13.631373
13.191038
12.798573
12.448982
12.137602
11.862338
11.61881
11.403938
11.214901
11.04906
10.904233
10.777622
10.667548
10.572423
10.49035
10.4197
10.359511
10.308395
10.265128
10.22866
10.198085
10.17265
10.151754
10.134943
10.121893
10.112429
10.104883
10.096793
10.088078
10.078639
10.068354
10.057064
10.044555
10.030497
10.015428
10.003052
9.9930435
9.985128
9.9790754
9.9747083
9.9719549
9.970913
9.9715824
9.9739298
9.9786935
9.9845594
9.9900458
10.001675
1283.2349
1663.5237
724.34841
483.56044
312.61439
245.76454
181.45577
147.99993
118.20762
98.64111
82.396479
70.315283
60.49977
52.746349
46.407594
41.230905
36.936202
33.349905
30.327384
27.760145
25.565995
23.676359
22.041598
20.621383
19.37849
18.287762
17.32716
16.478237
15.725799
15.057682
14.463435
13.934276
13.462777
13.042608
12.668328
12.335222
12.039167
11.776562
11.544223
11.339253
11.159009
11.000681
10.862708
10.742052
10.637098
10.546531
10.468459
10.401492
10.34404
10.295296
10.254062
10.219321
10.19019
10.16593
10.145949
10.129799
10.117145
10.107776
10.100165
10.092038
10.083319
10.073918
10.063727
10.052613
10.040405
10.026863
10.012656
10.001022
9.991657
9.9843065
9.9787566
9.9748285
9.9724366
9.9716228
9.9723503
9.9747489
9.9793879
9.9847337
9.9905842
10.001337
1292.3272
1637.9983
707.30658
474.00698
307.59238
241.83692
178.98134
145.38408
116.12486
96.491342
80.499503
68.537914
58.912423
51.304914
45.116128
40.068357
35.893584
32.413031
29.486871
27.004966
24.888837
23.068484
21.495653
20.129755
18.938001
17.893662
16.975304
16.164809
15.447056
14.810337
14.244459
13.740872
13.292366
12.892816
12.536976
12.220307
11.938853
11.689168
11.468214
11.273306
11.102199
10.952385
10.821296
10.706656
10.606756
10.520716
10.446508
10.383001
10.328706
10.282262
10.243003
10.209949
10.18224
10.159146
10.140077
10.124597
10.112368
10.103153
10.095492
10.087341
10.078632
10.069282
10.059196
10.048259
10.03633
10.023229
10.009899
9.9990178
9.9903012
9.9835143
9.9784582
9.9749641
9.97294
9.9723662
9.9731757
9.975607
9.9800521
9.9849863
9.9909976
10.001114
1301.5565
1605.6918
689.41774
464.12984
302.76939
237.79364
176.37099
142.55431
113.72223
94.097165
78.39226
66.593935
57.185217
49.751513
43.732375
38.830862
34.789972
31.426343
28.60652
26.217245
24.181356
22.435587
20.929876
19.62443
18.487258
17.491989
16.618046
15.84785
15.166129
14.561824
14.025055
13.547557
13.122384
12.74366
12.406373
12.106196
11.839373
11.602616
11.392982
11.207922
11.045674
10.903689
10.779562
10.671167
10.577006
10.495449
10.42492
10.364679
10.313308
10.269506
10.232117
10.200672
10.174334
10.15238
10.134207
10.119392
10.107599
10.098579
10.090882
10.082723
10.07404
10.064759
10.054792
10.044039
10.03238
10.019674
10.007219
9.9970907
9.9890198
9.9827871
9.9782079
9.9751298
9.9734623
9.9731342
9.9740575
9.9765111
9.9807188
9.9853315
9.9913841
10.000885
1311.0388
1561.622
671.3433
453.86907
298.0908
233.65175
173.58787
139.34306
110.98787
91.441601
76.063192
64.478333
55.317434
48.088363
42.261082
37.52413
33.632515
30.396838
27.686284
25.39814
23.452467
21.787141
20.35321
19.111855
18.032268
17.088164
16.260134
15.531712
14.886868
14.315526
13.808181
13.356909
12.955076
12.597096
12.278225
11.994388
11.742062
11.518136
11.319734
11.144208
10.990649
10.856197
10.738763
10.636334
10.547427
10.47049
10.40408
10.346863
10.298201
10.256838
10.221582
10.191621
10.166568
10.145712
10.128404
10.114236
10.10288
10.094078
10.086362
10.078212
10.069572
10.060376
10.050546
10.039991
10.028605
10.016272
10.004678
9.9952893
9.9878518
9.9821575
9.9780329
9.9753426
9.9740019
9.9739077
9.9749694
9.9774489
9.9814091
9.9857535
9.9917661
10.0006
1320.7222
1514.3024
654.46864
443.07696
293.40665
229.41287
170.219
135.69908
107.88041
88.501864
73.498796
62.18582
53.309787
46.319656
40.709784
36.156115
32.419178
29.324456
26.738357
24.559976
22.711279
21.131675
19.773568
18.599088
17.579619
16.688069
15.906364
15.218317
14.610625
14.07232
13.594324
13.1691
12.790367
12.452862
12.152134
11.884386
11.646359
11.435175
11.248194
11.08313
10.938019
10.810586
10.699519
10.602835
10.518941
10.446359
10.383742
10.329865
10.28363
10.244544
10.211229
10.182941
10.159034
10.139221
10.122735
10.109187
10.098255
10.089682
10.081962
10.073836
10.065256
10.056162
10.046487
10.036149
10.025052
10.013088
10.002328
9.9936558
9.9868302
9.9816524
9.9779571
9.9756224
9.9745656
9.974672
9.9758728
9.9783884
9.9821239
9.9862144
9.992141
10.000236
1330.3323
1464.3816
639.06993
431.55599
288.47953
224.54124
166.78043
131.57399
104.35119
85.252999
70.688541
59.715201
51.168047
44.454269
39.075807
34.725962
31.167026
28.226822
25.775341
23.714416
21.968474
20.478889
19.199916
18.093514
17.132906
16.294813
15.560322
14.913993
14.34317
13.837448
13.388243
12.988455
12.632191
12.314533
12.031336
11.779091
11.554791
11.355749
11.179505
11.023987
10.887383
10.767508
10.662324
10.571088
10.491926
10.423432
10.364333
10.313464
10.269789
10.232824
10.201295
10.174497
10.151818
10.132981
10.117266
10.1043
10.093771
10.085427
10.07772
10.069633
10.061125
10.052148
10.042643
10.032541
10.021755
10.01018
10.000215
9.9922246
9.9859804
9.9812908
9.9779976
9.9759866
9.9751697
9.9754311
9.9767386
9.9792662
9.9827896
9.9866533
9.992474
9.9998559
1339.1397
1409.2802
625.65841
420.38888
285.33235
218.86068
162.06663
126.86571
100.35818
81.671502
67.62863
57.073844
48.906562
42.492622
37.380959
33.258504
29.894275
27.120664
24.812357
22.874935
21.235946
19.838998
18.637892
17.601148
16.701371
15.91649
15.228618
14.623182
14.088269
13.614107
13.19266
12.817304
12.482555
12.18385
11.917357
11.679852
11.468574
11.281016
11.114927
10.968387
10.839604
10.726406
10.627572
10.541427
10.466679
10.401998
10.346179
10.298119
10.256839
10.221839
10.191964
10.166545
10.145004
10.127066
10.112062
10.099634
10.089481
10.081356
10.073678
10.065645
10.057221
10.048366
10.039037
10.029179
10.018727
10.007595
9.9983738
9.9910213
9.9853191
9.9810828
9.9781612
9.9764429
9.9758299
9.9762087
9.9775745
9.9800433
9.9833208
9.9869787
9.9924907
9.999438
1345.941
1373.3796
614.59146
419.30434
283.36959
211.49425
156.58906
121.48771
95.870234
77.761419
64.335229
54.286742
46.531566
40.468857
35.653641
31.77931
28.623801
26.026162
23.866939
22.05652
20.526666
19.220777
18.099736
17.132074
16.292061
15.559016
14.916209
14.35004
13.849408
13.405231
13.010058
12.657759
12.343272
12.062382
11.811562
11.587858
11.388704
11.211802
11.055285
10.917228
10.795646
10.689102
10.595587
10.514134
10.443432
10.382246
10.329439
10.283957
10.244914
10.211702
10.183333
10.159175
10.138675
10.121551
10.10719
10.095249
10.08544
10.077519
10.069888
10.061922
10.053592
10.044864
10.035703
10.02607
10.015923
10.005368
9.9968305
9.9900627
9.9848555
9.9810312
9.9784452
9.9769868
9.9765487
9.9770248
9.9784208
9.9807867
9.9838103
9.9872792
9.9924275
9.9988701
1348.5054
1366.0722
604.94426
411.5052
276.14784
203.34804
150.03085
115.52237
90.912288
73.568701
60.851539
51.376653
44.097098
38.423779
33.929369
30.319181
27.382331
24.966318
22.958492
21.274622
19.850815
18.638029
17.595176
16.694337
15.911634
15.227907
14.627679
14.098381
13.629775
13.213492
12.842682
12.511721
12.215961
11.951535
11.715211
11.504237
11.316142
11.148717
11.001136
10.871081
10.756457
10.655327
10.566697
10.489482
10.422413
10.36435
10.314257
10.27103
10.234143
10.202522
10.175493
10.152464
10.132915
10.116511
10.10272
10.091212
10.081708
10.073972
10.066408
10.058528
10.050306
10.041712
10.032715
10.02328
10.01337
10.003528
9.9956024
9.9893576
9.9845917
9.9811332
9.9788431
9.9776088
9.9773184
9.9778763
9.9792855
9.981534
9.9843239
9.9875931
9.9922897
9.9979876
1343.3224
1371.1424
592.62057
397.98614
267.03203
193.8334
142.40696
108.92709
85.556675
69.168261
57.261587
48.423368
41.664857
36.409002
32.251826
28.915046
26.201155
23.967914
22.110559
20.551014
19.230233
18.102965
17.134071
16.295935
15.56662
14.928534
14.367476
13.871919
13.432479
13.041496
12.692712
12.380995
12.102111
11.852555
11.629402
11.430121
11.252404
11.094336
10.954413
10.830939
10.721769
10.625434
10.541187
10.467741
10.403868
10.348451
10.300896
10.259908
10.224661
10.194413
10.168526
10.146445
10.127811
10.112026
10.098724
10.087588
10.078347
10.070773
10.063297
10.055524
10.047432
10.038993
10.030181
10.020965
10.011314
10.002091
9.9946981
9.9889066
9.9845221
9.9813792
9.9793426
9.9782978
9.978132
9.9787609
9.9801765
9.9823221
9.9849425
9.9880718
9.9923925
9.9974695
1326.0676
1311.7592
580.17529
381.30204
255.59298
182.94269
133.842
101.87152
79.981343
64.714219
53.69292
45.528991
39.314256
34.487468
30.671732
27.60789
25.112966
23.056924
21.343814
19.902382
18.678912
17.632318
16.730727
15.94909
15.267483
14.669911
14.143434
13.677532
13.263625
12.894711
12.565063
12.269985
12.00561
11.768758
11.556779
11.367348
11.198228
11.047783
10.914565
10.796624
10.691942
10.59952
10.519177
10.449138
10.388244
10.335451
10.289805
10.250447
10.216611
10.187534
10.162596
10.141456
10.123453
10.108178
10.095278
10.084447
10.075423
10.067983
10.060612
10.052964
10.045017
10.036749
10.028137
10.019153
10.009772
10.001067
9.994117
9.9887016
9.9846322
9.9817485
9.9799179
9.9790242
9.9789575
9.9796417
9.9810533
9.9831078
9.9856031
9.9886248
9.9926308
9.9971829
1293.1076
1252.5362
567.94329
362.15592
242.20128
171.04396
124.66968
94.645946
74.421703
60.380075
50.278397
42.798339
37.117694
32.71064
29.227071
26.42785
24.139786
22.249033
20.668916
19.335255
18.19975
17.225475
16.383767
15.652055
15.01235
14.450161
13.953734
13.513488
13.121589
12.77163
12.458356
12.177443
11.92533
11.699077
11.496159
11.315094
11.153356
11.00954
10.882035
10.768729
10.668148
10.579637
10.502214
10.434716
10.375976
10.324987
10.280832
10.242674
10.210061
10.182034
10.158006
10.13746
10.119942
10.105058
10.092464
10.081864
10.073004
10.065664
10.058413
10.050903
10.043114
10.035027
10.026621
10.017874
10.008761
10.000461
9.9938562
9.9887319
9.9849042
9.9822169
9.9805388
9.9797532
9.9797544
9.9804712
9.9818631
9.9838328
9.9862312
9.9891532
9.9928706
9.996961
1239.8878
1186.3515
558.67464
342.51032
227.32896
158.85278
115.6629
87.935742
69.446583
56.62268
47.395372
40.551889
35.34521
31.296237
28.086491
25.498388
23.380103
21.623581
20.150417
18.902658
17.836702
16.91918
16.124135
15.431072
14.8236
14.288475
13.814918
13.394118
13.018861
12.683231
12.382368
12.112276
11.869676
11.651837
11.456368
11.281121
11.124536
10.985224
10.861251
10.750651
10.652531
10.566217
10.490564
10.424955
10.367835
10.318241
10.275292
10.238189
10.20621
10.178711
10.155118
10.134929
10.117699
10.103042
10.090621
10.080145
10.071362
10.064054
10.056934
10.049569
10.041943
10.034039
10.025841
10.017329
10.008487
10.000436
9.9940423
9.9890944
9.9854104
9.9828359
9.9812393
9.9805038
9.9805282
9.9812416
9.9825889
9.9844728
9.9867917
9.9896256
9.9931022
9.9968444
1173.4446
1122.1638
540.55601
320.74554
208.53916
144.24992
105.42373
80.735735
64.305659
52.862766
44.588875
38.420949
33.703476
30.014376
27.073686
24.689776
22.728288
21.09349
19.715804
18.543672
17.538183
16.669446
15.914109
15.253643
14.673151
14.160529
13.705867
13.301021
12.939287
12.61515
12.324083
12.062358
11.826901
11.615088
11.425304
11.255068
11.103006
10.967421
10.846156
10.737925
10.642187
10.557966
10.484109
10.419555
10.363299
10.314414
10.272047
10.235419
10.203828
10.176645
10.153309
10.133327
10.116263
10.101737
10.089417
10.079016
10.070285
10.063009
10.056026
10.048806
10.041336
10.033598
10.025577
10.017255
10.008616
10.000719
9.9944528
9.9896079
9.9860037
9.9834861
9.9819229
9.9811977
9.9812125
9.9818931
9.9831728
9.9849641
9.9872003
9.9899232
9.9931551
9.9966269
1124.3589
1123.3799
542.67814
318.40605
205.53575
141.33375
103.07081
79.03531
63.108768
52.026316
44.009194
38.023806
33.436113
29.839092
26.962318
24.622155
22.690696
21.076494
19.712833
18.550107
17.550764
16.685877
15.932794
15.273499
14.693476
14.180899
13.726065
13.320979
12.959029
12.634653
12.343283
12.081204
11.845321
11.632968
11.441945
11.270595
11.117326
10.980069
10.857057
10.747513
10.650679
10.565407
10.490569
10.425106
10.368023
10.318392
10.275359
10.238143
10.206036
10.178403
10.154677
10.134357
10.117001
10.102223
10.089685
10.079094
10.070195
10.06277
10.055964
10.048933
10.041661
10.034133
10.026335
10.018251
10.009864
10.001821
9.9954403
9.9905038
9.9868245
9.9842425
9.98262
9.9818376
9.9817956
9.9824127
9.9836143
9.9853249
9.9874944
9.990119
9.9931623
9.9964773
1137.5369
1181.5407
561.42761
330.3987
212.605
145.77533
105.86833
80.891589
64.392238
52.946042
44.684363
38.529221
33.820761
30.136613
27.196751
24.810404
22.844442
21.203949
19.819866
18.640998
17.628696
16.753278
15.991555
15.325131
14.7392
14.221705
13.762746
13.354152
12.989151
12.662208
12.36871
12.104813
11.867257
11.653288
11.460861
11.288361
11.133709
10.994613
10.869975
10.75922
10.661232
10.574836
10.498936
10.432482
10.374487
10.324028
10.28025
10.242371
10.209677
10.18153
10.157355
10.136646
10.118955
10.103889
10.091106
10.080307
10.071234
10.063663
10.057035
10.050186
10.043102
10.035768
10.028171
10.020295
10.012125
10.003809
9.9971871
9.9920372
9.9881682
9.9854161
9.9836399
9.9827183
9.9825488
9.9830445
9.9841288
9.9857338
9.9878097
9.9903223
9.9932241
9.9964537
31659.627
36649.806
20217.102
13492.799
9378.5826
6633.0114
4752.4383
3461.8917
2554.532
1909.2203
1435.1035
1088.4568
829.12506
636.94628
486.74161
370.92235
281.88576
215.15757
165.39498
128.50257
101.02687
80.705041
65.632241
54.434622
46.029268
39.688017
34.855214
31.084926
28.076995
25.625125
23.586965
21.862465
20.381366
19.093324
17.962829
16.964541
16.079589
15.293518
14.594939
13.974834
13.425497
12.940037
12.512369
12.137144
11.809405
11.524523
11.278224
11.066514
10.885862
10.734502
10.616015
10.519966
10.435951
10.363463
10.306118
10.264526
10.235637
10.214568
10.197322
10.181361
10.165571
10.149768
10.131733
10.113772
10.090928
10.073967
10.048957
10.039649
10.012253
10.011088
9.9774521
9.9806515
9.9463937
9.9535788
9.928103
9.9473361
9.9328671
9.9592665
9.9420255
9.9726305
37516.743
32267.992
23861.326
17133.654
12038.91
8428.9664
5973.4699
4288.9469
3120.1874
2294.2419
1701.8346
1270.1631
952.76817
717.21204
541.7324
410.3312
311.91271
238.14874
182.99729
141.70253
110.88876
87.968863
70.976469
58.360129
48.909667
41.820529
36.467005
32.327285
29.045859
26.391647
24.202255
22.362532
20.791646
19.432511
18.244772
17.199461
16.275339
15.456416
14.73018
14.086758
13.517758
13.015745
12.574266
12.187426
11.849982
11.557059
11.304124
11.086943
10.901572
10.745425
10.623713
10.525229
10.439111
10.364797
10.30656
10.264445
10.235431
10.214496
10.197469
10.181796
10.166256
10.150805
10.132874
10.115126
10.091921
10.074794
10.048909
10.038644
10.01047
10.007481
9.9745513
9.9754819
9.944454
9.951342
9.9286163
9.9474272
9.9340763
9.960345
9.9432896
9.9726951
41489.252
22266.966
13327.667
7044.6965
3128.73
1288.9409
595.55388
338.24155
241.57878
190.47327
159.548
135.20553
116.7329
101.382
89.392087
78.873102
70.102213
62.501853
56.0439
50.533785
45.837564
41.764606
38.366258
35.320337
32.524281
30.115611
28.000411
26.057016
24.309883
22.741229
21.332036
20.064048
18.921691
17.891708
16.963092
16.126249
15.372977
14.6962
14.089604
13.54777
13.065237
12.636939
12.258276
11.925038
11.633183
11.378909
11.158611
10.968846
10.806373
10.669789
10.56736
10.48105
10.401741
10.334317
10.284068
10.2491
10.225387
10.207709
10.192329
10.177629
10.162608
10.147765
10.129669
10.112311
10.08826
10.071952
10.044583
10.035332
10.005151
10.003075
9.9689995
9.9718677
9.941101
9.9502871
9.9282438
9.9482621
9.9347544
9.9618519
9.9441653
9.9732597
38582.795
25919.57
13181.978
5561.4158
1862.1624
612.44237
325.78301
232.96136
198.34834
165.02649
144.28176
123.69098
108.44301
94.803634
84.508306
74.939906
67.099261
60.120273
54.243743
49.125212
44.71431
40.86848
37.58353
34.579673
31.923259
29.579348
27.477486
25.585503
23.892923
22.373403
21.008239
19.779206
18.671645
17.67283
16.771981
15.959787
15.228391
14.571052
13.981658
13.454965
12.985788
12.569249
12.20093
11.876678
11.592628
11.345108
11.130626
10.945836
10.787596
10.654776
10.555251
10.470147
10.391804
10.326487
10.278386
10.245198
10.222744
10.205883
10.190971
10.176695
10.161958
10.147389
10.129266
10.111815
10.087377
10.070462
10.042453
10.031941
10.001802
9.9979832
9.9659105
9.9675381
9.9401144
9.9497422
9.9290903
9.9494482
9.9359272
9.9633526
9.9453441
9.9738746
40619.892
24949.342
12245.525
5083.2885
1649.8924
555.15768
313.83357
228.35703
196.05573
162.52932
142.34175
121.75346
106.69919
93.171226
83.092037
73.539537
65.921957
58.937862
53.279622
48.221603
43.937517
40.132483
36.815441
33.872751
31.299177
29.004552
26.961815
25.133457
23.498343
22.028674
20.706762
19.515322
18.440738
17.470748
16.595328
15.805677
15.094277
14.45468
13.880975
13.368185
12.911319
12.505653
12.146895
11.831014
11.554265
11.313089
11.104088
10.924001
10.769773
10.640551
10.543692
10.45959
10.38229
10.319105
10.273102
10.241612
10.220357
10.204245
10.18979
10.17589
10.161439
10.147031
10.128873
10.111124
10.08634
10.068549
10.040207
10.02833
9.9988774
9.9933573
9.9638108
9.9635433
9.9399896
9.9485835
9.9301196
9.9500283
9.9370842
9.9646232
9.9465182
9.9746364
41170.585
24111.108
11543.323
4393.9111
1282.5163
449.06339
290.90273
218.93762
191.83313
157.51792
139.27672
118.21369
104.39451
90.584661
81.156579
71.605232
64.269864
57.454283
52.005521
47.084244
42.93244
39.244152
36.064316
33.23264
30.737296
28.506564
26.523322
24.746906
23.157112
21.726753
20.439556
19.278886
18.231669
17.286211
16.432887
15.663094
14.969515
14.34591
13.786493
13.286481
12.841011
12.445467
12.09565
11.787634
11.517772
11.282597
11.078791
10.903173
10.752763
10.626998
10.532566
10.449289
10.373197
10.312171
10.268213
10.238356
10.218238
10.202838
10.188818
10.175279
10.161071
10.146745
10.128452
10.110248
10.085008
10.066229
10.037638
10.024466
9.9960012
9.9891066
9.9621668
9.9609355
9.9402491
9.9485527
9.93118
9.951034
9.9382685
9.9659909
9.9476998
9.9755176
42084.342
23230.665
10689.952
3895.5333
1085.8726
404.19606
279.50885
213.13163
187.38256
153.74644
136.35216
115.17362
102.61479
88.956775
79.433615
70.098867
62.962333
56.298394
51.008298
46.202482
42.156363
38.557225
35.446795
32.676097
30.239779
28.063841
26.129466
24.396494
22.845424
21.449568
20.193197
19.060116
18.037728
17.114671
16.281539
15.529931
14.852728
14.243862
13.697641
13.209483
12.774626
12.388535
12.047095
11.746474
11.483108
11.25361
11.054728
10.883358
10.736585
10.614142
10.52186
10.439249
10.364641
10.30578
10.263806
10.235511
10.216466
10.201729
10.18811
10.174883
10.160853
10.146484
10.127947
10.109119
10.083388
10.063583
10.034955
10.020682
9.9935188
9.9855993
9.9611507
9.9593083
9.9408694
9.9488941
9.9322681
9.952047
9.9394558
9.9673453
9.9488827
9.9765002
42801.194