/*--------------------------------*- C++ -*----------------------------------*\
  =========                 |
  \\      /  F ield         | OpenFOAM: The Open Source CFD Toolbox
   \\    /   O peration     | Website:  https://openfoam.org
    \\  /    A nd           | Version:  6
     \\/     M anipulation  |
\*---------------------------------------------------------------------------*/
FoamFile
{
    version     2.0;
    format      ascii;
    class       volScalarField;
    location    "150";
    object      p;
}
// * * * * * * * * * * * * * * * * * * * * * * * * * * * * * * * * * * * * * //

dimensions      [1 -1 -2 0 0 0 0];

internalField   nonuniform List<scalar> 
16000
(
98288.223
98353.066
98358.018
98421.296
98434.886
98493.355
98516.899
98570.707
98603.07
98653.931
98693.161
98742.957
98787.272
98837.422
98885.507
98936.85
98987.821
99040.72
99093.963
99148.444
99203.477
99259.341
99315.711
99372.608
99429.831
99487.297
99544.838
99602.322
99659.586
99716.476
99772.828
99828.432
99883.203
99936.804
99989.028
100039.81
100088.99
100136.6
100182.43
100226.28
100268.07
100307.7
100345.08
100380.13
100412.8
100443.04
100470.84
100496.18
100519.06
100539.5
100557.52
100573.14
100586.41
100597.36
100606.06
100612.55
100616.92
100619.23
100619.58
100618.06
100614.73
100609.73
100603.05
100594.94
100585.16
100574.42
100561.59
100548.98
100532.51
100519.71
100497.29
100488.82
100453.1
100461.68
100390.84
100450.93
100290.97
100476.32
100142.02
100523.84
98305.077
98374.564
98379.525
98448.006
98461.812
98525.22
98549.778
98607.956
98642.171
98696.893
98738.615
98791.936
98839.133
98892.618
98943.772
98998.338
99052.414
99108.43
99164.708
99222.162
99280.07
99338.699
99397.7
99457.073
99516.6
99576.172
99635.604
99694.743
99753.407
99811.422
99868.603
99924.773
99979.754
100033.33
100085.4
100135.63
100183.94
100230.12
100274.27
100316.23
100355.83
100393.02
100427.75
100459.97
100489.64
100516.76
100541.33
100563.37
100582.92
100600.01
100614.7
100627.05
100637.11
100644.95
100650.65
100654.29
100655.93
100655.66
100653.57
100649.76
100644.29
100637.27
100628.76
100618.89
100607.62
100595.24
100581.38
100566.95
100550.35
100534.75
100514.26
100500.02
100471.06
100466.66
100412.85
100446.65
100319.38
100464.35
100167.58
100516.84
98341.029
98416.21
98421.197
98495.221
98509.688
98578.057
98604.181
98666.659
98703.235
98761.761
98806.378
98863.214
98913.582
98970.432
99024.845
99082.673
99139.965
99199.12
99258.472
99318.88
99379.632
99440.944
99502.466
99564.16
99625.791
99687.222
99748.25
99808.696
99868.362
99927.054
99984.576
100040.74
100095.34
100148.22
100199.19
100248.1
100294.78
100339
100380.65
100419.87
100456.52
100490.49
100521.79
100550.4
100576.32
100599.58
100620.23
100638.31
100653.9
100667.05
100677.86
100686.4
100692.75
100697.01
100699.26
100699.59
100698.09
100694.86
100689.97
100683.54
100675.63
100666.34
100655.73
100643.91
100630.88
100616.8
100601.56
100585.53
100568.08
100550.54
100530.34
100512.63
100486.95
100474.52
100431.43
100446.69
100342.97
100456.14
100191.61
100511.93
98398.626
98479.998
98484.951
98565.149
98580.332
98654.198
98682.09
98749.299
98788.545
98851.236
98899.098
98959.772
99013.656
99074.165
99132.141
99193.487
99254.237
99316.729
99379.319
99442.796
99506.457
99570.467
99634.463
99698.369
99761.93
99824.978
99887.287
99948.655
100008.86
100067.7
100124.96
100180.44
100233.95
100285.31
100334.35
100380.94
100424.91
100466.23
100504.67
100540.12
100572.83
100602.63
100629.53
100653.6
100674.87
100693.4
100709.28
100722.59
100733.43
100741.9
100748.12
100752.19
100754.21
100754.29
100752.55
100749.07
100743.97
100737.35
100729.29
100719.88
100709.22
100697.38
100684.43
100670.44
100655.46
100639.56
100622.73
100605.12
100586.51
100567.42
100546.77
100526.8
100502.54
100484.96
100448.58
100450.77
100364.93
100452.73
100214.35
100514.27
98477.416
98565.804
98570.727
98657.814
98673.919
98753.794
98783.815
98856.125
98898.471
98965.627
99017.155
99081.939
99139.702
99204.117
99265.942
99331.009
99395.415
99461.375
99527.299
99593.881
99660.433
99727.054
99793.373
99859.266
99924.458
99988.747
100051.88
100113.64
100173.79
100232.09
100288.34
100342.33
100393.86
100442.78
100488.93
100532.19
100572.45
100609.64
100643.76
100674.64
100702.3
100726.96
100748.53
100767.15
100782.9
100795.88
100806.22
100814.03
100819.45
100822.62
100823.67
100822.72
100819.91
100815.37
100809.21
100801.55
100792.5
100782.16
100770.64
100758.01
100744.35
100729.76
100714.27
100697.97
100680.88
100663.06
100644.52
100625.32
100605.38
100584.89
100563.42
100541.81
100517.94
100496.95
100464.9
100457.37
100385.69
100452.47
100236.8
100519.99
98578.712
98674.941
98679.805
98774.536
98791.767
98878.21
98910.758
98988.589
99034.528
99106.506
99162.192
99231.421
99293.491
99362.122
99428.133
99497.174
99565.464
99635.05
99704.409
99774.121
99843.515
99912.616
99981.038
100048.61
100115.03
100180.06
100243.44
100304.91
100364.22
100421.14
100475.44
100526.94
100575.45
100620.83
100662.95
100701.73
100737.09
100769.03
100797.5
100822.65
100844.26
100862.71
100878.01
100890.23
100899.58
100906.18
100910.2
100911.8
100911.14
100908.4
100903.72
100897.26
100889.17
100879.59
100868.65
100856.47
100843.17
100828.86
100813.64
100797.57
100780.75
100763.24
100745.08
100726.34
100707.05
100687.23
100666.9
100646.09
100624.75
100602.93
100580.47
100557.6
100533.56
100510.27
100481.02
100466.18
100405.88
100454.87
100259.58
100529.09
98702.006
98807.103
98812.027
98915.368
98934.109
99027.85
99063.525
99147.43
99197.64
99274.911
99335.381
99409.486
99476.377
99549.595
99620.166
99693.45
99765.845
99839.181
99912.021
99984.813
100056.9
100128.23
100198.39
100267.17
100334.24
100399.33
100462.15
100522.43
100579.91
100634.37
100685.6
100733.4
100777.64
100818.19
100854.98
100887.97
100917.15
100942.56
100964.25
100982.26
100996.92
101008.02
101016
101020.9
101022.98
101022.42
101019.4
101014.15
101006.84
100997.67
100986.81
100974.44
100960.71
100945.78
100929.79
100912.86
100895.12
100876.67
100857.59
100837.96
100817.86
100797.33
100776.43
100755.19
100733.64
100711.79
100689.65
100667.21
100644.45
100621.36
100597.86
100573.95
100549.45
100524.61
100497.15
100476.8
100426.33
100459.49
100283.28
100540.21
98847.968
98963.216
98968.544
99081.74
99102.574
99204.515
99244.092
99334.71
99389.988
99473.074
99539.014
99618.448
99690.683
99768.849
99844.326
99922.076
99998.725
100075.85
100152.11
100227.79
100302.27
100375.39
100446.74
100516.04
100582.94
100647.15
100708.35
100766.29
100820.69
100871.36
100918.09
100960.75
100999.23
101033.47
101063.46
101089.2
101110.78
101128.29
101141.85
101151.67
101157.97
101160.74
101160.4
101157.13
101151.16
101142.73
101132.07
101119.41
101104.97
101088.95
101071.56
101052.97
101033.35
101012.87
100991.65
100969.84
100947.54
100924.84
100901.84
100878.6
100855.17
100831.61
100807.94
100784.19
100760.37
100736.5
100712.55
100688.52
100664.37
100640.07
100615.55
100590.75
100565.65
100539.84
100513.43
100489.05
100446.76
100466.06
100307.99
100552.99
99020.064
99147.52
99153.415
99277.511
99300.759
99411.561
99455.691
99553.477
99614.533
99703.84
99775.857
99860.995
99939.014
100022.41
100103.04
100185.38
100266.3
100347.11
100426.54
100504.75
100581.08
100655.32
100727.01
100795.85
100861.46
100923.52
100981.74
101035.83
101085.59
101130.81
101171.38
101207.18
101238.2
101264.44
101285.96
101302.87
101315.33
101323.51
101327.63
101327.99
101324.71
101318.25
101308.74
101296.52
101281.81
101264.92
101246.1
101225.61
101203.68
101180.54
101156.38
101131.39
101105.76
101079.62
101053.13
101026.39
100999.51
100972.57
100945.66
100918.82
100892.1
100865.54
100839.14
100812.93
100786.9
100761.05
100735.36
100709.79
100684.31
100658.88
100633.4
100607.85
100582.14
100555.78
100529.91
100502.77
100467.45
100474.31
100334
100567.77
99220.458
99361.701
99367.771
99504.068
99530.251
99650.69
99700.237
99805.764
99873.47
99969.511
100048.31
100139.59
100223.87
100312.79
100398.76
100485.73
100570.82
100655.03
100737.18
100817.26
100894.63
100968.98
101039.84
101106.86
101169.66
101227.92
101281.37
101329.77
101372.93
101410.75
101443.15
101470.13
101491.75
101508.12
101519.41
101525.82
101527.6
101525.04
101518.45
101508.16
101494.4
101477.78
101458.3
101436.45
101412.44
101386.65
101359.31
101330.71
101301.08
101270.67
101239.65
101208.24
101176.58
101144.82
101113.09
101081.49
101050.12
101019.04
100988.32
100957.98
100928.08
100898.61
100869.59
100841.01
100812.87
100785.14
100757.8
100730.79
100704.08
100677.61
100651.29
100625.09
100598.85
100572.27
100546.57
100517.82
100488.3
100484.02
100361.69
100583.54
99448.653
99605.706
99612.383
99762.5
99792.558
99923.7
99979.866
100093.92
100169.38
100272.81
100359.2
100457.14
100548.13
100642.81
100734.22
100825.69
100914.6
101001.67
101085.75
101166.7
101243.86
101316.86
101385.23
101448.58
101506.57
101558.91
101605.36
101645.75
101680
101708.09
101730.04
101745.99
101756.11
101760.64
101759.85
101754.08
101743.68
101729.03
101710.54
101688.59
101663.57
101636
101605.96
101573.99
101540.34
101505.37
101469.35
101432.55
101395.2
101357.54
101319.74
101282
101244.44
101207.22
101170.42
101134.14
101098.45
101063.41
101029.05
100995.4
100962.48
100930.27
100898.79
100868.01
100837.9
100808.43
100779.56
100751.25
100723.44
100696.06
100669.03
100642.31
100615.67
100589.11
100563.36
100534.04
100509.21
100495.18
100391.29
100599.51
99706.623
99882.246
99889.959
100055.81
100090.91
100233.94
100298.13
100421.57
100505.96
100617.49
100712.25
100817.29
100915.31
101015.82
101112.47
101208
101300.03
101388.95
101473.68
101553.95
101629.09
101698.69
101762.29
101819.53
101870.13
101913.85
101950.56
101980.21
102002.84
102018.56
102027.56
102030.1
102026.52
102017.19
102002.53
101982.98
101959.01
101931.1
101899.73
101865.33
101828.41
101789.35
101748.45
101706.14
101662.75
101618.58
101573.91
101529.01
101484.1
101439.39
101395.04
101351.22
101308.04
101265.61
101224.03
101183.34
101143.61
101104.87
101067.14
101030.42
100994.71
100960
100926.26
100893.46
100861.58
100830.55
100800.34
100770.89
100742.13
100713.99
100686.41
100659.31
100632.44
100606.08
100580.2
100551.18
100529.93
100507.73
100422.1
100615.16
99997.972
100195.18
100204.43
100388.05
100429.54
100585.66
100659.44
100793.14
100887.68
101007.95
101111.75
101224.17
101329.28
101435.33
101536.64
101635.29
101729.13
101818.27
101901.68
101978.98
102049.53
102112.92
102168.74
102216.73
102256.68
102288.51
102312.25
102327.99
102335.97
102336.47
102329.87
102316.6
102297.17
102272.09
102241.93
102207.24
102168.59
102126.52
102081.59
102034.25
101985.06
101934.38
101882.58
101829.99
101776.97
101723.81
101670.77
101618.09
101565.96
101514.57
101464.05
101414.54
101366.13
101318.89
101272.9
101228.18
101184.76
101142.66
101101.88
101062.4
101024.19
100987.24
100951.51
100916.95
100883.51
100851.15
100819.79
100789.39
100759.87
100731.15
100703.18
100675.85
100648.96
100622.93
100596.97
100568.96
100550.24
100521.57
100452.73
100629.67
100326.1
100548.51
100559.98
100763.62
100813.23
100983.74
101068.89
101213.75
101319.65
101449.22
101562.5
101682.27
101794.09
101904.88
102009.59
102109.69
102203.21
102290.06
102369.23
102440.33
102502.77
102556.22
102600.41
102635.21
102660.62
102676.75
102683.83
102682.22
102672.34
102654.71
102629.92
102598.59
102561.39
102518.97
102472.02
102421.2
102367.13
102310.42
102251.65
102191.27
102129.86
102067.77
102005.29
101942.77
101880.53
101818.84
101757.91
101697.96
101639.14
101581.59
101525.44
101470.75
101417.61
101366.06
101316.12
101267.81
101221.14
101176.08
101132.62
101090.74
101050.38
101011.51
100974.08
100938.03
100903.3
100869.84
100837.57
100806.43
100776.35
100747.25
100719.08
100691.68
100664.99
100639.37
100613.51
100587.04
100569.97
100536.58
100482.52
100643.51
100695.11
100947.06
100961.78
101187.99
101247.9
101434.15
101532.67
101689.55
101807.89
101947.05
102069.79
102196.34
102313.75
102427.63
102533.48
102632.27
102722.19
102803
102873.83
102934.29
102984
103022.79
103050.6
103067.57
103073.96
103070.16
103056.7
103034.2
103003.34
102964.89
102919.63
102868.37
102811.92
102751.07
102686.57
102619.14
102549.44
102478.09
102405.66
102332.55
102259.36
102186.42
102113.86
102042.05
101971.26
101901.72
101833.6
101767.07
101702.25
101639.22
101578.07
101518.84
101461.56
101406.25
101352.91
101301.53
101252.07
101204.51
101158.81
101114.91
101072.77
101032.33
100993.52
100956.28
100920.55
100886.25
100853.32
100821.68
100791.25
100761.98
100733.79
100706.52
100680.23
100655.11
100629.58
100605.02
100588.85
100552.57
100511.73
100656.49
101110.63
101397.34
101416.82
101668.25
101741.12
101944.36
102058.29
102227.81
102359.23
102507.74
102639.13
102770.91
102891.61
103005.58
103108.89
103202.07
103283.56
103353.07
103409.97
103454.07
103485.26
103503.67
103509.61
103503.57
103486.15
103458.13
103420.33
103373.69
103319.15
103257.7
103190.31
103117.92
103041.45
102961.74
102879.58
102795.71
102710.74
102625.31
102539.89
102454.82
102370.74
102287.86
102206.09
102125.89
102047.44
101970.95
101896.51
101824.24
101754.22
101686.49
101621.08
101558
101497.25
101438.81
101382.65
101328.74
101277.02
101227.43
101179.94
101134.46
101090.92
101049.27
101009.43
100971.33
100934.88
100900.03
100866.68
100834.78
100804.24
100775.01
100746.99
100720.05
100694.34
100669.78
100644.89
100622.4
100606.41
100568.95
100540.71
100668.25
101579.94
101907.35
101933.53
102212.85
102301.86
102523.05
102654.34
102836.74
102981.04
103137.58
103275.45
103409.3
103529.21
103638.37
103733.47
103814.75
103881.05
103932.25
103968.09
103988.77
103994.62
103986.25
103964.43
103930.08
103884.25
103828.08
103762.75
103689.45
103609.36
103523.62
103433.34
103339.52
103243.1
103144.94
103045.79
102946.31
102847.09
102748.68
102651.4
102555.57
102461.87
102370.21
102280.35
102192.88
102107.86
102025.45
101945.69
101868.64
101794.31
101722.72
101653.85
101587.68
101524.16
101463.24
101404.88
101349.01
101295.55
101244.45
101195.62
101148.98
101104.46
101061.97
101021.45
100982.8
100945.94
100910.81
100877.32
100845.4
100814.98
100785.99
100758.34
100731.94
100706.96
100683.07
100659.12
100638.71
100622.53
100585.47
100568.62
100678.26
102109.76
102485.15
102520.96
102830.93
102940.5
103180.55
103330.46
103524.94
103680.42
103841.78
103981.75
104112.17
104224.65
104321.52
104400.18
104460.93
104503.17
104527.24
104533.51
104522.75
104495.93
104454.24
104398.99
104331.62
104253.59
104166.38
104071.44
103970.17
103863.88
103753.78
103640.98
103526.49
103411.18
103295.83
103181.1
103067.53
102955.62
102845.79
102738.21
102633.2
102531.42
102432.26
102335.66
102242.2
102151.84
102064.66
101980.66
101899.83
101822.15
101747.58
101676.07
101607.56
101541.98
101479.25
101419.3
101362.04
101307.38
101255.25
101205.54
101158.18
101113.06
101070.11
101029.24
100990.36
100953.4
100918.27
100884.89
100853.19
100823.1
100794.57
100767.47
100741.79
100717.68
100694.57
100671.84
100653.48
100637.06
100601.57
100594.05
100686.21
102713.09
103145.16
103195.09
103536.91
103670.66
103929.19
104097.01
104299.93
104462.51
104622.78
104757.26
104875.36
104970.36
105044.17
105095.23
105124.3
105131.69
105118.5
105085.95
105035.61
104969.16
104888.45
104795.32
104691.63
104579.18
104459.69
104334.73
104205.76
104074.11
103940.92
103807.23
103673.9
103541.68
103411.2
103282.96
103157.36
103034.79
102915.47
102799.43
102687.06
102578.78
102473.62
102371.8
102273.71
102179.27
102088.5
102001.35
101917.76
101837.67
101760.99
101687.65
101617.56
101550.61
101486.72
101425.77
101367.68
101312.34
101259.64
101209.51
101161.82
101116.49
101073.43
101032.54
100993.75
100956.95
100922.08
100889.05
100857.8
100828.26
100800.35
100773.99
100749.2
100726.07
100703.85
100682.59
100666.23
100649.48
100616.01
100616.58
100692.18
103410.93
103909.69
103982.18
104354.13
104510.34
104778.69
104962.45
105168.97
105329.87
105478.28
105594.64
105686.69
105749.82
105786.21
105795.73
105780.11
105740.89
105680.19
105600.24
105503.41
105392.12
105268.71
105135.44
104994.42
104847.58
104696.67
104543.22
104388.6
104233.96
104080.29
103928.42
103779.01
103632.62
103489.67
103350.48
103215.3
103084.37
102957.69
102835.19
102717.38
102604.31
102494.76
102389.17
102287.77
102190.51
102097.3
102008.06
101922.69
101841.09
101763.15
101688.76
101617.79
101550.14
101485.68
101424.3
101365.9
101310.35
101257.54
101207.38
101159.76
101114.57
101071.73
101031.13
100992.69
100956.32
100921.95
100889.5
100858.89
100830.08
100802.97
100777.5
100753.74
100731.65
100710.45
100690.87
100676.25
100659.01
100627.97
100636.53
100696.16
104229.5
104791.55
104882.44
105273.74
105463.44
105755.75
105938.56
106132.71
106275.26
106393.45
106472.87
106520.1
106533.22
106515.37
106468.29
106395.05
106298.57
106182.06
106048.67
105901.42
105743.19
105576.58
105403.96
105227.42
105048.75
104869.53
104691.04
104514.4
104340.47
104169.99
104003.49
103841.42
103684.08
103531.68
103384.34
103242.21
103105.32
102973.43
102846.52
102725.31
102609.11
102496.56
102388.56
102285.15
102186.24
102091.68
102001.37
101915.14
101832.88
101754.45
101679.71
101608.52
101540.77
101476.3
101415.01
101356.76
101301.44
101248.93
101199.12
101151.9
101107.17
101064.84
101024.8
100986.97
100951.26
100917.6
100885.92
100856.14
100828.21
100802.05
100777.6
100754.96
100733.95
100713.91
100696.11
100682.8
100665.19
100638.25
100652.64
100696.62
105171.35
105794.35
105922.72
106360.31
106559.45
106831.22
107006.19
107166.19
107268.47
107333.22
107352.51
107333.32
107277.01
107188.47
107071.52
106930.68
106770.08
106593.75
106405.34
106208.13
106005
105798.44
105590.55
105383.1
105177.52
104975
104776.44
104582.58
104393.95
104210.95
104033.85
103862.81
103697.92
103539.16
103386.53
103240.03
103099.47
102964.43
102835.25
102712.49
102594.27
102480.1
102371.09
102266.88
102167.43
102072.53
101982.04
101895.79
101813.62
101735.39
101660.94
101590.13
101522.8
101458.82
101398.06
101340.39
101285.68
101233.82
101184.69
101138.18
101094.19
101052.62
101013.38
100976.37
100941.53
100908.76
100878
100849.2
100822.28
100797.17
100773.85
100752.4
100732.52
100713.78
100697.77
100685.44
100668.07
100645.9
100663.02
100693.83
106288.76
106987.16
107153.16
107577.08
107777.59
108011.72
108142.13
108236.37
108264.64
108245.88
108178.26
108070.69
107927.84
107756.41
107561.88
107349.68
107124.49
106890.46
106651.09
106409.34
106167.6
105927.83
105691.57
105460.03
105234.12
105014.52
104801.7
104595.98
104397.56
104206.51
104022.83
103846.47
103677.29
103515.12
103359.87
103211.37
103069.16
102932.99
102803.51
102680.35
102561.36
102447.11
102338.15
102234.22
102135.17
102040.8
101950.92
101865.37
101783.96
101706.54
101632.93
101562.99
101496.55
101433.49
101373.66
101316.92
101263.16
101212.25
101164.08
101118.54
101075.52
101034.93
100996.68
100960.69
100926.86
100895.14
100865.44
100837.72
100811.9
100787.93
100765.81
100745.57
100726.86
100709.53
100695.16
100683.59
100667.18
100649.79
100666.65
100687.32
107652.42
108376.97
108551.14
108933.18
109086.82
109236.54
109276.28
109263.25
109181.66
109050.81
108874.94
108664.86
108427.69
108171.01
107900.83
107622.43
107340.04
107057.12
106776.34
106499.8
106229.07
105965.3
105709.32
105461.68
105222.74
104992.68
104771.56
104559.33
104355.88
104161.02
103974.54
103796.2
103625.71
103462.8
103307.31
103158.85
103016.82
102881.4
102753.25
102630.66
102512.1
102398.87
102290.97
102188.24
102090.42
101997.33
101908.77
101824.54
101744.46
101668.36
101596.08
101527.44
101462.3
101400.52
101341.95
101286.46
101233.92
101184.23
101137.25
101092.9
101051.05
101011.63
100974.53
100939.69
100907.01
100876.43
100847.89
100821.33
100796.69
100773.9
100753.01
100733.96
100716.44
100700.54
100687.62
100676.68
100661.71
100648.69
100663.9
100675.92
109228.25
109922.52
110058.49
110335.9
110386.98
110397.04
110298.19
110140.29
109921.56
109662.13
109370.61
109058.26
108732.68
108400.7
108067.31
107736.45
107411
107093.04
106784.05
106484.99
106196.47
105918.83
105652.19
105396.51
105151.66
104917.43
104693.51
104479.61
104275.36
104080.42
103894.41
103716.96
103547.68
103386.31
103232.54
103085.75
102945.55
102812.61
102686.77
102565.32
102448.35
102337.11
102231.16
102130.38
102034.49
101943.31
101856.61
101774.21
101695.92
101621.56
101550.98
101484
101420.47
101360.25
101303.21
101249.2
101198.12
101149.83
101104.24
101061.23
101020.71
100982.58
100946.76
100913.16
100881.72
100852.36
100825.03
100799.67
100776.21
100754.63
100734.94
100717.05
100700.71
100686.19
100674.48
100664.11
100650.88
100641.58
100654.28
100659.42
110866.26
111519.29
111569.29
111657.24
111538.27
111353.84
111079.09
110756.78
110395.48
110013.37
109619.64
109223.22
108829.76
108443.6
108067.56
107703.52
107352.59
107015.37
106692.09
106382.7
106087
105804.65
105535.24
105278.32
105033.41
104800
104577.61
104365.74
104163.91
103971.66
103788.53
103614.06
103447.88
103289.68
103138.97
102995.04
102858.11
102728.82
102605.32
102485.83
102371.63
102262.97
102159.63
102061.35
101967.91
101879.09
101794.68
101714.5
101638.35
101566.06
101497.47
101432.42
101370.76
101312.35
101257.04
101204.73
101155.28
101108.57
101064.51
101023
100983.92
100947.2
100912.75
100880.49
100850.35
100822.27
100796.19
100772.06
100749.81
100729.42
100710.9
100694.13
100678.95
100665.7
100654.98
100645.22
100633.92
100627.43
100636.83
100637.58
112762.89
113012.68
112871.86
112655.77
112303.51
111897.56
111445.55
110976.42
110500.45
110029.06
109567.84
109121.14
108691.18
108279.22
107885.63
107510.33
107152.91
106812.82
106489.36
106181.81
105889.41
105611.42
105347.12
105095.81
104856.81
104629.49
104413.25
104207.51
104011.72
103825.37
103647.97
103479.05
103318.29
103165.3
103019.34
102880.11
102748.36
102623.73
102503.32
102387.26
102276.95
102171.98
102072.18
101977.27
101887.06
101801.33
101719.88
101642.52
101569.08
101499.39
101433.28
101370.61
101311.23
101255
101201.8
101151.5
101103.98
101059.13
101016.86
100977.06
100939.64
100904.51
100871.59
100840.81
100812.1
100785.39
100760.64
100737.78
100716.77
100697.58
100680.2
100664.53
100650.46
100638.34
100628.41
100619.32
100609.9
100605.39
100611.53
100609.32
114125.07
113920.7
113520.05
113033.33
112490.9
111933.67
111375.74
110831.01
110304.72
109800.77
109320.3
108863.63
108430.25
108019.37
107630.02
107261.08
106911.4
106579.86
106265.4
105967.01
105683.73
105414.69
105159.07
104916.1
104685.07
104465.33
104256.25
104057.26
103867.83
103687.47
103515.72
103352.18
103196.57
103048.28
102906.66
102772.16
102645.24
102523.48
102405.68
102293.27
102186.29
102084.54
101987.76
101895.75
101808.28
101725.16
101646.2
101571.22
101500.05
101432.53
101368.51
101307.82
101250.35
101195.95
101144.51
101095.89
101049.99
101006.7
100965.93
100927.57
100891.53
100857.73
100826.09
100796.55
100769.02
100743.46
100719.79
100697.98
100677.98
100659.76
100643.28
100628.47
100615.3
100603.98
100594.55
100586.1
100578.3
100574.56
100577.25
100574.47
113934.78
113559.2
113062.68
112494.77
111913.22
111336.78
110777.99
110242.52
109732.52
109248.67
108790.38
108356.72
107946.41
107558.07
107190.41
106842.19
106512.24
106199.43
105902.72
105621.13
105353.75
105099.74
104858.35
104628.85
104410.59
104202.95
104005.36
103817.32
103638.34
103467.92
103305.62
103151.11
103003.96
102863.52
102729.7
102603.08
102482.65
102366.34
102254.59
102148.27
102047.08
101950.83
101859.29
101772.26
101689.55
101610.96
101536.34
101465.49
101398.28
101334.54
101274.13
101216.91
101162.75
101111.53
101063.11
101017.4
100974.29
100933.66
100895.43
100859.5
100825.78
100794.2
100764.67
100737.13
100711.51
100687.75
100665.8
100645.59
100627.1
100610.29
100595.11
100581.52
100569.51
100559.16
100550.44
100542.95
100536.68
100533.05
100532.79
100531.37
111255.78
111504.3
111312.12
111021.11
110637.11
110224.57
109796.63
109370.62
108952.14
108546.33
108155.04
107779.56
107420.16
107076.77
106748.98
106436.24
106137.95
105853.49
105582.21
105323.5
105076.74
104841.37
104616.83
104402.62
104198.24
104003.23
103817.16
103639.64
103470.22
103308.51
103154.23
103007.09
102866.48
102732.06
102604.42
102483.56
102367.02
102254.48
102147.23
102044.93
101947.5
101854.7
101766.37
101682.33
101602.41
101526.43
101454.25
101385.7
101320.65
101258.95
101200.46
101145.07
101092.63
101043.03
100996.17
100951.93
100910.2
100870.9
100833.92
100799.18
100766.59
100736.07
100707.55
100680.96
100656.22
100633.29
100612.1
100592.6
100574.76
100558.51
100543.84
100530.7
100519.08
100508.98
100500.37
100493.14
100487.35
100483.26
100480.94
100479.89
112580.37
112618.55
112409.79
112015.53
111473.6
110863.55
110211.48
109545.49
108871.13
108207.93
107561.54
106937.65
106342.66
105775.99
105236.58
104750.39
104313.49
103924.2
103578.97
103274.97
103007.81
102773.91
102567.07
102386.33
102224.22
102079.02
101954.55
101848.44
101754.67
101669.96
101592.7
101521.5
101455.22
101392.95
101334.01
101277.97
101224.57
101173.62
101124.98
101078.58
101034.28
100992.03
100951.85
100913.69
100877.37
100842.95
100810.37
100779.58
100750.51
100723.1
100697.26
100672.96
100650.06
100628.55
100608.22
100589.21
100571.03
100554.19
100537.63
100522.77
100507.1
100494.25
100478.43
100468.15
100450.58
100444.47
100422.12
100423.84
100392.09
100407.79
100358.53
100398.28
100317.06
100397.62
100262.49
100407.06
100187.27
100426.64
100087.96
100462.32
95639.819
95953.381
96538.621
97156.155
97785.066
98403.938
98924.519
99380.881
99799.752
100168.18
100483.43
100756.17
100986.61
101180.57
101340.29
101470.47
101573.33
101651.68
101707.52
101745.75
101765.45
101767.78
101757.1
101735.62
101704.7
101671.33
101637.48
101595.27
101548.09
101499.19
101448.38
101396.72
101344.9
101293.64
101243.46
101194.66
101147.43
101101.9
101058.27
101016.64
100976.86
100938.98
100902.91
100868.62
100836.1
100805.23
100776
100748.37
100722.27
100697.66
100674.44
100652.58
100631.95
100612.57
100594.21
100577.02
100560.53
100545.25
100530.12
100516.54
100502.14
100490.29
100475.66
100466.07
100449.73
100443.86
100423.06
100424.43
100394.69
100409.13
100362.15
100399.87
100321.48
100399.04
100266.28
100408.96
100189.44
100429.82
100087.34
100467.92
104249.49
104295.61
104287.47
104241.57
104161.8
104057.55
103934.81
103800.52
103657.35
103511.27
103362.17
103214.91
103067.78
102924.56
102782.78
102649.48
102518.68
102398.29
102282.92
102175.23
102074.58
101985.78
101906.24
101829.15
101763
101703.2
101633.92
101566.73
101503.76
101444.22
101387.77
101334.16
101283.11
101234.39
101187.75
101143.04
101100.12
101058.91
101019.33
100981.34
100944.92
100910.07
100876.78
100845.04
100814.82
100786.11
100758.87
100733.07
100708.68
100685.67
100663.95
100643.52
100624.23
100606.12
100588.94
100572.87
100557.4
100543.09
100528.82
100516.05
100502.31
100491.08
100476.91
100467.69
100451.63
100445.87
100425.34
100426.23
100396.81
100410.36
100363.95
100400.3
100322.8
100398.68
100268.28
100407.72
100191.82
100429.34
100089.07
100469.13
101299.41
101302.99
101310.36
101326.52
101348.34
101373.08
101398.34
101426.46
101453.88
101482.36
101508.16
101533.81
101555.54
101575.32
101589.18
101600.78
101607.09
101609.73
101607.38
101600.68
101589.71
101574.53
101556.42
101534.22
101505.79
101472.12
101434.88
101396.78
101357.65
101317.89
101277.79
101237.57
101197.5
101157.77
101118.62
101080.24
101042.77
101006.32
100971
100936.91
100904.08
100872.55
100842.36
100813.52
100786.02
100759.87
100735.06
100711.57
100689.35
100668.39
100648.6
100629.99
100612.41
100595.9
100580.23
100565.56
100551.39
100538.3
100525.14
100513.42
100500.62
100490.3
100476.89
100468.5
100452.99
100447.97
100427.78
100429.32
100399.9
100414
100367.29
100404.01
100325.54
100402.02
100270.03
100410.12
100192.97
100431.64
100090.01
100471.22
101739.7
101749.26
101751.61
101751.44
101746.79
101741.13
101733.88
101726.93
101715.54
101706.2
101691.21
101678.68
101660.68
101645.76
101627.45
101610.36
101590.77
101570.03
101547.86
101523.04
101496.07
101466.98
101434.04
101401.09
101368.03
101334.97
101301.36
101267.59
101233.71
101199.91
101166.21
101132.76
101099.61
101066.84
101034.53
101002.75
100971.59
100941.12
100911.4
100882.52
100854.53
100827.5
100801.47
100776.48
100752.55
100729.72
100707.98
100687.34
100667.78
100649.29
100631.81
100615.33
100599.74
100585.09
100571.12
100558.04
100545.33
100533.57
100521.63
100511.02
100499.21
100489.78
100477.16
100469.45
100454.52
100449.96
100430.16
100431.92
100402.74
100416.72
100370.1
100406.45
100327.84
100403.84
100272.16
100411.66
100194.83
100433.23
100091.33
100472.89
101153.74
101160.6
101167.92
101176.28
101184.14
101191.63
101196.71
101205.27
101207.96
101216.73
101217.76
101225.25
101224.88
101229.89
101229.59
101229.79
101226.34
101222.59
101215.99
101209.07
101199.83
101190.28
101178.61
101165.93
101151.24
101135.24
101117.58
101098.7
101078.52
101057.35
101035.24
101012.42
100989.01
100965.19
100941.12
100916.93
100892.79
100868.83
100845.15
100821.9
100799.15
100777.01
100755.53
100734.79
100714.83
100695.7
100677.41
100659.99
100643.43
100627.73
100612.85
100598.79
100585.44
100572.85
100560.8
100549.47
100538.37
100528.07
100517.48
100508.06
100497.35
100488.87
100477.13
100470.13
100455.89
100451.83
100432.53
100434.53
100405.68
100419.63
100373.19
100409.27
100330.75
100406.23
100274.41
100413.55
100196.61
100435
100092.6
100474.59
100945.53
100954.09
100961.39
100968.47
100977.03
100984.14
100990.08
100998.57
101001.51
101010.25
101011.32
101018.77
101018.86
101023.9
101022.22
101025.42
101023.43
101023.88
101020.62
101017.81
101012.34
101006.98
100999.66
100991.84
100982.55
100972.53
100961.31
100949.26
100936.23
100922.4
100907.75
100892.43
100876.47
100860.01
100843.12
100825.92
100808.51
100790.99
100773.47
100756.07
100738.86
100721.95
100705.4
100689.29
100673.68
100658.62
100644.14
100630.27
100617.03
100604.41
100592.39
100580.98
100570.08
100559.75
100549.78
100540.34
100530.99
100522.26
100513.1
100504.94
100495.4
100487.9
100477.08
100470.79
100457.28
100453.65
100434.92
100437.03
100408.63
100422.37
100376.19
100411.85
100333.75
100408.42
100276.93
100415.37
100198.63
100436.72
100093.98
100476.22
100663.26
100672.05
100679.83