/*--------------------------------*- C++ -*----------------------------------*\
  =========                 |
  \\      /  F ield         | OpenFOAM: The Open Source CFD Toolbox
   \\    /   O peration     | Website:  https://openfoam.org
    \\  /    A nd           | Version:  6
     \\/     M anipulation  |
\*---------------------------------------------------------------------------*/
FoamFile
{
    version     2.0;
    format      ascii;
    class       surfaceScalarField;
    location    "150";
    object      phi;
}
// * * * * * * * * * * * * * * * * * * * * * * * * * * * * * * * * * * * * * //

dimensions      [1 0 -1 0 0 0 0];

internalField   nonuniform List<scalar> 
31760
(
-0.00060715066
-0.040115517
0.04072267
-0.0013511334
-0.045073787
0.045817771
-0.0021162934
-0.046068242
0.046833405
-0.0029378768
-0.048874483
0.049696068
-0.0037767981
-0.050716889
0.051555813
-0.0046713485
-0.053319061
0.054213613
-0.0055932417
-0.055593519
0.056515415
-0.0065674486
-0.058260588
0.059234796
-0.0075769361
-0.060850637
0.061860128
-0.0086379915
-0.063687826
0.064748883
-0.0097420547
-0.066565022
0.06766909
-0.010899279
-0.069629987
0.070787211
-0.012105726
-0.072795776
0.074002227
-0.01336822
-0.076129953
0.077392448
-0.014686122
-0.079599494
0.080917401
-0.016064198
-0.083236896
0.084614973
-0.017503373
-0.087033696
0.088472877
-0.019007237
-0.091007131
0.092510996
-0.020577702
-0.095159703
0.096730173
-0.022218046
-0.099502987
0.10114333
-0.02393055
-0.10404409
0.1057566
-0.025718498
-0.1087933
0.11058125
-0.027583988
-0.11376001
0.1156255
-0.029530133
-0.11895476
0.12090091
-0.031559462
-0.12438816
0.12641749
-0.033674274
-0.13007229
0.1321871
-0.035877158
-0.13601856
0.13822145
-0.038170689
-0.14224026
0.14453379
-0.040556783
-0.14875072
0.15113682
-0.043037281
-0.15556441
0.15804491
-0.045614282
-0.16269614
0.16527314
-0.048289424
-0.17016253
0.17283767
-0.051060442
-0.17797975
0.18075077
-0.05392742
-0.18616698
0.18903396
-0.056891236
-0.19473838
0.19770219
-0.059953173
-0.20371699
0.20677893
-0.063116328
-0.21312124
0.21628439
-0.066377336
-0.22297871
0.22623972
-0.069733804
-0.23331111
0.23666757
-0.073182919
-0.2441427
0.24759182
-0.076721233
-0.25549974
0.25903805
-0.080343628
-0.26740926
0.27103166
-0.0840447
-0.27989966
0.28360074
-0.087817193
-0.29300256
0.29677505
-0.091653189
-0.30674946
0.31058546
-0.095543405
-0.32117502
0.32506523
-0.099476773
-0.33631487
0.34024824
-0.10344174
-0.35220711
0.35617208
-0.10742547
-0.36889095
0.37287467
-0.11141353
-0.386408
0.39039606
-0.11539134
-0.40480027
0.40877808
-0.11934224
-0.42411216
0.42806307
-0.12324834
-0.44438933
0.44829543
-0.12708901
-0.46567968
0.46952035
-0.13084132
-0.48803291
0.49178523
-0.13447793
-0.51150249
0.5151391
-0.13796765
-0.53614492
0.53963465
-0.14127383
-0.56202051
0.56532668
-0.14435559
-0.58919162
0.59227339
-0.14716625
-0.61772503
0.62053569
-0.14965374
-0.64769056
0.65017805
-0.15175983
-0.67915904
0.68126512
-0.15342097
-0.71220686
0.713868
-0.15456284
-0.7469094
0.74805128
-0.15510918
-0.78335134
0.78389768
-0.15496216
-0.82161233
0.82146531
-0.15403492
-0.86179313
0.86086589
-0.1521879
-0.90395684
0.90210982
-0.14934641
-0.9482483
0.94540682
-0.14528093
-0.99465125
0.99058577
-0.1399858
-1.0434471
1.038152
-0.13303525
-1.0943652
1.0874147
-0.12465637
-1.148171
1.1397921
-0.1139768
-1.203771
1.1930914
-0.1017788
-1.2634386
1.2512406
-0.086317353
-1.3233495
1.307888
-0.069335633
-1.3902222
1.3732405
-0.048037233
-1.4531868
1.4318884
-0.024809288
-1.528719
1.5054912
-1.5956148
1.5673137
-0.0005816146
-0.039533904
-0.0012717405
-0.044383662
-0.0019912961
-0.045348688
-0.0027595185
-0.048106262
-0.0035516953
-0.049924713
-0.0043919361
-0.052478822
-0.0052616944
-0.054723761
-0.0061793247
-0.05734296
-0.0071332839
-0.059896679
-0.0081358259
-0.062685286
-0.0091809758
-0.065519873
-0.010277183
-0.068533782
-0.01142191
-0.07165105
-0.01262145
-0.074930415
-0.013874978
-0.078345966
-0.015187453
-0.081924423
-0.016559827
-0.085661322
-0.017995915
-0.089571044
-0.019497628
-0.09365799
-0.021068156
-0.097932461
-0.022709922
-0.10240232
-0.024425737
-0.10707749
-0.026218703
-0.11196704
-0.02809117
-0.1170823
-0.030045683
-0.12243364
-0.032085179
-0.1280328
-0.034211994
-0.13389175
-0.03642851
-0.14002375
-0.038736484
-0.14644275
-0.041138242
-0.15316266
-0.043635243
-0.16019913
-0.046228972
-0.1675688
-0.048920385
-0.17528834
-0.051710399
-0.18337697
-0.054595479
-0.1918533
-0.057575045
-0.20073742
-0.060647625
-0.21004866
-0.063818068
-0.21980826
-0.067083158
-0.23004601
-0.070438797
-0.24078706
-0.073881437
-0.2520571
-0.077406404
-0.2638843
-0.081007803
-0.27629826
-0.084679267
-0.28933109
-0.088413042
-0.30301569
-0.092200674
-0.31738739
-0.096032333
-0.33248321
-0.099897743
-0.3483417
-0.10378546
-0.36500323
-0.10768371
-0.38250975
-0.11157905
-0.40090493
-0.11545718
-0.42023403
-0.11930175
-0.44054477
-0.12309384
-0.46188759
-0.1268115
-0.48431525
-0.13042934
-0.50788466
-0.13391789
-0.53265637
-0.13724439
-0.55869401
-0.14037052
-0.58606549
-0.14325409
-0.61484146
-0.14584887
-0.64509579
-0.14810145
-0.67690645
-0.14995439
-0.71035393
-0.15134067
-0.74552311
-0.15218834
-0.78250367
-0.15241456
-0.8213861
-0.15193037
-0.86227733
-0.15062498
-0.90526223
-0.14840327
-0.95047001
-0.14509658
-0.99795794
-0.14063583
-1.0479079
-0.13473732
-1.1002637
-0.12744145
-1.1554668
-0.11820132
-1.2130111
-0.10738449
-1.2742555
-0.093841645
-1.3368923
-0.078631165
-1.4054327
-0.059727678
-1.4720903
-0.03896252
-1.5494841
-1.6208632
-0.00054087522
-0.038993028
-0.0011964055
-0.043728132
-0.0018665522
-0.04467854
-0.002593095
-0.04737972
-0.0033363139
-0.049181493
-0.0041314737
-0.051683663
-0.0049517683
-0.053903466
-0.0058217344
-0.056472994
-0.0067251446
-0.058993268
-0.0076781301
-0.061732301
-0.00867181
-0.064526193
-0.0097164108
-0.067489181
-0.010808702
-0.070558758
-0.011954858
-0.07378426
-0.013155115
-0.077145708
-0.014413277
-0.080666262
-0.015731363
-0.084343235
-0.017112174
-0.088190234
-0.018558681
-0.092211482
-0.020073433
-0.096417709
-0.021659374
-0.10081638
-0.023319541
-0.10541732
-0.025055883
-0.1102307
-0.026872073
-0.11526611
-0.028770541
-0.12053517
-0.030753707
-0.12604963
-0.032824037
-0.13182142
-0.034983766
-0.13786402
-0.037235279
-0.14419123
-0.039580331
-0.1508176
-0.042020109
-0.15775936
-0.044556488
-0.16503242
-0.047189645
-0.17265518
-0.049920707
-0.18064591
-0.052749441
-0.18902456
-0.055674524
-0.19781234
-0.058691146
-0.20703204
-0.061797558
-0.21670185
-0.064997305
-0.22684627
-0.068287665
-0.2374967
-0.071662922
-0.24868184
-0.075119227
-0.26042799
-0.078651233
-0.27276626
-0.082252851
-0.28572947
-0.08591698
-0.29935156
-0.08963587
-0.3136685
-0.093401433
-0.32871765
-0.097204687
-0.34453844
-0.10103628
-0.36117163
-0.10488575
-0.37866028
-0.10874173
-0.39704894
-0.11259145
-0.41638431
-0.11641983
-0.43671639
-0.12020978
-0.45809764
-0.12394111
-0.48058392
-0.12759013
-0.50423564
-0.13113021
-0.52911628
-0.1345311
-0.55529311
-0.13775892
-0.58283768
-0.14077601
-0.61182436
-0.14354005
-0.64233175
-0.1460044
-0.6744421
-0.14811604
-0.70824228
-0.14981629
-0.74382286
-0.15103904
-0.78128092
-0.15170788
-0.82071727
-0.15174703
-0.86223817
-0.15105492
-0.90595434
-0.14953686
-0.95198806
-0.14706164
-1.0004332
-0.14353217
-1.0514374
-0.13874299
-1.1050529
-0.13265126
-1.1615586
-0.12488278
-1.2207796
-0.11558959
-1.2835487
-0.10398378
-1.3484981
-0.090723372
-1.4186931
-0.074281098
-1.4885325
-0.055927334
-1.5678378
-1.6429891
-0.0005041182
-0.03848891
-0.0011311727
-0.043101078
-0.0017613042
-0.04404841
-0.0024514038
-0.046689621
-0.0031534064
-0.048479491
-0.0039097546
-0.050927316
-0.0046883039
-0.053124917
-0.0055175256
-0.055643773
-0.0063786832
-0.058132111
-0.0072896394
-0.060821346
-0.008240771
-0.063575062
-0.0092427089
-0.066487244
-0.010291952
-0.069509515
-0.011395332
-0.072680881
-0.012552348
-0.075988693
-0.013767728
-0.079450883
-0.015042817
-0.083068145
-0.016381403
-0.08685165
-0.017785684
-0.090807201
-0.019259059
-0.094944335
-0.020803976
-0.099271463
-0.022423285
-0.10379801
-0.024120235
-0.10853375
-0.02589743
-0.11348892
-0.027757348
-0.11867526
-0.02970294
-0.12410404
-0.03173629
-0.12978807
-0.033860029
-0.13574028
-0.036075935
-0.14197533
-0.038385929
-0.14850761
-0.040791353
-0.15535393
-0.043293291
-0.16253048
-0.045892784
-0.17005569
-0.048589658
-0.17794903
-0.051383708
-0.18623051
-0.054274585
-0.19492146
-0.057261481
-0.20404514
-0.060337402
-0.21362593
-0.063499483
-0.22368418
-0.066751809
-0.23424438
-0.070089608
-0.24534404
-0.073507774
-0.25700982
-0.077001792
-0.26927224
-0.080566243
-0.28216502
-0.084195078
-0.29572273
-0.087881927
-0.30998165
-0.091620021
-0.32497956
-0.095402093
-0.34075637
-0.099220277
-0.35735345
-0.10306588
-0.37481468
-0.10692947
-0.39318535
-0.11079897
-0.41251481
-0.11466152
-0.43285384
-0.11850128
-0.45425788
-0.12229932
-0.47678588
-0.12603493
-0.50050003
-0.12968446
-0.52546676
-0.1332205
-0.55175707
-0.13661354
-0.57944463
-0.13983043
-0.60860747
-0.14283391
-0.63932828
-0.14558227
-0.67169374
-0.14802895
-0.7057956
-0.1501209
-0.74173091
-0.15179963
-0.7796022
-0.15299899
-0.8195179
-0.15364511
-0.86159206
-0.15365328
-0.90594617
-0.15293611
-0.95270523
-0.15138111
-1.0019882
-0.14888399
-1.0539345
-0.14529198
-1.1086449
-0.14051899
-1.1663316
-0.13429973
-1.2269989
-0.126669
-1.2911794
-0.11705337
-1.3581138
-0.1058776
-1.4298688
-0.091951133
-1.5024589
-0.076237483
-1.5835513
-1.6619661
-0.00047147841
-0.038017432
-0.001076486
-0.042496071
-0.0016712353
-0.04345366
-0.0023308892
-0.046029967
-0.0029976542
-0.047812726
-0.0037218156
-0.050203154
-0.0044657653
-0.052380967
-0.005261932
-0.054847606
-0.0060891723
-0.05730487
-0.0069665752
-0.059943943
-0.0078844359
-0.062657201
-0.0088537393
-0.065517941
-0.0098708784
-0.068492375
-0.010942382
-0.071609377
-0.012068448
-0.074862626
-0.013253791
-0.07826554
-0.01449992
-0.081822016
-0.01581064
-0.085540929
-0.017188252
-0.089429589
-0.018635905
-0.093496681
-0.020156851
-0.097750516
-0.021753836
-0.10220103
-0.023429907
-0.10685768
-0.025187427
-0.1117314
-0.027029799
-0.11683288
-0.028959167
-0.12217467
-0.0309782
-0.12776903
-0.033088722
-0.13362976
-0.03529319
-0.13977086
-0.037592545
-0.14620825
-0.039988746
-0.15295773
-0.042482356
-0.16003687
-0.04507401
-0.16746404
-0.047763831
-0.17525921
-0.050551484
-0.18344286
-0.053435668
-0.19203728
-0.056415432
-0.20106538
-0.059489492
-0.21055187
-0.062650093
-0.22052358
-0.065894597
-0.23099987
-0.069226793
-0.24201185
-0.072640157
-0.25359646
-0.076130802
-0.2657816
-0.079694664
-0.27860116
-0.08332664
-0.29209075
-0.087022017
-0.30628627
-0.090775245
-0.32122633
-0.094580661
-0.33695095
-0.098432195
-0.35350192
-0.10232276
-0.37092412
-0.10624352
-0.38926459
-0.11018507
-0.40857327
-0.11413506
-0.42890384
-0.11807953
-0.45031342
-0.12200253
-0.47286288
-0.12588531
-0.49661725
-0.12970707
-0.52164499
-0.13344505
-0.54801909
-0.13707351
-0.57581617
-0.14056371
-0.60511727
-0.14388309
-0.6360089
-0.14699562
-0.66858121
-0.14986019
-0.70293103
-0.15243069
-0.73916041
-0.15465541
-0.77737748
-0.15647594
-0.81769737
-0.15782716
-0.86024084
-0.1586367
-0.90513662
-0.15882414
-0.9525178
-0.15829008
-1.0025222
-0.15694334
-1.0552812
-0.15465345
-1.1109348
-0.15132576
-1.1696592
-0.14675867
-1.231566
-0.14092312
-1.2970149
-0.13340166
-1.3656352
-0.12445216
-1.4388183
-0.1131427
-1.5137683
-0.10019432
-1.5964996
-1.6777109
-0.00044411511
-0.037573317
-0.0010344468
-0.041905739
-0.0016004334
-0.042887673
-0.002236441
-0.045393959
-0.0028755729
-0.047173594
-0.0035751847
-0.049503542
-0.0042929974
-0.051663154
-0.0050646815
-0.054075922
-0.0058673401
-0.056502211
-0.0067214653
-0.059089817
-0.0076165181
-0.061762148
-0.0085640913
-0.064570368
-0.0095609638
-0.067495502
-0.010613667
-0.070556673
-0.011722636
-0.073753657
-0.012892068
-0.077096109
-0.01412454
-0.080589542
-0.015423189
-0.084242281
-0.016791181
-0.088061596
-0.018231728
-0.092056135
-0.019747403
-0.09623484
-0.021341967
-0.10060646
-0.023017671
-0.10518197
-0.024777966
-0.1099711
-0.026625211
-0.11498564
-0.028561981
-0.1202379
-0.030590805
-0.12574021
-0.032713583
-0.13150698
-0.034932137
-0.1375523
-0.037247961
-0.14389243
-0.039662248
-0.15054344
-0.042175339
-0.15752378
-0.044787908
-0.16485147
-0.047499638
-0.17254748
-0.050309958
-0.18063254
-0.053217887
-0.18912935
-0.056221999
-0.19806126
-0.05932036
-0.20745351
-0.062511167
-0.21733278
-0.065785945
-0.22772509
-0.069146256
-0.23865154
-0.072590884
-0.25015183
-0.076116338
-0.26225614
-0.079719156
-0.27499834
-0.083396135
-0.28841377
-0.087143636
-0.30253877
-0.090958067
-0.3174119
-0.09483544
-0.33307358
-0.098770425
-0.34956693
-0.10275768
-0.36693686
-0.10679027
-0.385232
-0.11085941
-0.40450413
-0.11495508
-0.42480817
-0.11906517
-0.44620332
-0.12317594
-0.46875211
-0.12727225
-0.49252095
-0.13133687
-0.51758037
-0.13535036
-0.5440056
-0.1392916
-0.57187493
-0.14313571
-0.60127316
-0.14685617
-0.63228845
-0.15042121
-0.66501617
-0.15379628
-0.69955597
-0.15694163
-0.73601506
-0.15981264
-0.77450647
-0.162359
-0.81515102
-0.16452556
-0.85807428
-0.16624865
-0.90341353
-0.16745429
-0.95131215
-0.16806615
-1.0019104
-0.16799106
-1.0553563
-0.16712884
-1.1117971
-0.16537871
-1.1714094
-0.16259262
-1.2343521
-0.15870766
-1.3008999
-0.15340353
-1.3709393
-0.14682748
-1.4453944
-0.13825724
-1.5223385
-0.12827314
-1.6064836
-1.6901158
-0.00042138443
-0.037151932
-0.0010042236
-0.0413229
-0.0015480064
-0.04234389
-0.0021673288
-0.044774637
-0.002786453
-0.04655447
-0.0034694819
-0.048820513
-0.0041700972
-0.050962539
-0.0049264436
-0.053319576
-0.0057149616
-0.055713693
-0.0065563699
-0.058248409
-0.0074407479
-0.060877769
-0.0083792845
-0.063631831
-0.0093692128
-0.066505574
-0.010416958
-0.069508928
-0.011523941
-0.072646675
-0.012694039
-0.07592601
-0.013929797
-0.079353785
-0.015235227
-0.082936852
-0.016612726
-0.086684097
-0.018066161
-0.0906027
-0.019598464
-0.094702536
-0.021212584
-0.098992343
-0.022912019
-0.10348254
-0.024699045
-0.10818408
-0.026576396
-0.11310829
-0.028546934
-0.11826736
-0.03061254
-0.1236746
-0.032775295
-0.12934423
-0.03503647
-0.13529113
-0.037397463
-0.14153144
-0.039859196
-0.14808171
-0.042422143
-0.15496084
-0.045086111
-0.1621875
-0.04785109
-0.1697825
-0.05071602
-0.17776761
-0.053679968
-0.1861654
-0.056741573
-0.19499966
-0.059898689
-0.20429639
-0.063150197
-0.21408127
-0.066492667
-0.22438262
-0.069919036
-0.23522517
-0.073434893
-0.24663598
-0.077036376
-0.25865466
-0.080722069
-0.27131265
-0.084490048
-0.28464579
-0.088338088
-0.29869073
-0.092263976
-0.31348601
-0.096265015
-0.32907254
-0.10033823
-0.34549371
-0.10447887
-0.36279623
-0.10868156
-0.3810293
-0.11293928
-0.40024641
-0.11724408
-0.42050336
-0.12158647
-0.44186093
-0.12595552
-0.46438306
-0.13033938
-0.48813708
-0.13472415
-0.5131956
-0.13909504
-0.53963471
-0.14343433
-0.56753564
-0.14772304
-0.59698446
-0.15193805
-0.62807344
-0.15605435
-0.66089987
-0.16004251
-0.69556782
-0.16386992
-0.73218764
-0.16749941
-0.77087698
-0.17088924
-0.81176119
-0.17399033
-0.85497319
-0.17674973
-0.90065413
-0.17910958
-0.9489523
-0.1809997
-1.0000202
-0.18234292
-1.0540131
-0.18305109
-1.1110889
-0.18303657
-1.1714239
-0.18217883
-1.2352098
-0.18040672
-1.302672
-0.17747663
-1.3738694
-0.17347478
-1.4493962
-0.16780781
-1.5280054
-0.16093878
-1.6133526
-1.6990346
-0.00040412072
-0.036747811
-0.00098291235
-0.040744108
-0.0015119524
-0.04181485
-0.0021225276
-0.044164062
-0.0027306948
-0.045946303
-0.0034063573
-0.048144851
-0.004100294
-0.050268602
-0.0048523212
-0.052567549
-0.005638636
-0.054927379
-0.0064798953
-0.05740715
-0.007367187
-0.059990478
-0.0083108861
-0.062688132
-0.0093096787
-0.065506782
-0.010369536
-0.068449071
-0.011491849
-0.071524361
-0.012681254
-0.074736605
-0.013940411
-0.078094627
-0.015272864
-0.081604399
-0.016682267
-0.085274694
-0.01817152
-0.089113447
-0.019744307
-0.093129749
-0.02140349
-0.09733316
-0.023152068
-0.10173396
-0.0249931
-0.10634304
-0.026928947
-0.11117244
-0.028961734
-0.11623458
-0.031093637
-0.1215427
-0.033326178
-0.12711169
-0.035660923
-0.13295638
-0.038098596
-0.13909376
-0.040639768
-0.14554054
-0.04328457
-0.15231603
-0.046032923
-0.15943915
-0.048884001
-0.16693142
-0.051837365
-0.17481424
-0.054891935
-0.18311083
-0.058045857
-0.19184574
-0.061298549
-0.2010437
-0.064648324
-0.21073149
-0.068094265
-0.22093668
-0.071630863
-0.23168857
-0.075260314
-0.24300652
-0.078983367
-0.25493161
-0.082799295
-0.26749672
-0.086707792
-0.28073729
-0.090708125
-0.29469039
-0.094800101
-0.30939403
-0.098982211
-0.32489043
-0.10325213
-0.34122379
-0.10760748
-0.35844088
-0.1120442
-0.37659258
-0.11655759
-0.39573303
-0.12114187
-0.41591908
-0.12579022
-0.43721259
-0.13049555
-0.45967772
-0.13524853
-0.4833841
-0.14004012
-0.50840401
-0.1448588
-0.53481604
-0.14969189
-0.56270254
-0.15452406
-0.5921523
-0.15933857
-0.62325892
-0.16411506
-0.65612338
-0.16883088
-0.690852
-0.17345984
-0.72755868
-0.17797209
-0.76636474
-0.18233407
-0.8073992
-0.18650688
-0.85080038
-0.19044832
-0.89671268
-0.19410706
-0.94529356
-0.19742914
-0.99669816
-0.20034727
-1.0510949
-0.20278852
-1.1086476
-0.20468025
-1.1695321
-0.20592767
-1.2339624
-0.20645553
-1.3021441
-0.20608223
-1.3742427
-0.20484313
-1.4506353
-0.20226262
-1.5305859
-0.19872909
-1.616886
-1.7042786
-0.00039513213
-0.036352679
-0.00096150664
-0.040177734
-0.0014859362
-0.041290421
-0.0020982342
-0.043551764
-0.0027068888
-0.045337648
-0.003386675
-0.047465065
-0.0040866879
-0.049568589
-0.0048470817
-0.051807155
-0.0056453615
-0.054129099
-0.0065011317
-0.05655138
-0.0074070595
-0.05908455
-0.0083728676
-0.061722324
-0.0093981331
-0.064481516
-0.010488521
-0.067358683
-0.01164632
-0.070366562
-0.012876027
-0.073506899
-0.014180615
-0.076790039
-0.015564021
-0.080220993
-0.017029452
-0.083809264
-0.018580667
-0.087562232
-0.020220846
-0.091489569
-0.021953101
-0.095600906
-0.023780178
-0.099906882
-0.025704695
-0.10441853
-0.027729393
-0.10914774
-0.029855999
-0.11410797
-0.032086153
-0.11931255
-0.034421384
-0.12477646
-0.036862503
-0.13051526
-0.0394104
-0.13654587
-0.042064728
-0.14288621
-0.044825909
-0.14955485
-0.047693058
-0.156572
-0.050665923
-0.16395856
-0.053743694
-0.17173647
-0.056924993
-0.17992953
-0.060209699
-0.18856103
-0.063596621
-0.19765678
-0.067085224
-0.20724289
-0.070675351
-0.21734656
-0.074367427
-0.22799649
-0.078157441
-0.23921651
-0.082050808
-0.25103824
-0.086048469
-0.26349906
-0.090151992
-0.27663377
-0.094361876
-0.29048051
-0.098678943
-0.30507697
-0.10310332
-0.32046605
-0.10763476
-0.33669235
-0.11227193
-0.35380372
-0.11701318
-0.37185133
-0.12185619
-0.39089002
-0.12679772
-0.41097754
-0.1318345
-0.43217582
-0.13696196
-0.45455026
-0.14217587
-0.47817019
-0.14746979
-0.5031101
-0.15283708
-0.52944874
-0.15826913
-0.5572705
-0.16375593
-0.58666549
-0.16928527
-0.61772958
-0.17484338
-0.65056527
-0.18041386
-0.68528152
-0.18597716
-0.72199538
-0.1915116
-0.7608303
-0.19699133
-0.80191948
-0.20238826
-0.84540345
-0.2076664
-0.89143454
-0.21279147
-0.94016848
-0.21771507
-0.99177457
-0.2223873
-1.0464227
-0.226751
-1.1042839
-0.23073991
-1.1655432
-0.23428739
-1.2304149
-0.23732703
-1.2991045
-0.23972004
-1.3718497
-0.24146999
-1.4488853
-0.24219941
-1.5298564
-0.2422353
-1.61685
-1.7056334
-0.00039464108
-0.035958038
-0.00095998391
-0.039612391
-0.0014885871
-0.040761818
-0.0021120404
-0.04292831
-0.0027319768
-0.044717711
-0.0034268724
-0.046770169
-0.0041455201
-0.048849941
-0.0049275022
-0.051025173
-0.0057522704
-0.053304331
-0.0066381644
-0.055665486
-0.0075796164
-0.058143098
-0.0085855602
-0.06071638
-0.0096568232
-0.063410253
-0.010798702
-0.066216804
-0.012014438
-0.069150826
-0.013307925
-0.072213411
-0.014683075
-0.07541489
-0.016143523
-0.078760545
-0.017693111
-0.082259675
-0.019335034
-0.08592031
-0.02107237
-0.089752233
-0.022908397
-0.093764879
-0.024845772
-0.097969506
-0.026886963
-0.10237734
-0.02903359
-0.10700111
-0.031287775
-0.11185379
-0.033650796
-0.11694952
-0.036123501
-0.12230375
-0.03870609
-0.12793268
-0.041399215
-0.13385274
-0.044202616
-0.14008281
-0.047115932
-0.14664154
-0.050138532
-0.1535494
-0.053270208
-0.16082688
-0.056509847
-0.16849683
-0.059857625
-0.17658176
-0.063312894
-0.18510576
-0.06687587
-0.1940938
-0.070547649
-0.20357111
-0.074328745
-0.21356546
-0.078221164
-0.22410407
-0.082222956
-0.23521472
-0.086340809
-0.24692039
-0.09057707
-0.2592628
-0.09493417
-0.27227667
-0.099415173
-0.28599951
-0.1040217
-0.30047044
-0.10875606
-0.3157317
-0.1136193
-0.33182911
-0.11861239
-0.34881063
-0.12373611
-0.3667276
-0.12899056
-0.38563557
-0.13437606
-0.40559204
-0.13989205
-0.42665983
-0.14553859
-0.44890372
-0.15131404
-0.47239473
-0.15721677
-0.49720737
-0.16324416
-0.52342135
-0.16939228
-0.55112238
-0.175656
-0.58040177
-0.18202936
-0.61135622
-0.18850399
-0.64409064
-0.19506978
-0.67871573
-0.20171536
-0.7153498
-0.20842603
-0.75411963
-0.21518519
-0.79516032
-0.2219719
-0.83861674
-0.22876613
-0.88464032
-0.23553734
-0.93339727
-0.24225668
-0.98505523
-0.24888482
-1.0397946
-0.25537627
-1.0977925
-0.26168089
-1.1592386
-0.26775329
-1.2243425
-0.27353397
-1.2933238
-0.27893571
-1.3664479
-0.28392955
-1.4438914
-0.28822014
-1.5255657
-0.29208513
-1.6129849
-1.7028239
-0.00040038472
-0.035557653
-0.00098497006
-0.039027805
-0.001527106
-0.040219682
-0.002171306
-0.04228411
-0.0028139938
-0.044075024
-0.003535982
-0.046048181
-0.0042871179
-0.048098806
-0.0051054511
-0.05020684
-0.0059731887
-0.052436593
-0.0069068678
-0.054731807
-0.0079032306
-0.057146735
-0.0089701122
-0.059649499
-0.010109698
-0.062270667
-0.011327083
-0.06499942
-0.012625782
-0.067852127
-0.0140102
-0.070828994
-0.01548431
-0.073940779
-0.017051705
-0.07719315
-0.018716054
-0.080595326
-0.020480637
-0.084155727
-0.022348802
-0.087884068
-0.024322869
-0.091790812
-0.026405394
-0.095886981
-0.028598138
-0.10018459
-0.030903049
-0.1046962
-0.033321207
-0.10943563
-0.035853226
-0.1144175
-0.038499585
-0.11965739
-0.041260675
-0.12517159
-0.044135837
-0.13097758
-0.047125297
-0.13709335
-0.050228064
-0.14353877
-0.053444244
-0.15033322
-0.056773125
-0.157498
-0.060215013
-0.16505495
-0.063769807
-0.17302696
-0.067438798
-0.18143677
-0.07122311
-0.19030949
-0.075124697
-0.19966953
-0.079146345
-0.20954381
-0.083291734
-0.21995869
-0.087560592
-0.23094586
-0.091961097
-0.24251988
-0.096496591
-0.2547273
-0.10117192
-0.26760134
-0.10599079
-0.28118064
-0.11095755
-0.29550368
-0.11607536
-0.31061388
-0.12134798
-0.32655649
-0.12677883
-0.34337977
-0.13237116
-0.36113527
-0.13812827
-0.37987846
-0.1440536
-0.39966672
-0.15015066
-0.42056276
-0.15642217
-0.44263222
-0.16287129
-0.46594561
-0.16950061
-0.49057806
-0.17631135
-0.51661061
-0.18330515
-0.54412858
-0.19048227
-0.57322465
-0.19784146
-0.60399703
-0.20538167
-0.63655043
-0.21309976
-0.67099764
-0.22099101
-0.70745856
-0.22904925
-0.74606138
-0.23726677
-0.7869428
-0.24563397
-0.83024954
-0.25413727
-0.87613702
-0.26276262
-0.92477192
-0.27148777
-0.97633008
-0.28029107
-1.0309913
-0.28914205
-1.0889415
-0.29800691
-1.1503738
-0.30685371
-1.2154957
-0.31564052
-1.284537
-0.32431361
-1.3577748
-0.3328375
-1.4353675
-0.34098228
-1.5174209
-0.34896127
-1.6050059
-1.6955246
-0.00041355636
-0.035144097
-0.0010254458
-0.038415916
-0.0015923635
-0.039652764
-0.0022695579
-0.041606916
-0.0029491204
-0.043395461
-0.0037128377
-0.045284464
-0.0045131718
-0.047298471
-0.0053855275
-0.049334484
-0.0063157506
-0.05150637
-0.0073181925
-0.053729365
-0.008392037
-0.056072891
-0.0095442612
-0.058497274
-0.010778172
-0.061036756
-0.012098675
-0.063678917
-0.013510008
-0.066440793
-0.015016238
-0.069322764
-0.016621551
-0.072335466
-0.01832947
-0.075485231
-0.02014348
-0.078781317
-0.022066656
-0.08223255
-0.024101652
-0.085849073
-0.026250726
-0.089641738
-0.028515939
-0.093621768
-0.030898471
-0.097802059
-0.033399294
-0.10219538
-0.03601902
-0.1068159
-0.03875795
-0.11167857
-0.041615972
-0.11679937
-0.044592938
-0.12219462
-0.047688441
-0.12788208
-0.050901745
-0.13388005
-0.054232916
-0.1402076
-0.057681781
-0.14688435
-0.06124841
-0.15393137
-0.064933913
-0.16136944
-0.068739708
-0.16922117
-0.072667929
-0.17750855
-0.07672163
-0.18625579
-0.080903972
-0.19548718
-0.085219954
-0.20522783
-0.089674346
-0.21550429
-0.094271737
-0.22634847
-0.099017312
-0.23777431
-0.10391889
-0.24982572
-0.10898199
-0.26253824
-0.1142126
-0.27595003
-0.11961649
-0.2900998
-0.12519938
-0.30503099
-0.13096736
-0.32078851
-0.1369265
-0.33742063
-0.14308293
-0.35497884
-0.14944375
-0.37351764
-0.15601546
-0.39309501
-0.16280526
-0.41377296
-0.16982016
-0.43561732
-0.17706705
-0.45869872
-0.18455269
-0.48309242
-0.19228388
-0.50887941
-0.20026627
-0.53614619
-0.20850639
-0.56498453
-0.21700943
-0.59549399
-0.2257801
-0.62777976
-0.23482274
-0.661955
-0.24414066
-0.69814064
-0.25373624
-0.7364658
-0.26361029
-0.77706875
-0.27376312
-0.82009672
-0.28419347
-0.86570667
-0.29489694
-0.91406845
-0.30586787
-0.96535914
-0.31709536
-1.0197638
-0.32856579
-1.0774711
-0.34025814
-1.1386814
-0.35215532
-1.2035985
-0.36423852
-1.2724538
-0.37648581
-1.3455275
-0.38885699
-1.4229962
-0.40118332
-1.5050945
-0.41361817
-1.5925709
-1.6833678
-0.00043640061
-0.034707696
-0.0010880838
-0.037764232
-0.0016933868
-0.039047461
-0.0024176203
-0.040882682
-0.0031504535
-0.042662628
-0.003973034
-0.044461883
-0.0048418254
-0.04642968
-0.0057888841
-0.048387425
-0.006804203
-0.050491051
-0.0078999128
-0.052633655
-0.0090776451
-0.054895158
-0.010343412
-0.057231507
-0.011701795
-0.059678373
-0.013157306
-0.062223406
-0.014714592
-0.064883508
-0.016377687
-0.067659669
-0.018150282
-0.070562871
-0.020036214
-0.073599298
-0.022038298
-0.076779233
-0.024159137
-0.08011171
-0.026400599
-0.083607612
-0.028764412
-0.087277925
-0.031251712
-0.091134469
-0.033863205
-0.095190565
-0.036599058
-0.099459528
-0.039459277
-0.10395568
-0.042443474
-0.10869438
-0.045551424
-0.11369142
-0.048782201
-0.11896384
-0.052135609
-0.12452867
-0.055611666
-0.13040399
-0.059210232
-0.13660903
-0.062932002
-0.14316258
-0.066778291
-0.15008508
-0.070751329
-0.1573964
-0.074854329
-0.16511817
-0.079090521
-0.17327236
-0.083465259
-0.18188105
-0.087983814
-0.19096863
-0.092652409
-0.20055923
-0.097478056
-0.21067865
-0.10246784
-0.22135869
-0.10762816
-0.23261398
-0.1129683
-0.24448559
-0.11849577
-0.25701077
-0.1242187
-0.2702271
-0.13014479
-0.28417371
-0.13628247
-0.29889331
-0.14264065
-0.31443033
-0.14922814
-0.33083314
-0.15605484
-0.34815214
-0.16313076
-0.36644172
-0.17046641
-0.38575936
-0.1780726
-0.40616676
-0.18596058
-0.42772935
-0.19414159
-0.45051771
-0.20262693
-0.47460708
-0.21142826
-0.50007808
-0.22055733
-0.52701713
-0.2300257
-0.55551616
-0.23984553
-0.58567415
-0.25002831
-0.61759698
-0.26058587
-0.65139744
-0.27152934
-0.68719717
-0.28287018
-0.72512496
-0.29461893
-0.76532
-0.30678611
-0.80792953
-0.31938085
-0.85311193
-0.33241123
-0.90103806
-0.34588907
-0.95188131
-0.35981427
-1.0058386
-0.37418518
-1.0631002
-0.38900213
-1.1238645
-0.40426495
-1.1883357
-0.41996778
-1.256751
-0.43611904
-1.3293762
-0.45268869
-1.4064266
-0.46956759
-1.4882155
-0.48685292
-1.5752855
-1.6659554
-0.00046922207
-0.034238474
-0.0011740437
-0.037059411
-0.0018326879
-0.038388817
-0.0026198273
-0.040095543
-0.0034244968
-0.041857958
-0.0043255366
-0.043560843
-0.0052850974
-0.045470119
-0.0063309222
-0.0473416
-0.0074576937
-0.04936428
-0.0086752341
-0.051416115
-0.0099874467
-0.053582946
-0.01139962
-0.055819334
-0.012917137
-0.058160855
-0.014544236
-0.060596307
-0.016285641
-0.063142103
-0.018144936
-0.065800373
-0.020125833
-0.068581975
-0.022230854
-0.071494277
-0.024462449
-0.074547639
-0.026822416
-0.077751743
-0.029311859
-0.081118169
-0.031931672
-0.084658112
-0.034681649
-0.088384491
-0.03756201
-0.092310204
-0.040572025
-0.096449513
-0.043711238
-0.10081647
-0.04697861
-0.10542701
-0.050373631
-0.1102964
-0.053896119
-0.11544135
-0.057545719
-0.12087907
-0.06132285
-0.12662686
-0.065228548
-0.13270333
-0.06926489
-0.13912624
-0.07343481
-0.14591516
-0.077741817
-0.1530894
-0.082190696
-0.16066929
-0.086787938
-0.16867512
-0.091539668
-0.17712932
-0.096453993
-0.1860543
-0.10153896
-0.19547427
-0.10680328
-0.20541433
-0.1122562
-0.21590577
-0.11790686
-0.22696332
-0.12376521
-0.23862724
-0.12984118
-0.25093479
-0.13614487
-0.26392341
-0.14268685
-0.27763172
-0.14947859
-0.29210158
-0.15653136
-0.30737756
-0.16385808
-0.32350642
-0.17147139
-0.34053883
-0.17938545
-0.35852766
-0.18761456
-0.37753026
-0.1961734
-0.39760792
-0.20507722
-0.41882553
-0.21434214
-0.44125279
-0.22398448
-0.46496475
-0.23402111
-0.49004145
-0.24446965
-0.51656858
-0.25534779
-0.54463802
-0.26667442
-0.57434752
-0.27846833
-0.60580308
-0.29074916
-0.6391166
-0.30353694
-0.6744094
-0.31685162
-0.71181029
-0.33071468
-0.75145693
-0.3451465
-0.79349771
-0.36016843
-0.83809
-0.37580327
-0.88540323
-0.39207035
-0.93561423
-0.40898958
-0.98891933
-0.42658051
-1.0455092
-0.44485265
-1.1055923
-0.46382022
-1.1693681
-0.48349965
-1.2370715
-0.50392192
-1.308954
-0.52508033
-1.3852681
-0.54691803
-1.4663777
-0.56950503
-1.5526984
-1.6428512
-0.00051262146
-0.033725853
-0.0012852812
-0.036286751
-0.0020146087
-0.037659489
-0.0028827456
-0.039227406
-0.0037808832
-0.040959821
-0.0047835253
-0.042558201
-0.0058599306
-0.044393714
-0.0070331544
-0.046168376
-0.0083024501
-0.048094984
-0.0096754858
-0.050043079
-0.011158146
-0.052100286
-0.012754935
-0.054222545
-0.014471677
-0.056444113
-0.016312103
-0.058755881
-0.018280558
-0.061173648
-0.020379977
-0.063700955
-0.022613077
-0.066348874
-0.024981617
-0.069125736
-0.027486945
-0.072042311
-0.030129461
-0.075109227
-0.03290946
-0.07833817
-0.035826104
-0.081741468
-0.038879012
-0.085331584
-0.042066878
-0.089122338
-0.045388919
-0.093127472
-0.048843714
-0.097361676
-0.052430802
-0.10183992
-0.056149688
-0.10657751
-0.060000017
-0.11159102
-0.063983147
-0.11689594
-0.068100045
-0.12250996
-0.072353986
-0.12844939
-0.076748054
-0.13473217
-0.081287314
-0.14137591
-0.085977499
-0.14839921
-0.090826162
-0.15582063
-0.095841031
-0.16366025