/*--------------------------------*- C++ -*----------------------------------*\
  =========                 |
  \\      /  F ield         | OpenFOAM: The Open Source CFD Toolbox
   \\    /   O peration     | Website:  https://openfoam.org
    \\  /    A nd           | Version:  6
     \\/     M anipulation  |
\*---------------------------------------------------------------------------*/
FoamFile
{
    version     2.0;
    format      ascii;
    class       volScalarField;
    location    "150";
    object      rho;
}
// * * * * * * * * * * * * * * * * * * * * * * * * * * * * * * * * * * * * * //

dimensions      [1 -3 0 0 0 0 0];

internalField   nonuniform List<scalar> 
16000
(
1.1581717
1.163918
1.1622515
1.1634161
1.1628076
1.1633162
1.1630829
1.1633703
1.1633195
1.1635257
1.1635807
1.1637649
1.1638894
1.1640812
1.164256
1.1644684
1.1646823
1.1649196
1.1651653
1.1654275
1.1656999
1.1659847
1.1662791
1.1665832
1.1668955
1.1672152
1.167541
1.1678716
1.1682056
1.1685414
1.168878
1.1692138
1.169548
1.1698836
1.1701501
1.1704195
1.1706912
1.1709602
1.171216
1.1714599
1.1716934
1.1719129
1.1721176
1.1723082
1.1724841
1.1726445
1.1727891
1.1729179
1.1730305
1.1731271
1.1732076
1.1732722
1.1733211
1.1733546
1.1733729
1.1733765
1.1733656
1.1733406
1.173302
1.1732503
1.1731858
1.1731093
1.1730205
1.1729213
1.1728092
1.1726894
1.1725528
1.1724165
1.1722483
1.1721062
1.1718833
1.1717691
1.1714248
1.1714447
1.1707844
1.1712323
1.1697623
1.1713108
1.168175
1.1716657
1.1581853
1.164025
1.1622652
1.1635259
1.1628949
1.1634687
1.1632397
1.1635754
1.1635414
1.1637862
1.1638651
1.1640826
1.1642339
1.164456
1.1646584
1.1648993
1.1651404
1.1654047
1.1656765
1.1659641
1.1662607
1.1665688
1.1668852
1.1672099
1.1675411
1.1678781
1.1682193
1.1685633
1.1689087
1.1692539
1.1695973
1.1699376
1.170274
1.1706028
1.1709285
1.1712277
1.1714708
1.1717187
1.1719606
1.1721881
1.172402
1.1726007
1.1727832
1.1729501
1.1731013
1.1732362
1.1733548
1.1734571
1.1735432
1.1736134
1.1736678
1.1737068
1.1737307
1.1737399
1.1737349
1.173716
1.1736838
1.1736387
1.1735811
1.1735115
1.1734305
1.1733385
1.1732358
1.1731231
1.1729997
1.1728676
1.1727233
1.1725735
1.1724045
1.1722415
1.172034
1.1718752
1.1715837
1.1715034
1.1709772
1.1712225
1.1700087
1.1712418
1.1683834
1.1716505
1.1583196
1.1642437
1.1624109
1.1637574
1.163114
1.1637451
1.1635266
1.1639059
1.1638925
1.1641727
1.1642775
1.1645263
1.1647055
1.1649567
1.1651871
1.1654557
1.1657239
1.1660145
1.166312
1.1666241
1.1669444
1.1672747
1.1676121
1.1679561
1.1683051
1.1686577
1.1690126
1.1693681
1.1697226
1.1700745
1.1704222
1.1707642
1.1710993
1.1714265
1.1717429
1.1720477
1.1723471
1.172565
1.172777
1.172984
1.1731758
1.173349
1.173505
1.1736443
1.1737667
1.1738723
1.1739611
1.1740335
1.1740898
1.1741304
1.1741558
1.1741664
1.1741628
1.1741454
1.1741147
1.1740714
1.174016
1.1739489
1.1738706
1.1737817
1.1736827
1.173574
1.1734559
1.1733287
1.1731925
1.173048
1.1728936
1.1727321
1.1725572
1.1723797
1.1721754
1.1719897
1.1717259
1.1715798
1.1711423
1.1712348
1.1702176
1.1711856
1.1685996
1.1716231
1.1586164
1.1646178
1.1627149
1.1641509
1.163495
1.1641873
1.1639817
1.1644074
1.1644174
1.1647359
1.1648697
1.1651526
1.1653626
1.1656455
1.1659067
1.1662053
1.1665029
1.1668217
1.1671465
1.1674844
1.1678292
1.1681823
1.1685406
1.1689035
1.169269
1.1696358
1.1700021
1.1703664
1.1707268
1.1710815
1.1714289
1.1717674
1.1720958
1.1724128
1.1727173
1.1730077
1.1732815
1.1735458
1.1737298
1.1738986
1.1740624
1.1742045
1.1743261
1.1744309
1.1745179
1.1745875
1.1746404
1.1746769
1.1746976
1.1747032
1.1746943
1.1746717
1.1746358
1.1745875
1.1745273
1.1744559
1.1743738
1.1742816
1.17418
1.1740693
1.17395
1.1738226
1.1736873
1.1735445
1.1733941
1.1732363
1.1730707
1.1728977
1.1727149
1.172526
1.1723197
1.1721163
1.1718661
1.171677
1.1712983
1.1712817
1.1704125
1.171171
1.168801
1.1716631
1.1590589
1.1651267
1.1631667
1.1646939
1.1640302
1.1647847
1.1645957
1.1650684
1.1651055
1.1654635
1.1656296
1.165948
1.1661915
1.1665077
1.1668015
1.1671315
1.1674598
1.1678077
1.1681604
1.1685244
1.1688935
1.1692688
1.169647
1.1700272
1.1704073
1.1707857
1.1711605
1.1715299
1.171892
1.1722451
1.1725872
1.1729169
1.1732328
1.173534
1.1738189
1.1740868
1.1743368
1.1745668
1.1747848
1.1749084
1.1750296
1.1751363
1.1752174
1.1752813
1.1753276
1.1753558
1.1753677
1.1753636
1.1753443
1.1753109
1.175264
1.1752047
1.1751335
1.1750514
1.1749591
1.1748572
1.1747464
1.1746273
1.1745006
1.1743665
1.1742257
1.1740784
1.173925
1.1737655
1.1736001
1.1734287
1.1732509
1.1730668
1.1728748
1.1726759
1.1724647
1.172249
1.1720044
1.1717861
1.1714477
1.1713467
1.1706055
1.1711788
1.1690103
1.1717284
1.1596625
1.1657845
1.1637793
1.1653987
1.1647328
1.1655505
1.1653812
1.1659038
1.1659724
1.166372
1.1665743
1.1669305
1.1672108
1.1675626
1.1678917
1.168255
1.1686159
1.1689942
1.1693757
1.1697661
1.1701595
1.1705561
1.1709528
1.1713483
1.1717403
1.1721269
1.1725061
1.172876
1.1732346
1.17358
1.1739104
1.1742243
1.1745204
1.1747979
1.1750558
1.1752931
1.175509
1.1757038
1.1758763
1.1760204
1.1760792
1.1761415
1.1761782
1.1761941
1.1761937
1.1761751
1.1761406
1.1760911
1.1760273
1.1759507
1.1758621
1.1757627
1.1756532
1.1755346
1.1754076
1.1752731
1.1751317
1.1749841
1.1748308
1.1746721
1.1745086
1.1743405
1.1741681
1.1739913
1.1738103
1.1736249
1.1734346
1.1732393
1.1730378
1.17283
1.1726127
1.1723878
1.1721444
1.1719064
1.1715962
1.1714301
1.1707931
1.1712098
1.1692223
1.1718232
1.1604204
1.1665813
1.1645517
1.1662629
1.1656006
1.1664857
1.166342
1.1669169
1.1670223
1.1674664
1.1677095
1.1681063
1.1684272
1.168817
1.1691842
1.1695828
1.1699779
1.1703875
1.1707984
1.171215
1.1716315
1.1720479
1.1724607
1.1728684
1.1732683
1.1736584
1.1740366
1.1744008
1.1747491
1.1750795
1.1753903
1.1756801
1.1759478
1.1761928
1.1764146
1.1766125
1.1767863
1.1769356
1.1770617
1.1771633
1.1772029
1.1772066
1.1771927
1.1771545
1.177101
1.1770305
1.1769447
1.1768455
1.1767335
1.1766105
1.1764772
1.1763351
1.176185
1.176028
1.1758649
1.1756964
1.1755233
1.1753461
1.1751654
1.1749815
1.1747947
1.1746054
1.1744136
1.1742193
1.1740225
1.173823
1.1736203
1.1734139
1.173203
1.1729867
1.172763
1.1725311
1.1722866
1.1720356
1.1717451
1.1715286
1.1709863
1.1712586
1.1694484
1.1719359
1.1613394
1.1675235
1.165489
1.1672986
1.1666467
1.167602
1.1674909
1.1681212
1.1682698
1.1687614
1.1690506
1.1694912
1.1698566
1.1702873
1.1706953
1.1711309
1.1715616
1.1720031
1.1724431
1.1728848
1.1733227
1.173756
1.1741813
1.1745964
1.1749987
1.175386
1.1757559
1.1761065
1.1764357
1.1767418
1.1770233
1.177279
1.1775081
1.1777103
1.1778856
1.178034
1.1781554
1.1782508
1.1783203
1.1783642
1.178387
1.178319
1.1782457
1.178149
1.1780365
1.1779097
1.1777685
1.177616
1.1774527
1.1772805
1.1771003
1.1769137
1.1767215
1.1765248
1.1763245
1.1761213
1.1759158
1.1757086
1.1755002
1.1752908
1.1750808
1.1748701
1.174659
1.1744474
1.174235
1.1740216
1.1738066
1.1735895
1.1733695
1.1731455
1.1729157
1.1726784
1.1724316
1.1721731
1.1718959
1.1716417
1.1711796
1.1713246
1.169685
1.1720629
1.1624332
1.168631
1.1666123
1.1685225
1.1678876
1.1689166
1.1688451
1.1695337
1.1697318
1.1702743
1.1706147
1.1711022
1.1715159
1.1719899
1.1724408
1.1729148
1.1733817
1.1738546
1.1743224
1.1747869
1.1752427
1.1756885
1.1761205
1.1765364
1.1769335
1.1773092
1.1776614
1.177988
1.1782873
1.1785578
1.1787983
1.1790081
1.1791867
1.1793345
1.1794519
1.1795397
1.1795986
1.1796294
1.1796334
1.1796122
1.1795692
1.1794599
1.1793195
1.1791601
1.1789843
1.1787972
1.1785974
1.1783889
1.178172
1.1779488
1.1777205
1.1774883
1.1772533
1.1770166
1.1767788
1.1765408
1.1763031
1.1760661
1.1758303
1.1755958
1.1753628
1.1751314
1.1749015
1.1746729
1.1744454
1.1742186
1.173992
1.1737649
1.1735364
1.1733053
1.17307
1.1728288
1.1725796
1.1723175
1.172049
1.1717689
1.1713771
1.1714063
1.1699368
1.172205
1.1637173
1.169955
1.1679342
1.1699499
1.1693391
1.1704451
1.170421
1.1711713
1.1714262
1.1720229
1.1724201
1.1729578
1.1734235
1.1739431
1.1744389
1.1749519
1.1754544
1.1759573
1.1764499
1.1769331
1.1774014
1.1778528
1.1782835
1.178691
1.1790723
1.1794252
1.1797473
1.1800371
1.1802931
1.1805143
1.1807001
1.1808502
1.1809651
1.1810454
1.1810927
1.1811083
1.1810937
1.1810504
1.1809804
1.1808866
1.1807667
1.1806108
1.1803979
1.1801707
1.179928
1.1796772
1.1794167
1.1791503
1.1788786
1.1786038
1.1783268
1.178049
1.1777715
1.177495
1.1772204
1.1769483
1.1766791
1.1764132
1.1761509
1.1758921
1.1756371
1.1753857
1.1751378
1.1748932
1.1746515
1.1744122
1.1741748
1.1739384
1.1737023
1.1734652
1.1732254
1.1729813
1.1727302
1.1724681
1.1722047
1.1719091
1.1715772
1.171503
1.1702036
1.1723628
1.1651948
1.1714865
1.1694618
1.1715893
1.1710124
1.1722004
1.1722339
1.1730507
1.1733708
1.1740264
1.1744867
1.1750783
1.1755998
1.1761672
1.1767088
1.1772602
1.1777966
1.178326
1.1788383
1.1793334
1.1798058
1.180253
1.1806711
1.1810574
1.1814093
1.1817245
1.1820012
1.1822382
1.1824348
1.1825906
1.1827058
1.182781
1.1828174
1.1828167
1.1827809
1.1827127
1.1826141
1.1824872
1.1823355
1.1821607
1.1819613
1.1817503
1.1814592
1.1811604
1.1808488
1.1805326
1.1802104
1.1798857
1.1795593
1.1792332
1.1789082
1.1785858
1.1782668
1.1779519
1.1776418
1.177337
1.1770377
1.1767443
1.1764569
1.1761753
1.1758996
1.1756296
1.175365
1.1751055
1.1748508
1.1746001
1.174353
1.1741086
1.1738659
1.1736237
1.1733806
1.1731348
1.172883
1.1726234
1.172363
1.1720617
1.1717797
1.1716143
1.170492
1.1725266
1.1668675
1.1732202
1.1712084
1.1734583
1.1729268
1.1742036
1.1743068
1.1751959
1.1755909
1.1763104
1.1768402
1.1774895
1.1780698
1.1786859
1.1792726
1.1798602
1.1804258
1.1809751
1.1814988
1.1819954
1.1824596
1.1828884
1.1832783
1.1836267
1.1839311
1.1841901
1.1844023
1.1845676
1.1846858
1.1847579
1.184785
1.1847688
1.1847115
1.1846157
1.1844844
1.184321
1.1841289
1.1839104
1.1836695
1.1834086
1.1831261
1.1828479
1.182481
1.1821084
1.181728
1.1813464
1.180963
1.180581
1.1802012
1.1798252
1.1794541
1.179089
1.1787305
1.1783793
1.1780358
1.1777003
1.1773731
1.1770541
1.1767435
1.176441
1.1761464
1.1758594
1.1755798
1.175307
1.1750407
1.1747801
1.1745246
1.1742733
1.1740254
1.1737795
1.1735344
1.1732881
1.1730372
1.1727822
1.1725236
1.1722252
1.1719829
1.1717412
1.1707981
1.1726894
1.1687664
1.1751984
1.1732028
1.1755844
1.1751125
1.1764851
1.1766711
1.1776383
1.178118
1.1789065
1.1795114
1.180221
1.1808613
1.1815248
1.1821533
1.1827711
1.1833576
1.1839161
1.1844378
1.1849203
1.1853587
1.1857499
1.1860908
1.1863794
1.186614
1.1867939
1.1869192
1.1869906
1.1870095
1.186978
1.1868985
1.1867741
1.186608
1.1864039
1.1861657
1.1858977
1.1856037
1.1852875
1.184953
1.1846022
1.1842346
1.1838742
1.183442
1.1829958
1.1825475
1.1821021
1.1816596
1.1812226
1.1807918
1.1803689
1.1799545
1.1795495
1.1791544
1.1787696
1.1783955
1.1780321
1.1776795
1.1773376
1.1770062
1.176685
1.1763737
1.1760718
1.1757791
1.1754949
1.1752186
1.1749497
1.1746874
1.1744309
1.1741791
1.1739309
1.1736852
1.1734398
1.1731916
1.1729424
1.1726861
1.1723978
1.1721853
1.1718832
1.1711119
1.1728467
1.1709076
1.1774405
1.1754724
1.1779986
1.1776018
1.1790781
1.1793618
1.1804137
1.1809882
1.1818504
1.1825347
1.1833054
1.1840041
1.1847105
1.1853729
1.1860099
1.1866032
1.187154
1.1876539
1.1881002
1.1884886
1.1888165
1.1890817
1.1892832
1.1894207
1.1894951
1.1895078
1.1894612
1.1893583
1.1892028
1.1889986
1.18875
1.1884616
1.188138
1.1877838
1.1874042
1.1870033
1.1865854
1.1861553
1.185714
1.1852618
1.1848229
1.1843212
1.1838042
1.1832906
1.1827849
1.1822866
1.1817983
1.1813205
1.1808543
1.1804004
1.1799592
1.1795312
1.1791164
1.178715
1.178327
1.1779521
1.17759
1.1772406
1.1769034
1.1765778
1.1762635
1.1759598
1.1756662
1.175382
1.1751066
1.1748393
1.1745791
1.1743251
1.1740762
1.1738312
1.173588
1.1733444
1.1731024
1.1728496
1.172577
1.1723857
1.1720395
1.1714218
1.172997
1.1733262
1.1799802
1.1780534
1.180737
1.1804367
1.1820245
1.1824226
1.1835657
1.1842445
1.1851835
1.1859488
1.1867779
1.1875285
1.1882674
1.1889491
1.1895872
1.1901652
1.1906828
1.1911327
1.1915125
1.1918189
1.1920506
1.1922071
1.192289
1.1922982
1.1922373
1.1921101
1.1919207
1.191674
1.1913754
1.1910303
1.1906443
1.1902231
1.1897721
1.1892965
1.1888015
1.188292
1.1877724
1.1872476
1.1867179
1.186184
1.1856713
1.1850999
1.1845171
1.1839428
1.1833816
1.1828325
1.1822979
1.1817778
1.1812732
1.1807843
1.1803114
1.1798546
1.179414
1.1789892
1.1785801
1.1781863
1.1778075
1.1774431
1.1770927
1.1767556
1.1764312
1.176119
1.1758182
1.1755283
1.1752484
1.1749778
1.1747157
1.1744611
1.1742131
1.1739704
1.173731
1.1734938
1.1732597
1.1730129
1.1727602
1.1725823
1.1722094
1.1717325
1.1731431
1.1760713
1.1828592
1.1809906
1.183848
1.1836681
1.1853762
1.1859066
1.1871461
1.1879364
1.1889523
1.1897951
1.1906735
1.1914618
1.1922139
1.1928905
1.1935007
1.1940305
1.1944788
1.1948403
1.1951136
1.1952976
1.1953932
1.1954023
1.1953283
1.1951754
1.194949
1.1946549
1.1942996
1.1938899
1.1934326
1.1929345
1.1924024
1.1918425
1.1912607
1.1906627
1.1900533
1.1894373
1.1888197
1.1882049
1.187591
1.1869819
1.1864035
1.1857634
1.1851216
1.1844926
1.1838822
1.1832884
1.1827133
1.1821566
1.181619
1.1811004
1.1806008
1.18012
1.1796578
1.1792138
1.1787876
1.1783786
1.1779864
1.1776103
1.1772497
1.1769039
1.1765722
1.1762539
1.1759484
1.1756548
1.1753725
1.1751007
1.1748385
1.1745851
1.1743395
1.1741006
1.1738665
1.1736372
1.1734116
1.1731736
1.1729433
1.1727718
1.172388
1.172042
1.1732843
1.1791435
1.1861307
1.1843494
1.1873906
1.1873592
1.1891951
1.1898772
1.1912172
1.1921204
1.1932062
1.1941139
1.1950218
1.195821
1.1965538
1.1971867
1.1977262
1.1981611
1.1984915
1.1987147
1.1988321
1.1988459
1.1987601
1.1985802
1.1983126
1.1979648
1.1975447
1.1970608
1.1965213
1.1959348
1.1953092
1.1946524
1.1939713
1.1932728
1.1925626
1.1918462
1.1911284
1.1904125
1.1897042
1.1890064
1.1883166
1.1876427
1.1870086
1.1863008
1.1856078
1.1849318
1.1842793
1.1836478
1.1830389
1.182452
1.1818873
1.1813446
1.1808235
1.1803237
1.1798446
1.1793857
1.1789465
1.1785261
1.1781241
1.1777396
1.177372
1.1770203
1.176684
1.1763622
1.1760542
1.1757592
1.1754765
1.1752054
1.174945
1.1746944
1.174453
1.1742193
1.173992
1.1737719
1.1735557
1.1733296
1.1731227
1.1729544
1.1725735
1.1723436
1.173417
1.1826524
1.1898245
1.1881762
1.1914372
1.1915875
1.1935545
1.1944033
1.195845
1.1968538
1.1979891
1.1989339
1.1998354
1.2006011
1.2012638
1.2017966
1.2022055
1.2024837
1.2026343
1.2026592
1.2025639
1.2023552
1.2020413
1.2016318
1.2011366
1.2005663
1.1999313
1.199242
1.1985082
1.1977394
1.1969441
1.1961303
1.1953049
1.1944743
1.1936441
1.1928186
1.1920022
1.1911979
1.19041
1.1896388
1.1888827
1.1881583
1.1874726
1.1867051
1.1859695
1.1852553
1.1845688
1.1839072
1.1832716
1.1826611
1.1820756
1.1815146
1.1809775
1.1804636
1.1799724
1.179503
1.1790547
1.1786268
1.1782184
1.1778288
1.1774571
1.1771026
1.1767643
1.1764415
1.1761334
1.1758391
1.1755582
1.1752896
1.1750327
1.1747867
1.1745508
1.1743239
1.1741049
1.173895
1.1736888
1.1734768
1.1732938
1.1731295
1.1727619
1.1726251
1.173539
1.1866906
1.1940693
1.1925908
1.1960645
1.1964653
1.198567
1.1995701
1.2010836
1.2021791
1.2033281
1.2042605
1.2050965
1.2057602
1.2062787
1.2066336
1.2068335
1.2068786
1.2067772
1.2065376
1.2061711
1.2056895
1.2051059
1.2044338
1.2036863
1.2028764
1.2020163
1.2011174
1.20019
1.1992437
1.1982866
1.1973261
1.1963685
1.1954191
1.1944825
1.1935623
1.1926608
1.1917818
1.1909277
1.1900958
1.1892874
1.1885242
1.1877816
1.1869751
1.1862054
1.1854625
1.1847501
1.1840662
1.1834109
1.1827835
1.1821834
1.1816099
1.181062
1.1805391
1.1800402
1.1795645
1.1791112
1.1786793
1.178268
1.1778764
1.1775036
1.1771488
1.1768111
1.1764897
1.1761837
1.1758924
1.175615
1.1753508
1.1750991
1.1748592
1.1746303
1.1744113
1.174202
1.1740029
1.1738073
1.1736113
1.1734523
1.1732911
1.172939
1.1728896
1.1736526
1.1913955
1.1989983
1.1977704
1.2014428
1.2020858
1.204289
1.2054614
1.207018
1.2081355
1.2092275
1.2100608
1.2107365
1.2111979
1.2114707
1.2115487
1.2114463
1.2111734
1.2107456
1.2101784
1.2094894
1.2086957
1.2078142
1.2068614
1.2058524
1.2048012
1.2037203
1.202621
1.2015128
1.2004043
1.1993026
1.1982136
1.1971421
1.1960924
1.1950675
1.1940698
1.1931006
1.1921628
1.191257
1.1903775
1.1895313
1.1887416
1.1879459
1.1871134
1.1863186
1.1855555
1.1848252
1.1841265
1.1834586
1.1828207
1.1822119
1.1816313
1.1810777
1.1805504
1.1800482
1.1795702
1.1791155
1.1786831
1.178272
1.1778814
1.1775102
1.1771577
1.1768229
1.176505
1.1762032
1.1759167
1.1756447
1.1753866
1.1751416
1.1749092
1.1746885
1.1744786
1.1742799
1.1740921
1.1739077
1.1737295
1.1735912
1.1734293
1.1731056
1.1731427
1.1737506
1.1969836
1.2047643
1.2038611
1.2076463
1.2086025
1.210896
1.2121432
1.213658
1.2146932
1.2156051
1.2162094
1.2165923
1.2167211
1.2166268
1.2163175
1.2158176
1.2151474
1.2143305
1.2133894
1.2123465
1.2112225
1.2100366
1.2088058
1.2075454
1.2062687
1.204987
1.2037097
1.2024449
1.201199
1.1999773
1.1987838
1.1976219
1.1964938
1.1954013
1.1943449
1.1933261
1.1923467
1.1914032
1.1904898
1.1896231
1.1888201
1.1879736
1.1871249
1.1863135
1.1855387
1.1847982
1.1840918
1.1834179
1.1827755
1.1821635
1.1815809
1.1810263
1.1804989
1.1799973
1.1795207
1.179068
1.1786381
1.1782301
1.177843
1.1774759
1.1771279
1.1767982
1.1764858
1.17619
1.1759099
1.175645
1.1753943
1.1751574
1.1749336
1.1747222
1.1745225
1.1743351
1.1741587
1.1739865
1.1738267
1.1737051
1.1735448
1.1732643
1.1733619
1.173826
1.2035998
1.2114209
1.2109378
1.2148878
1.2161132
1.2184068
1.2196103
1.2209103
1.2216959
1.2222513
1.2224542
1.2223836
1.2220354
1.2214507
1.2206541
1.2196799
1.2185579
1.217318
1.215987
1.214589
1.2131452
1.2116741
1.2101913
1.2087097
1.2072399
1.2057907
1.2043689
1.2029798
1.2016277
1.2003153
1.1990448
1.1978179
1.1966351
1.1954964
1.1944014
1.1933513
1.1923459
1.1913777
1.1904464
1.189578
1.1887687
1.187869
1.1870153
1.1861968
1.1854179
1.1846748
1.1839671
1.1832931
1.1826518
1.1820416
1.1814615
1.1809101
1.1803863
1.179889
1.1794169
1.1789691
1.1785445
1.1781421
1.1777609
1.1774
1.1770585
1.1767355
1.1764303
1.176142
1.1758699
1.1756132
1.1753713
1.1751435
1.1749294
1.1747281
1.1745393
1.1743636
1.1741988
1.1740397
1.1738984
1.1737899
1.1736342
1.1734024
1.1735388
1.1738767
1.211504
1.2193469
1.2194097
1.2233887
1.2245986
1.2266416
1.2276378
1.228497
1.2288071
1.2287946
1.2284038
1.2277187
1.2267649
1.2255954
1.2242487
1.2227662
1.2211823
1.2195283
1.2178305
1.2161112
1.2143883
1.2126764
1.2109874
1.2093302
1.207712
1.2061375
1.204611
1.2031345
1.2017099
1.2003377
1.1990186
1.1977516
1.1965367
1.195372
1.1942575
1.1931929
1.1921745
1.1911941
1.1902644
1.1894055
1.1885508
1.1876486
1.1867936
1.1859774
1.1852007
1.1844614
1.1837581
1.1830894
1.1824537
1.1818497
1.1812761
1.1807315
1.1802148
1.1797246
1.1792599
1.1788196
1.1784025
1.1780078
1.1776345
1.1772816
1.1769482
1.1766335
1.1763367
1.1760571
1.175794
1.1755466
1.1753143
1.1750966
1.1748929
1.1747023
1.174525
1.1743611
1.1742079
1.1740626
1.1739386
1.1738405
1.1736938
1.1735118
1.1736644
1.1738994
1.2212518
1.2288574
1.2292544
1.2329098
1.2339662
1.2354162
1.2358371
1.2359557
1.2355098
1.2347085
1.233552
1.2321348
1.230504
1.2287193
1.2268248
1.2248608
1.2228595
1.2208475
1.2188453
1.2168693
1.2149317
1.2130416
1.2112053
1.2094274
1.2077108
1.2060571
1.2044669
1.2029402
1.2014763
1.2000742
1.1987321
1.1974491
1.1962227
1.195051
1.1939335
1.1928689
1.1918488
1.1908709
1.1899591
1.1891145
1.1882124
1.1873195
1.1864696
1.185662
1.1848938
1.1841637
1.1834699
1.1828109
1.1821851
1.181591
1.1810273
1.1804927
1.1799858
1.1795054
1.1790504
1.1786197
1.1782122
1.177827
1.1774631
1.1771196
1.1767956
1.1764904
1.1762032
1.1759332
1.1756798
1.1754424
1.1752203
1.175013
1.17482
1.1746406
1.1744749
1.1743227
1.1741813
1.1740498
1.1739411
1.1738512
1.1737183
1.1735823
1.1737297
1.1738842
1.2328863
1.2397079
1.2401724
1.2430327
1.2434826
1.2439524
1.2434294
1.2425176
1.2410976
1.2393683
1.2373736
1.2352087
1.2329281
1.2305866
1.2282221
1.2258662
1.2235412
1.2212642
1.2190471
1.2168982
1.2148227
1.2128237
1.2109027
1.2090598
1.2072942
1.2056046
1.2039892
1.2024459
1.2009723
1.199566
1.1982246
1.1969454
1.1957252
1.1945627
1.1934569
1.1924022
1.1913905
1.1904319
1.18955
1.1886991
1.1877674
1.1868907
1.1860541
1.1852606
1.1845062
1.1837899
1.1831098
1.1824642
1.1818515
1.1812704
1.1807193
1.180197
1.1797021
1.1792336
1.1787901
1.1783707
1.1779742
1.1775999
1.1772466
1.1769135
1.1765999
1.1763049
1.1760278
1.1757679
1.1755247
1.1752974
1.1750857
1.1748888
1.1747064
1.174538
1.1743837
1.1742429
1.1741131
1.1739953
1.1738998
1.1738169
1.1737004
1.1736044
1.1737351
1.1738192
1.2450788
1.2512438
1.2513865
1.2528686
1.2522161
1.2512716
1.2494985
1.2473787
1.2449112
1.2422671
1.2395064
1.2367056
1.2339076
1.2311489
1.2284528
1.225836
1.2233081
1.2208755
1.2185407
1.2163043
1.2141656
1.2121226
1.2101728
1.2083132
1.2065405
1.2048511
1.2032417
1.2017086
1.2002487
1.1988586
1.1975352
1.1962748
1.1950748
1.1939335
1.1928489
1.1918112
1.1908185
1.1898961
1.1890413
1.1881372
1.1872307
1.1863699
1.185553
1.1847771
1.1840405
1.1833414
1.182678
1.1820486
1.1814517
1.1808858
1.1803495
1.1798415
1.1793605
1.1789053
1.1784749
1.178068
1.1776838
1.1773214
1.1769797
1.176658
1.1763554
1.1760713
1.1758048
1.1755554
1.1753226
1.1751056
1.1749041
1.1747176
1.1745455
1.1743877
1.174244
1.1741138
1.1739952
1.1738903
1.1738061
1.1737304
1.1736328
1.1735686
1.1736714
1.1737001
1.2589072
1.2627093
1.2617876
1.2608925
1.2585847
1.2559337
1.2528239
1.2495634
1.2462033
1.2428516
1.2395496
1.2363372
1.2332339
1.2302523
1.2273978
1.2246721
1.2220736
1.2195996
1.217246
1.215008
1.2128802
1.2108576
1.2089349
1.2071072
1.2053697
1.2037177
1.2021468
1.2006529
1.199232
1.1978805
1.1965949
1.1953713
1.1942077
1.1931026
1.1920491
1.1910384
1.1900861
1.1892114
1.1883615
1.187432
1.186556
1.1857217
1.1849308
1.1841797
1.1834669
1.1827905
1.1821489
1.1815404
1.1809635
1.1804168
1.1798989
1.1794085
1.1789444
1.1785054
1.1780905
1.1776987
1.1773289
1.1769803
1.176652
1.1763432
1.1760531
1.1757809
1.1755262
1.1752881
1.1750662
1.17486
1.1746689
1.1744926
1.1743306
1.1741827
1.1740489
1.1739283
1.1738199
1.1737259
1.1736503
1.1735815
1.173503
1.1734629
1.1735366
1.1735306
1.2717603
1.2708966
1.2683187
1.2650706
1.2612871
1.2573455
1.2533404
1.2494011
1.2455705
1.2418879
1.2383661
1.2350125
1.2318262
1.2288032
1.2259375
1.2232217
1.220648
1.2182088
1.2158968
1.2137038
1.2116238
1.2096493
1.2077751
1.2059946
1.2043035
1.2026957
1.2011678
1.1997145
1.1983328
1.1970183
1.1957677
1.1945776
1.1934472
1.1923725
1.1913431
1.1903606
1.1894551
1.1886125
1.1876943
1.1867946
1.1859399
1.1851287
1.1843583
1.1836271
1.182933
1.1822745
1.1816498
1.1810574
1.1804959
1.1799639
1.1794601
1.1789832
1.178532
1.1781054
1.1777024
1.177322
1.1769632
1.1766252
1.176307
1.176008
1.1757273
1.1754643
1.1752183
1.1749887
1.1747751
1.1745768
1.1743935
1.1742247
1.17407
1.1739293
1.1738024
1.1736885
1.1735872
1.1735003
1.1734292
1.1733659
1.1733035
1.1732742
1.1733129
1.1733002
1.274275
1.2708115
1.2670908
1.2627889
1.2584186
1.2540733
1.2498649
1.2458319
1.2419933
1.2383549
1.2349129
1.2316604
1.228588
1.2256855
1.2229428
1.2203499
1.2178972
1.2155758
1.2133774
1.2112943
1.2093193
1.2074459
1.2056681
1.20398
1.2023766
1.2008532
1.1994051
1.1980285
1.1967195
1.1954744
1.1942894
1.1931627
1.192092
1.1910702
1.1900922
1.1891759
1.1883298
1.1874722
1.1865717
1.1857192
1.1849086
1.1841393
1.1834089
1.1827156
1.1820579
1.1814339
1.1808422
1.1802813
1.1797499
1.1792467
1.1787703
1.1783196
1.1778936
1.177491
1.177111
1.1767524
1.1764146
1.1760965
1.1757975
1.1755166
1.1752533
1.1750068
1.1747765
1.1745619
1.1743623
1.1741774
1.1740067
1.1738498
1.1737063
1.173576
1.1734587
1.1733538
1.1732614
1.173182
1.173116
1.1730597
1.1730113
1.172985
1.1729923
1.1729867
1.2605507
1.2600693
1.2578207
1.2548041
1.2514052
1.2478922
1.2443716
1.2409301
1.2375976
1.2343987
1.2313392
1.2284223
1.2256452
1.2230038
1.2204924
1.2181051
1.2158356
1.2136779
1.211626
1.2096741
1.2078169
1.2060495
1.2043667
1.2027646
1.2012384
1.1997851
1.1983999
1.197081
1.1958232
1.1946248
1.1934822
1.1923961
1.191359
1.1903637
1.1894187
1.1885493
1.1877189
1.1868008
1.1859308
1.1851004
1.1843117
1.1835612
1.1828482
1.1821707
1.1815274
1.1809168
1.1803374
1.179788
1.1792672
1.1787738
1.1783066
1.1778646
1.1774466
1.1770515
1.1766786
1.1763267
1.175995
1.1756828
1.1753891
1.1751134
1.1748547
1.1746126
1.1743863
1.1741753
1.1739791
1.1737972
1.173629
1.1734744
1.1733327
1.1732039
1.1730875
1.1729834
1.1728912
1.1728114
1.1727435
1.1726866
1.1726411
1.1726095
1.1725936
1.1725878
1.2689651
1.2676277
1.2645693
1.2617998
1.2583592
1.2548799
1.2506905
1.2460661
1.2411974
1.2362648
1.2313492
1.2264792
1.221758
1.2171966
1.2128702
1.2089131
1.205305
1.202059
1.1991491
1.1965564
1.1942403
1.1921969
1.1903651
1.1887553
1.1873114
1.1860419
1.1849304
1.1839413
1.1830432
1.1822233
1.1814804
1.1807978
1.1801644
1.1795701
1.1790132
1.1784872
1.1779926
1.1775242
1.1770827
1.1766605
1.1762586
1.1758773
1.1755126
1.1751688
1.1748428
1.174537
1.1742499
1.1739804
1.1737272
1.1734896
1.1732666
1.1730574
1.1728608
1.1726762
1.1725019
1.1723384
1.1721825
1.1720369
1.1718947
1.1717647
1.1716304
1.1715156
1.1713808
1.1712845
1.171136
1.1710688
1.1708823
1.1708685
1.1706007
1.1706872
1.1702645
1.1705397
1.1698443
1.1704518
1.1692876
1.1704565
1.1685306
1.1705905
1.1674781
1.1708933
1.1006154
1.1090086
1.1176255
1.1259551
1.1343771
1.1420142
1.1483515
1.15379
1.1584878
1.1625334
1.1660139
1.1690358
1.171638
1.1738666
1.1757719
1.1773851
1.1787199
1.1797945
1.1806422
1.1812724
1.1817021
1.1819696
1.1820758
1.182062
1.1819502
1.1817642
1.1815056
1.1811739
1.1808017
1.1803973
1.1799735
1.179533
1.1790835
1.1786337
1.1781896
1.1777563
1.1773341
1.1769233
1.1765323
1.1761608
1.175804
1.1754639
1.1751405
1.1748312
1.1745399
1.1742654
1.1740074
1.1737651
1.1735375
1.1733237
1.1731227
1.1729339
1.1727561
1.1725891
1.1724312
1.172283
1.1721411
1.1720085
1.1718781
1.1717588
1.1716343
1.1715279
1.1714017
1.1713112
1.1711703
1.1711056
1.1709273
1.1709116
1.1706524
1.1707326
1.1703208
1.1705841
1.1699
1.1704949
1.1693348
1.1705001
1.1685625
1.1706405
1.1674834
1.1709512
1.209004
1.2097589
1.2111632
1.2122855
1.2119092
1.2106767
1.2090694
1.2073007
1.2054405
1.2035813
1.2017155
1.1999062
1.1981469
1.1964589
1.1948456
1.1933092
1.1918622
1.1905078
1.1892461
1.1880567
1.1869665
1.1859568
1.1850607
1.1842299
1.1834951
1.182787
1.1820857
1.1814186
1.1807757
1.1801944
1.179618
1.1790851
1.1785721
1.178105
1.1776588
1.1772325
1.1768288
1.1764468
1.1760906
1.1757413
1.1754106
1.1751004
1.174805
1.1745268
1.1742664
1.1740204
1.1737881
1.1735692
1.1733632
1.1731695
1.1729873
1.1728162
1.172655
1.1725036
1.1723604
1.1722261
1.1720971
1.1719766
1.1718575
1.1717486
1.1716339
1.171536
1.171418
1.1713339
1.1711998
1.1711384
1.1709661
1.1709495
1.1706956
1.1707697
1.1703663
1.1706159
1.1699433
1.1705184
1.1693762
1.1705161
1.1685978
1.1706582
1.1675035
1.1709804
1.1732917
1.1730358
1.1750545
1.1787484
1.1801131
1.1806746
1.1808435
1.1810232
1.1812193
1.1814526
1.1816597
1.1818557
1.1819868
1.1821761
1.1822331
1.1822906
1.1822851
1.1823036
1.1821789
1.1820797
1.1819688
1.1817166
1.1815612
1.1812868
1.1810054
1.1806607
1.1802927
1.1799109
1.179517
1.1791195
1.1787228
1.1783252
1.1779327
1.1775457
1.1771695
1.1768026
1.1764478
1.1761061
1.1757789
1.1754632
1.1751624
1.1748753
1.1746025
1.1743438
1.1740995
1.1738684
1.1736524
1.1734486
1.1732571
1.1730773
1.1729086
1.1727503
1.1726015
1.1724618
1.1723295
1.1722052
1.1720857
1.1719741
1.1718632
1.171762
1.1716542
1.1715627
1.1714501
1.1713711
1.1712407
1.1711831
1.1710123
1.1709984
1.1707446
1.1708196
1.1704147
1.1706647
1.1699885
1.1705644
1.1694164
1.1705582
1.16863
1.1706939
1.1675238
1.171012
1.1791288
1.1805142
1.184057
1.1869299
1.1874716
1.1873946
1.187117
1.1868325
1.1864928
1.1861751
1.1858195
1.185482
1.1851163
1.1847628
1.1843932
1.1840371
1.1836636
1.1832819
1.1828925
1.182499
1.1820728
1.181652
1.1811939
1.1807636
1.1803244
1.1799012
1.1794874
1.1790845
1.1786924
1.1783112
1.1779369
1.177571
1.177216
1.1768732
1.1765408
1.1762177
1.175907
1.1756077
1.1753216
1.1750446
1.1747804
1.1745281
1.1742882
1.1740598
1.1738443
1.1736402
1.1734492
1.1732688
1.1730989
1.1729394
1.1727896
1.1726489
1.1725165
1.1723921
1.1722741
1.1721632
1.1720562
1.171956
1.1718556
1.1717639
1.1716648
1.1715808
1.1714753
1.1714015
1.1712765
1.1712219
1.171055
1.1710412
1.1707904
1.170863
1.1704609
1.1707057
1.1700322
1.1706006
1.1694571
1.1705895
1.1686641
1.1707228
1.1675445
1.1710413
1.1738305
1.1750941
1.178744
1.1818389
1.1826713
1.1826172
1.1822813
1.1820874
1.1818516
1.1816825
1.1814689
1.1812931
1.1810884
1.180907
1.1807133
1.1805086
1.1803133
1.1800952
1.1798961
1.1796694
1.1794576
1.1792363
1.1790138
1.1787761
1.1785319
1.1782803
1.178021
1.1777559
1.1774868
1.1772156
1.1769418
1.1766667
1.1763939
1.1761245
1.1758587
1.1755966
1.1753413
1.1750931
1.1748529
1.1746188
1.1743947
1.1741805
1.1739736
1.1737772
1.1735908
1.1734149
1.1732476
1.1730906
1.1729428
1.1728039
1.1726735
1.172551
1.1724355
1.1723269
1.1722234
1.1721259
1.1720313
1.1719423
1.1718524
1.1717698
1.1716792
1.1716022
1.1715032
1.1714342
1.1713141
1.1712619
1.1710982
1.1710845
1.1708364
1.1709065
1.1705072
1.1707472
1.1700764
1.1706388
1.1694974
1.1706237
1.1686972
1.1707528
1.1675652
1.1710702
1.172736
1.1743983
1.1783901
1.1811316
1.181619
1.181513
1.1811877
1.1810091
1.1807383
1.1805608
1.1803139
1.1801301
1.1798993
1.1797093
1.1794875
1.1792956
1.1790804
1.1788829
1.1786672
1.178463
1.1782452
1.1780314
1.1778102
1.1775913
1.1773685
1.1771456
1.1769213
1.1766968
1.1764732
1.1762502
1.1760261
1.1758031
1.175583
1.1753666
1.175153
1.174942
1.1747363
1.1745359
1.1743409
1.1741505
1.173968
1.1737918
1.1736224
1.1734603
1.1733066
1.1731606
1.1730227
1.1728924
1.1727695
1.1726539
1.172545
1.1724425
1.1723456
1.172254
1.1721665
1.1720835
1.1720023
1.1719254
1.1718465
1.1717735
1.1716917
1.171622
1.1715298
1.1714654
1.1713503
1.1713003
1.1711402
1.171126
1.1708814
1.1709482
1.1705527
1.170787
1.1701205
1.170675
1.1695386
1.1706559
1.1687314
1.1707815
1.167586
1.1710984
1.1705906
1.1725063