/*--------------------------------*- C++ -*----------------------------------*\
  =========                 |
  \\      /  F ield         | OpenFOAM: The Open Source CFD Toolbox
   \\    /   O peration     | Website:  https://openfoam.org
    \\  /    A nd           | Version:  6
     \\/     M anipulation  |
\*---------------------------------------------------------------------------*/
FoamFile
{
    version     2.0;
    format      ascii;
    class       volScalarField;
    location    "150";
    object      T;
}
// * * * * * * * * * * * * * * * * * * * * * * * * * * * * * * * * * * * * * //

dimensions      [0 0 0 1 0 0 0];

internalField   nonuniform List<scalar> 
16000
(
297.21816
295.41883
296.03728
295.74437
295.95812
295.88604
295.98775
295.98789
296.05487
296.08271
296.1379
296.17801
296.22938
296.27535
296.32606
296.37508
296.42619
296.47696
296.52871
296.58052
296.6328
296.6852
296.73781
296.79047
296.84316
296.89579
296.94828
297.00054
297.05243
297.10384
297.15469
297.20483
297.25412
297.30302
297.3442
297.38512
297.42571
297.46522
297.5026
297.53817
297.57223
297.60451
297.63497
297.66364
297.6904
297.71512
297.73769
297.75802
297.77605
297.79179
297.80532
297.81681
297.82649
297.83461
297.84143
297.84711
297.85175
297.85542
297.8581
297.85979
297.8605
297.86026
297.85911
297.85721
297.85451
297.85139
297.84747
297.84396
297.83939
297.83769
297.8332
297.83747
297.83052
297.84704
297.82752
297.87425
297.82655
297.93315
297.8368
298.00477
297.21886
295.43035
296.07796
295.77476
295.99891
295.92475
296.03053
296.03089
296.10021
296.12933
296.18612
296.22792
296.28086
296.32867
296.38106
296.43199
296.4849
296.53759
296.59119
296.64489
296.69901
296.75322
296.80758
296.86192
296.9162
296.97031
297.02415
297.07762
297.13057
297.18287
297.23438
297.28501
297.33466
297.38299
297.43037
297.47451
297.51224
297.54985
297.58601
297.61993
297.65193
297.68195
297.70988
297.73576
297.75952
297.78107
297.80034
297.81733
297.83205
297.84461
297.85515
297.86388
297.87104
297.87686
297.88153
297.88516
297.88781
297.88949
297.89022
297.89001
297.88887
297.88689
297.88411
297.88066
297.87656
297.87201
297.86689
297.86186
297.8564
297.8527
297.84812
297.84902
297.84422
297.85444
297.84227
297.87572
297.84107
297.92848
297.85415
297.99433
297.2321
295.45816
296.1257
295.82157
296.05118
295.97795
296.08659
296.08899
296.16009
296.19153
296.24999
296.29415
296.34891
296.39902
296.45342
296.5066
296.5616
296.61647
296.67217
296.72797
296.78411
296.84029
296.89652
296.95263
297.00854
297.06412
297.11928
297.17387
297.22774
297.28074
297.33273
297.38355
297.4331
297.48127
297.52776
297.57243
297.61595
297.65036
297.68342
297.71505
297.7444
297.77131
297.79593
297.81827
297.83828
297.85594
297.87128
297.88433
297.89523
297.90414
297.91127
297.91685
297.92109
297.9242
297.92631
297.92747
297.92772
297.92705
297.92548
297.92305
297.91982
297.91585
297.91123
297.90604
297.90034
297.89424
297.88776
297.88125
297.87468
297.86928
297.86413
297.86262
297.8587
297.86431
297.85616
297.88074
297.85651
297.92873
297.8676
297.99565
297.25721
295.50507
296.18783
295.88336
296.11819
296.04683
296.15824
296.16328
296.23635
296.27056
296.33095
296.3778
296.43466
296.48734
296.54396
296.5996
296.65687
296.71408
296.77199
296.82997
296.88817
296.94632
297.00437
297.06215
297.11954
297.17641
297.23263
297.28803
297.34245
297.39572
297.44766
297.49812
297.54697
297.59405
297.63924
297.68233
297.72308
297.76209
297.79199
297.81945
297.84547
297.86859
297.88903
297.9071
297.9227
297.93591
297.94684
297.95561
297.96241
297.96747
297.97101
297.97325
297.97437
297.9745
297.97372
297.97208
297.96957
297.96623
297.96208
297.9572
297.95166
297.94554
297.93891
297.93186
297.92443
297.91671
297.90874
297.90074
297.89286
297.88593
297.87978
297.87636
297.87245
297.87486
297.86916
297.88707
297.86936
297.93048
297.87932
297.99761
297.29479
295.57211
296.264
295.96125
296.20008
296.13211
296.24586
296.25446
296.32952
296.36717
296.42972
296.47974
296.539
296.5946
296.65376
296.71212
296.7719
296.83165
296.89193
296.95221
297.01254
297.07266
297.13249
297.19183
297.25055
297.30848
297.36546
297.42132
297.47587
297.52891
297.58026
297.62974
297.67721
297.72252
297.7655
297.80602
297.84393
297.87906
297.91208
297.93432
297.9554
297.97415
297.98963
298.00269
298.01332
298.02157
298.02768
298.03183
298.03426
298.03521
298.03488
298.03347
298.0311
298.02787
298.02383
298.01902
298.01344
298.00715
298.0002
297.99268
297.98467
297.97625
297.9675
297.95847
297.94921
297.93979
297.93025
297.92075
297.91149
297.90308
297.89578
297.89074
297.88637
297.88635
297.88195
297.89487
297.88281
297.93358
297.88997
298.00306
297.34574
295.66108
296.35599
296.05582
296.29779
296.23458
296.35028
296.36346
296.44065
296.48235
296.54737
296.60099
296.66299
296.72186
296.78382
296.84516
296.90767
296.97011
297.03287
297.09549
297.15795
297.21998
297.28144
297.34214
297.4019
297.46052
297.51783
297.57363
297.62771
297.67986
297.72989
297.77759
297.82282
297.86544
297.90531
297.94228
297.97622
298.00711
298.03487
298.05864
298.07259
298.08599
298.0961
298.10348
298.10865
298.11154
298.11251
298.11178
298.10958
298.10617
298.10171
298.09636
298.0902
298.0833
298.07569
298.06743
298.05855
298.04911
298.0392
298.02891
298.01833
298.00751
297.99654
297.98545
297.9743
297.96312
297.95196
297.94094
297.93026
297.92043
297.91187
297.90536
297.90025
297.89833
297.89459
297.90338
297.89523
297.93846
297.90169
298.00979
297.41091
295.77314
296.46183
296.168
296.41212
296.35532
296.47278
296.49143
296.57095
296.61732
296.68517
296.74285
296.80795
296.87042
296.93551
297.00008
297.06551
297.13077
297.1961
297.26106
297.32556
297.38933
297.4522
297.51392
297.57431
297.63313
297.69018
297.74525
297.79811
297.84855
297.89635
297.94132
297.9833
298.02218
298.05785
298.09021
298.11917
298.14467
298.16682
298.18556
298.1967
298.20335
298.20754
298.20872
298.20795
298.20516
298.20067
298.19481
298.18774
298.17971
298.17084
298.16124
298.15099
298.14013
298.12871
298.11679
298.10444
298.09173
298.07877
298.06562
298.05238
298.03911
298.02586
298.01268
297.9996
297.98664
297.97384
297.9613
297.94921
297.93798
297.92812
297.92026
297.91426
297.91079
297.90727
297.91264
297.90759
297.94416
297.91268
298.01752
297.49089
295.91015
296.58434
296.29903
296.54433
296.49539
296.6145
296.63953
296.72168
296.77334
296.84446
296.90664
296.97527
297.04168
297.11021
297.17822
297.24675
297.31491
297.3828
297.45
297.51636
297.58159
297.64546
297.70772
297.76813
297.82646
297.88246
297.93591
297.98658
298.03426
298.07873
298.11981
298.15736
298.1913
298.22158
298.24814
298.27093
298.29007
298.30556
298.31746
298.32627
298.32484
298.32234
298.31703
298.3099
298.30117
298.29099
298.27976
298.26759
298.25469
298.24115
298.22706
298.21247
298.19745
298.18205
298.16636
298.15047
298.13444
298.11838
298.10235
298.08644
298.07069
298.05516
298.03987
298.02485
298.01012
297.9957
297.98166
297.96818
297.9556
297.94444
297.93529
297.9283
297.92356
297.91997
297.92251
297.91985
297.95046
297.92395
298.02562
297.58626
296.06685
296.72396
296.44967
296.69539
296.65598
296.77684
296.80922
296.89446
296.95206
297.02698
297.09415
297.16673
297.23741
297.30966
297.38129
297.45301
297.52404
297.59436
297.66356
297.73142
297.79762
297.86191
297.92399
297.9836
298.04048
298.0944
298.1451
298.19237
298.23601
298.27583
298.31167
298.34344
298.3711
298.39466
298.41416
298.42968
298.4413
298.44921
298.45362
298.45507
298.44882
298.43899
298.42697
298.41323
298.39833
298.38226
298.36546
298.34797
298.32999
298.31156
298.29279
298.27372
298.25443
298.23499
298.2155
298.19605
298.17672
298.15757
298.13869
298.12012
298.10193
298.08413
298.06677
298.04985
298.03339
298.01739
298.00191
297.98708
297.9732
297.96078
297.95039
297.94236
297.93654
297.93268
297.93291
297.93194
297.95715
297.93532
298.03326
297.70014
296.22215
296.88349
296.6227
296.86803
296.83959
296.96231
297.00287
297.09169
297.15578
297.235
297.30754
297.38447
297.45967
297.53583
297.61112
297.68597
297.75969
297.83213
297.90288
297.97164
298.03808
298.1019
298.16279
298.22048
298.27468
298.32516
298.3717
298.41409
298.45216
298.48579
298.51486
298.53934
298.55927
298.57476
298.58595
298.59301
298.59615
298.59565
298.59192
298.58491
298.57354
298.55605
298.53701
298.51645
298.49517
298.47305
298.4505
298.42754
298.40432
298.38089
298.35735
298.33375
298.31019
298.28674
298.26351
298.24057
298.21799
298.19584
298.17417
298.15303
298.13245
298.11247
298.09311
298.07436
298.05623
298.03872
298.02186
298.00576
297.99067
297.97704
297.96546
297.95636
297.94962
297.94531
297.94371
297.94386
297.96401
297.94652
298.03964
297.8359
296.40637
297.06423
296.8195
297.06389
297.04785
297.17281
297.22241
297.31543
297.38658
297.47069
297.549
297.63064
297.71054
297.79069
297.86956
297.94732
298.02333
298.09733
298.16888
298.23764
298.30325
298.36538
298.42372
298.47798
298.52791
298.57329
298.61392
298.64966
298.6804
298.70609
298.7267
298.74229
298.753
298.75904
298.76071
298.75828
298.75205
298.74248
298.72993
298.71435
298.69719
298.67163
298.64533
298.61787
298.59008
298.56183
298.53343
298.50492
298.47641
298.44797
298.41968
298.39163
298.36389
298.33655
298.3097
298.28341
298.25772
298.23269
298.20835
298.18476
298.16192
298.13986
298.11859
298.09811
298.07841
298.05948
298.04135
298.02407
298.00786
297.99311
297.9804
297.97023
297.96265
297.9578
297.95483
297.95561
297.97081
297.95666
298.04654
297.99356
296.62341
297.26729
297.04154
297.28476
297.28273
297.4106
297.47017
297.5682
297.64704
297.73665
297.82108
297.90774
297.99238
298.07644
298.15856
298.23874
298.31631
298.39093
298.46215
298.52958
298.59285
298.65162
298.7056
298.75453
298.79819
298.83641
298.86909
298.89614
298.91757
298.93342
298.94379
298.94886
298.9489
298.94422
298.93526
298.92245
298.90617
298.88696
298.86523
298.84093
298.81693
298.7837
298.75001
298.71568
298.68137
298.64697
298.61275
298.57873
298.54501
298.51167
298.47879
298.44644
298.41472
298.38369
298.35343
298.32397
298.29536
298.26763
298.24081
298.21491
298.18997
298.16598
298.14295
298.12087
298.09972
298.07949
298.06019
298.04185
298.02463
298.00886
297.99509
297.98388
297.9755
297.97003
297.96609
297.96711
297.97753
297.96642
298.05334
298.17585
296.85787
297.4956
297.29183
297.53388
297.54744
297.67905
297.74947
297.85337
297.94042
298.03608
298.12684
298.2186
298.30777
298.39533
298.48002
298.56166
298.63959
298.7134
298.78261
298.84684
298.90571
298.95893
299.00624
299.04745
299.08244
299.11112
299.1335
299.14962
299.15962
299.16368
299.16205
299.15505
299.14308
299.1266
299.10615
299.08227
299.05549
299.02638
298.99531
298.96228
298.92996
298.89023
298.8492
298.8081
298.76737
298.72695
298.68704
298.64768
298.60896
298.57095
298.53373
298.49738
298.46195
298.4275
298.39407
298.3617
298.33041
298.30021
298.27111
298.24312
298.21626
298.19051
298.16589
298.14236
298.11991
298.09852
298.07818
298.05892
298.04082
298.02416
298.00943
297.99719
297.988
297.98185
297.97733
297.97828
297.98432
297.9757
298.05953
298.38576
297.12458
297.75234
297.57395
297.81489
297.84566
297.98198
298.06413
298.17475
298.27045
298.37251
298.46956
298.56617
298.65926
298.7494
298.83542
298.91698
298.99343
299.06431
299.12917
299.18764
299.23943
299.28429
299.32209
299.35276
299.37628
299.39275
299.4023
299.40515
299.4016
299.39199
299.37674
299.35634
299.3313
299.30221
299.26973
299.23445
299.19697
299.15794
299.11761
299.07603
299.03582
298.98921
298.94109
298.89341
298.84651
298.80031
298.75501
298.71062
298.66724
298.62491
298.58371
298.5437
298.5049
298.46736
298.43109
298.3961
298.36241
298.33
298.29887
298.26903
298.24047
298.21317
298.18714
298.16234
298.13875
298.11635
298.09513
298.07508
298.05625
298.03885
298.02326
298.01008
298.00004
297.99312
297.98828
297.98893
297.99107
297.98514
298.06407
298.62457
297.4247
298.04142
297.89186
298.13223
298.18178
298.32396
298.41861
298.53671
298.64127
298.74977
298.85263
298.9533
299.04907
299.14018
299.22549
299.30461
299.37687
299.44187
299.4992
299.54861
299.58991
299.62303
299.64798
299.66487
299.67389
299.67532
299.66949
299.65681
299.63776
299.61287
299.58272
299.54793
299.50916
299.46708
299.42237
299.37571
299.32771
299.279
299.22974
299.17996
299.13236
299.07877
299.02397
298.97007
298.9174
298.86584
298.81557
298.76659
298.71899
298.67279
298.62805
298.58478
298.54302
298.50276
298.464
298.42674
298.39096
298.35664
298.32376
298.29232
298.2623
298.23368
298.20644
298.18057
298.15602
298.13278
298.11082
298.09013
298.07073
298.05275
298.03647
298.02244
298.01148
298.00369
297.99867
297.99895
297.9979
297.99355
298.06719
298.8897
297.76359
298.36736
298.2506
298.49107
298.56106
298.71038
298.81812
298.9442
299.05741
299.1718
299.27931
299.3824
299.47865
299.56807
299.64959
299.72279
299.78712
299.84226
299.88798
299.92421
299.95098
299.96844
299.97685
299.97655
299.96799
299.95165
299.92809
299.89794
299.86185
299.82052
299.77467
299.72505
299.67236
299.61737
299.56072
299.50306
299.44504
299.38722
299.32952
299.27216
299.21791
299.15734
299.09646
299.03685
298.97895
298.92256
298.86787
298.81484
298.76355
298.71399
298.6662
298.62015
298.57586
298.53329
298.49244
298.45326
298.41573
298.37982
298.34549
298.31273
298.2815
298.25179
298.22357
298.19682
298.1715
298.14758
298.12505
298.10387
298.08405
298.06566
298.04887
298.03415
298.02226
298.01344
298.00818
298.00801
298.00461
298.0021
298.06898
299.17365
298.1472
298.73697
298.65649
298.89797
298.98993
299.14775
299.26878
299.40271
299.52352
299.64227
299.75207
299.85465
299.94784
300.03151
300.10476
300.16726
300.21868
300.25895
300.2881
300.30636
300.31407
300.3117
300.29981
300.27903
300.25006
300.21364
300.17055
300.12157
300.06754
300.00927
299.94758
299.88327
299.81707
299.74974
299.6819
299.61403
299.5468
299.48061
299.41526
299.35126
299.29133
299.22376
299.15748
299.09282
299.03035
298.9698
298.91132
298.85487
298.80048
298.74812
298.69779
298.64946
298.6031
298.55866
298.51611
298.47539
298.43647
298.39929
298.36382
298.33003
298.29786
298.26731
298.23832
298.2109
298.18499
298.16057
298.13762
298.1161
298.09601
298.07737
298.06028
298.04507
298.03232
298.02238
298.01654
298.01585
298.01134
298.01016
298.0688
299.5022
298.58107
299.15639
299.11818
299.36128
299.47572
299.64303
299.77688
299.91751
300.04346
300.16344
300.27153
300.36887
300.45365
300.52577
300.58464
300.63024
300.6626
300.68204
300.68901
300.68415
300.66821
300.642
300.60643
300.56242
300.51092
300.45289
300.38926
300.32098
300.24894
300.17403
300.09708
300.0189
299.9402
299.86159
299.78364
299.70678
299.63146
299.55783
299.48568
299.41638
299.35111
299.27721
299.20631
299.13744
299.07114
299.00716
298.9456
298.88638
298.82951
298.77494
298.72262
298.67251
298.62454
298.57867
298.53483
298.49296
298.453
298.41489
298.37859
298.34404
298.3112
298.28004
298.25053
298.22263
298.19632
298.17157
298.14835
298.12663
298.1064
298.08766
298.07045
298.05499
298.04161
298.03058
298.02375
298.0221
298.01721
298.01751
298.06667
299.87598
299.07876
299.63637
299.64296
299.89222
300.02882
300.2047
300.34775
300.49242
300.61914
300.73491
300.8349
300.91993
300.98876
301.04158
301.07836
301.09957
301.10584
301.09802
301.07712
301.04423
301.00054
300.94725
300.88555
300.81661
300.74157
300.6615
300.57744
300.49038
300.40121
300.31082
300.21996
300.12936
300.03963
299.95127
299.86463
299.78012
299.69803
299.61817
299.54047
299.46698
299.39569
299.31744
299.24274
299.17054
299.10122
299.03458
298.97065
298.90934
298.85061
298.79439
298.74062
298.68923
298.64013
298.59325
298.54852
298.50587
298.46522
298.4265
298.38967
298.35465
298.3214
298.28988
298.26005
298.23188
298.20534
298.18042
298.15707
298.13528
298.11503
298.09631
298.07913
298.06365
298.04993
298.03812
298.03016
298.02655
298.02053
298.02491
298.06375
300.30408
299.65264
300.18716
300.2426
300.49897
300.65636
300.83958
300.98748
301.12908
301.24889
301.35163
301.43404
301.49694
301.53995
301.56391
301.56963
301.55832
301.53134
301.4902
301.43646
301.37172
301.2975
301.2153
301.1265
301.03241
300.93422
300.83303
300.72986
300.62562
300.52114
300.41719
300.31438
300.21332
300.11442
300.01807
299.92444
299.83382
299.74633
299.66146
299.57955
299.50301
299.42595
299.34463
299.26698
299.19232
299.12078
299.05223
298.98663
298.92388
298.8639
298.8066
298.75189
298.69969
298.64989
298.60243
298.55719
298.51412
298.47311
298.4341
298.39701
298.36179
298.32837
298.29672
298.26679
298.23854
298.21195
298.187
298.16366
298.14191
298.12175
298.10313
298.08609
298.07072
298.05694
298.04487
298.03608
298.02983
298.02214
298.03192
298.05937
300.79508
300.32959
300.83386
300.94193
301.18223
301.36269
301.54759
301.69364
301.82213
301.92331
302.00057
302.05258
302.08092
302.08649
302.07113
302.0367
301.9853
301.91905
301.84007
301.75039
301.65193
301.54643
301.43547
301.32048
301.20274
301.08335
300.96329
300.84344
300.72458
300.60736
300.49235
300.38002
300.27074
300.16479
300.06229
299.96341
299.8683
299.77676
299.6881
299.60355
299.52527
299.44263
299.35922
299.27948
299.20319
299.13021
299.06049
298.99388
298.9303
298.86964
298.81178
298.75662
298.70406
298.65398
298.60631
298.56093
298.51776
298.4767
298.43768
298.40061
298.36544
298.3321
298.30053
298.27069
298.24255
298.21607
298.19123
298.16801
298.14641
298.12641
298.10798
298.09115
298.07597
298.06227
298.05029
298.04127
298.03362
298.02471
298.03262
298.05358
301.38214
301.10759
301.56023
301.71209
301.9994
302.17206
302.33461
302.46055
302.558
302.62237
302.65738
302.66345
302.64356
302.60002
302.53587
302.45398
302.35724
302.24836
302.12985
302.00393
301.87257
301.7375
301.60018
301.46187
301.3236
301.18631
301.05076
300.91756
300.78727
300.66034
300.5371
300.41784
300.30272
300.19182
300.08513
299.98273
299.88464
299.79026
299.69923
299.61386
299.53475
299.44617
299.36176
299.28086
299.20374
299.13009
299.05985
298.99287
298.92903
298.8682
298.81026
298.75508
298.70257
298.65259
298.60506
298.55986
298.51689
298.47607
298.4373
298.4005
298.36562
298.33256
298.30128
298.27172
298.24386
298.21764
298.19305
298.17007
298.1487
298.12893
298.11074
298.09417
298.07922
298.0657
298.05393
298.04476
298.03612
298.02681
298.03288
298.0462
302.08647
301.98637
302.45868
302.64441
302.87802
303.03514
303.16874
303.25139
303.29903
303.30738
303.2831
303.22862
303.14876
303.04735
302.92847
302.79572
302.65245
302.50152
302.34543
302.18627
302.02575
301.86527
301.70598
301.54879
301.39445
301.24352
301.09651
300.95375
300.81554
300.68207
300.5535
300.42983
300.31113
300.19726
300.08819
299.98388
299.8841
299.78802
299.69644
299.61157
299.5275
299.43803
299.35314
299.27201
299.19474
299.12109
299.05094
298.98413
298.92053
298.85999
298.80239
298.7476
298.69549
298.64596
298.59887
298.55414
298.51165
298.47131
298.43303
298.39673
298.36233
298.32976
298.29896
298.26987
298.24244
298.21665
298.19244
298.16982
298.14878
298.12929
298.11138
298.09509
298.08037
298.0671
298.05567
298.0465
298.03721
298.02809
298.03272
298.03834
302.92511
303.05593
303.4561
303.64115
303.84077
303.94742
304.01695
304.0294
304.00109
303.93282
303.83304
303.70664
303.55971
303.39704
303.2231
303.04155
302.85551
302.66749
302.47949
302.29308
302.10949
301.9296
301.7541
301.58349
301.41811
301.25822
301.10396
300.95546
300.81272
300.67574
300.54443
300.41872
300.29844
300.18341
300.07352
299.96871
299.86834
299.7719
299.68132
299.59763
299.50826
299.41922
299.33446
299.25379
299.177
299.10392
299.03438
298.96823
298.9053
298.84547
298.78858
298.73451
298.68313
298.63431
298.58796
298.54394
298.50217
298.46254
298.42497
298.38936
298.35564
298.32374
298.29358
298.26512
298.23829
298.21306
298.18939
298.16726
298.14664
298.12754
298.10996
298.09395
298.07945
298.06641
298.05526
298.0461
298.0367
298.02827
298.03147
298.03144
303.9392
304.23747
304.56133
304.70239
304.81478
304.83553
304.8068
304.72177
304.59745
304.43924
304.25681
304.05644
303.84437
303.6253
303.40312
303.18077
302.96053
302.74406
302.53258
302.32694
302.12772
301.93527
301.74979
301.57135
301.39995
301.23553
301.07798
300.92716
300.78289
300.64497
300.51322
300.38741
300.26726
300.15261
300.04333
299.93907
299.83904
299.74375
299.65559
299.57118
299.47821
299.39034
299.30655
299.22694
299.1512
299.07919
299.01072
298.94563
298.88377
298.82498
298.76913
298.71607
298.66569
298.61785
298.57246
298.52939
298.48855
298.44983
298.41314
298.3784
298.34553
298.31446
298.28511
298.25743
298.23136
298.20684
298.18385
298.16234
298.1423
298.1237
298.10656
298.09089
298.07665
298.06383
298.05285
298.04357
298.0342
298.02663
298.02881
298.02638
305.09486
305.49614
305.67788
305.72569
305.70611
305.60243
305.44801
305.24848
305.02049
304.77224
304.5128
304.24794
303.98251
303.71982
303.46233
303.2117
302.96899
302.73489
302.50973
302.29363
302.08657
301.88843
301.69901
301.51805
301.34525
301.1803
301.02291
300.87273
300.72948
300.59284
300.46253
300.33823
300.21969
300.10669
299.99915
299.89631
299.79766
299.70528
299.61984
299.5297
299.43872
299.35228
299.27013
299.19206
299.11786
299.04734
298.98033
298.91666
298.85619
298.79874
298.7442
298.69242
298.64327
298.59665
298.55242
298.5105
298.47077
298.43313
298.3975
298.3638
298.33194
298.30184
298.27345
298.24669
298.22152
298.19787
298.1757
298.15499
298.13567
298.11775
298.1012
298.08604
298.07219
298.05971
298.04892
298.03951
298.03026
298.02334
298.02445
298.02166
306.56595
306.71112
306.6922
306.58525
306.39289
306.1414
305.8546
305.54573
305.22754
304.90732
304.59087
304.28164
303.98205
303.69339
303.41643
303.15143
302.89838
302.6571
302.42727
302.20847
302.00024
301.80212
301.61359
301.4342
301.26345
301.10089
300.94608
300.79859
300.65804
300.52411
300.39646
300.27476
300.15878
300.04839
299.94313
299.84213
299.74635
299.65789
299.57267
299.47911
299.39046
299.30612
299.22604
299.14994
299.07764
299.00895
298.94371
298.88175
298.82291
298.76706
298.71405
298.66376
298.61606
298.57083
298.52796
298.48735
298.44889
298.4125
298.37809
298.34556
298.31484
298.28587
298.25857
298.23287
298.20873
298.18608
298.16489
298.14511
298.12669
298.10961
298.09386
298.0794
298.0662
298.05429
298.04388
298.03462
298.02578
298.01935
298.01867
298.01412
307.49865
307.56378
307.34382
307.0376
306.68647
306.31077
305.92935
305.55054
305.18138
304.8249
304.4832
304.157
303.84655
303.55152
303.2715
303.00587
302.75398
302.51516
302.28875
302.07402
301.87038
301.67709
301.49364
301.31933
301.1537
300.9961
300.84615
300.70331
300.56726
300.43756
300.31394
300.19605
300.08381
299.97697
299.87469
299.7767
299.68568
299.60146
299.50971
299.41922
299.33328
299.25161
299.17401
299.10028
299.03024
298.96371
298.90054
298.84056
298.78363
298.72961
298.67836
298.62977
298.58371
298.54007
298.49874
298.45962
298.42262
298.38763
298.35458
298.32339
298.29397
298.26626
298.24019
298.2157
298.19273
298.17122
298.15114
298.13243
298.11507
298.09901
298.08423
298.0707
298.05838
298.04732
298.03758
298.02892
298.02097
298.01505
298.01266
298.00766
307.51749
307.60815
307.33499
306.94142
306.53157
306.11836
305.71296
305.32149
304.94673
304.58983
304.25105
303.93
303.62606
303.33848
303.06643
302.80905
302.56549
302.33494
302.11664
301.90984
301.71384
301.52798
301.35163
301.18414
301.02495
300.87355
300.72942
300.59215
300.46133
300.3366
300.21764
300.10422
299.9962
299.89308
299.79422
299.70096
299.61463
299.52761
299.43595
299.34887
299.26608
299.18741
299.11265
299.04163
298.97418
298.91012
298.84931
298.79159
298.73684
298.68491
298.63569
298.58905
298.54488
298.50306
298.4635
298.4261
298.39076
298.35741
298.32594
298.29629
298.26838
298.24215
298.21752
298.19443
298.17283
298.15267
298.1339
298.11648
298.10036
298.08552
298.07192
298.05954
298.04835
298.03836
298.02958
298.02189
298.01517
298.01005
298.00699
298.00345
306.48787
306.69329
306.45371
306.17852
305.84854
305.50185
305.1523
304.80845
304.47516
304.15455
303.84789
303.55542
303.27712
303.01262
302.76149
302.52319
302.29715
302.08278
301.87949
301.68667
301.50371
301.33004
301.16502
301.00814
300.85878
300.71655
300.58085
300.45145
300.32784
300.2099
300.0972
299.98986
299.88732
299.78893
299.69507
299.60822
299.52589
299.43455
299.34757
299.26469
299.18589
299.11093
299.03968
298.97198
298.90767
298.84662
298.78867
298.73371
298.68159
298.63219
298.58541
298.54111
298.49921
298.45959
298.42216
298.38682
298.35349
298.32208
298.29251
298.2647
298.23859
298.21412
298.1912
298.16979
298.14983
298.13128
298.11407
298.09819
298.08357
298.0702
298.05804
298.04707
298.03725
298.0286
298.0211
298.01471
298.00941
298.00534
298.00262
298.00078
305.54154
305.6662
305.2817
304.46236
303.45905
302.41774
301.60821
300.99161
300.52175
300.1385
299.81668
299.57842
299.38364
299.2191
299.07258
298.92709
298.79704
298.67982
298.57754
298.48488
298.40404
298.33356
298.29163
298.25124
298.2132
298.17586
298.14248
298.11722
298.0915
298.07014
298.05183
298.04184
298.02824
298.01577
297.99783
297.98047
297.96328
297.94538
297.9265
297.90624
297.88517
297.86376
297.84192
297.82034
297.79902
297.77824
297.75797
297.73823
297.71902
297.70032
297.68215
297.66445
297.64721
297.63033
297.61384
297.59754
297.58159
297.56565
297.55011
297.53455
297.51966
297.50478
297.49116
297.47808
297.46718
297.45824
297.45065
297.45065
297.45161
297.46421
297.47234
297.50279
297.5147
297.56323
297.56633
297.63803
297.62561
297.71615
297.73011
297.82003
305.67229
305.26361
304.30236
302.89792
301.64768
300.5674
299.79573
299.27529
298.92558
298.67902
298.51361
298.39315
298.30467
298.2327
298.17377
298.12734
298.08475
298.05232
298.0251
298.00455
297.99249
297.99191
297.99619
298.00703
298.01028
298.01007
298.00797
298.00308
298.00001
297.99855
297.99803
297.99563
297.99
297.98171
297.96928
297.9558
297.94121
297.92517
297.90781
297.88932
297.86977
297.84971
297.82932
297.80885
297.78876
297.76909
297.74988
297.73117
297.71296
297.69523
297.67796
297.6611
297.64465
297.62851
297.61274
297.59713
297.58183
297.56653
297.55159
297.53672
297.52253
297.50862
297.49604
297.4845
297.47498
297.46846
297.46386
297.46591
297.46869
297.48416
297.49195
297.52411
297.53277
297.58195
297.57772
297.65137
297.63384
297.72679
297.73505
297.82752
296.87852
296.41903
295.38745
294.54671
294.43684
294.57823
294.84454
295.14958
295.48377
295.80633
296.15978
296.45915
296.71713
296.94146
297.14497
297.3182
297.4649
297.58747
297.69157
297.77169
297.84811
297.90787
297.91884
297.94797
297.95903
297.97096
298.00645
298.00223
298.00789
298.00328
298.00353
297.98385
297.98333
297.95672
297.93888
297.92212
297.90455
297.88645
297.86795
297.84817
297.82855
297.80961
297.79082
297.77255
297.75496
297.73773
297.72088
297.70444
297.6884
297.67274
297.65744
297.64246
297.62777
297.61332
297.5991
297.58499
297.57109
297.55724
297.5437
297.53051
297.51798
297.50633
297.49598
297.4877
297.48093
297.47874
297.47739
297.48492
297.48937
297.50961
297.51564
297.55107
297.55387
297.60502
297.59213
297.66746
297.64194
297.74003
297.7393
297.83587
300.90166
300.73173
299.3726
297.65886
297.37693
297.23253
297.33573
297.41844
297.50826
297.57342
297.63325
297.67165
297.68825
297.71291
297.79414
297.75751
297.84994
297.81567
297.89241
297.87128
297.89154
297.92763
297.9428
297.89549
297.90808
297.92206
297.92451
297.92996
297.92842
297.92711
297.92175
297.91772
297.9074
297.90085
297.89131
297.87948
297.86661
297.85297
297.838
297.82193
297.80565
297.78917
297.77278
297.7565
297.74047
297.72465
297.7093
297.69421
297.67943
297.66497
297.65082
297.63692
297.62326
297.60979
297.59647
297.58324
297.57018
297.55723
297.54464
297.53256
297.52127
297.51117
297.50255
297.49638
297.49176
297.49227
297.49302
297.50296
297.50848
297.52948
297.53452
297.5691
297.56942
297.61905
297.60172
297.67698
297.65048
297.74893
297.74524
297.84219
300.00411
299.04002
297.21319
296.11023
296.03785
296.05205
296.16147
296.28129
296.43366
296.57432
296.71943
296.85401
296.98309
297.09503
297.19281
297.27685
297.35742
297.43001
297.49699
297.56138
297.61599
297.66211
297.70313
297.75076
297.78071
297.802
297.81933
297.83247
297.84295
297.84944
297.85309
297.85276
297.85059
297.84506
297.83784
297.82916
297.81938
297.80854
297.79632
297.78297
297.76936
297.75555
297.74173
297.72791
297.7143
297.70081
297.68768
297.67469
297.6619
297.64932
297.63693
297.62468
297.61257
297.60056
297.58863
297.57676
297.56505
297.55349
297.54236
297.53197
297.52249
297.51463
297.50833
297.50504
297.50324
297.50688
297.51023
297.52253
297.52852
297.55088
297.55395
297.58832
297.5848
297.63447
297.61226
297.68759
297.65759
297.75885
297.74999
297.84859
300.23554
299.40522
297.61211
296.24246
296.09891
296.18578
296.39622
296.49596
296.65371
296.74926
296.87323
296.95468
297.05974
297.12829
297.20488
297.27397
297.34208
297.40574
297.46914
297.5093
297.58494
297.59254
297.62484
297.65211
297.67771
297.70118
297.72192
297.739
297.75222
297.76257
297.76989
297.7743
297.77611
297.77603
297.77397
297.77013
297.76496
297.75855
297.75038
297.74096
297.73108
297.72085
297.71012
297.69934
297.68849
297.67769
297.66679
297.65601
297.64532
297.63471
297.62415
297.61364
297.60316
297.59268
297.58222
297.5718
297.56154
297.55151
297.54202
297.5335
297.52607
297.52058
297.51676
297.51627
297.51713
297.52336
297.52849
297.54228
297.548
297.57025
297.57144
297.60418
297.5974
297.64651
297.62093
297.69744
297.66464
297.76807
297.75488
297.85474
300.0061
299.00368
297.13063
295.96459
295.9464
295.98264
296.16411
296.24646
296.40891
296.50867
296.63477
296.7287
296.82809
296.9211
297.01057
297.08615
297.16128
297.22476
297.28495
297.34064
297.38418
297.43731
297.48084
297.51952
297.55478
297.58583
297.61295
297.63616
297.65555
297.6715
297.68412
297.69357
297.70042
297.70495
297.70743
297.70807
297.70724
297.70497
297.7007
297.69514
297.68898
297.68215
297.67483
297.66718
297.65934
297.65132
297.64318
297.63494
297.62662
297.61823
297.60975
297.60119
297.59254
297.58382
297.57505
297.5663
297.55776
297.54955
297.54201
297.53568
297.53061
297.52777
297.5266
297.52895
297.53222
297.54074
297.54693
297.56172
297.56652
297.58821
297.5875
297.6185
297.6081
297.65737
297.62892
297.70729
297.67162
297.7771
297.75946
297.86076
299.96952
298.90351
297.01478