/*--------------------------------*- C++ -*----------------------------------*\
  =========                 |
  \\      /  F ield         | OpenFOAM: The Open Source CFD Toolbox
   \\    /   O peration     | Website:  https://openfoam.org
    \\  /    A nd           | Version:  6
     \\/     M anipulation  |
\*---------------------------------------------------------------------------*/
FoamFile
{
    version     2.0;
    format      ascii;
    class       volVectorField;
    location    "150";
    object      U;
}
// * * * * * * * * * * * * * * * * * * * * * * * * * * * * * * * * * * * * * //

dimensions      [0 1 -1 0 0 0 0];

internalField   nonuniform List<vector> 
16000
(
(157.22616 1.2198276e-15 -18.270827)
(167.91436 -1.0742466e-15 -11.860623)
(163.99961 4.1703029e-18 -17.40292)
(165.92773 3.7634996e-18 -12.868737)
(164.37176 0 -16.263285)
(164.87886 -8.6165331e-16 -13.590941)
(164.07221 8.1673327e-16 -15.422605)
(164.07396 0 -13.975268)
(163.5375 -1.7850347e-19 -14.849936)
(163.33143 1.6898718e-19 -14.100512)
(162.90145 3.2050038e-19 -14.452959)
(162.60317 -6.2224594e-16 -14.058581)
(162.21432 5.9054526e-16 -14.148638)
(161.87479 4.6552585e-18 -13.916593)
(161.4994 5.3237964e-16 -13.881416)
(161.14076 -5.0577089e-16 -13.713902)
(160.76795 -9.6216989e-16 -13.618897)
(160.39988 9.138692e-16 -13.470199)
(160.02612 0 -13.343693)
(159.65327 8.272005e-16 -13.19375)
(159.2782 -7.8719455e-16 -13.046759)
(158.9033 -7.5017359e-16 -12.887065)
(158.52794 -7.5541717e-19 -12.723259)
(158.1532 -3.9035345e-19 -12.550197)
(157.7793 6.3741838e-16 -12.370484)
(157.40699 0 -12.182502)
(157.03682 5.8908868e-16 -11.987013)
(156.66949 -5.5198083e-16 -11.783571)
(156.30569 -5.2216963e-19 -11.572454)
(155.94616 -4.9802284e-19 -11.35367)
(155.59169 -4.8678095e-16 -11.127414)
(155.24345 4.6373576e-16 -10.893613)
(154.90217 -1.3853881e-17 -10.653638)
(154.56903 -1.2397501e-17 -10.408139)
(154.24516 8.0772399e-16 -10.157272)
(153.93084 -1.5428279e-15 -9.9017629)
(153.62693 7.361472e-16 -9.6413793)
(153.33391 1.0994082e-17 -9.3763443)
(153.05268 1.0502179e-17 -9.107726)
(152.78392 0 -8.8367353)
(152.52802 -1.1975438e-18 -8.5641597)
(152.28537 1.1445069e-18 -8.2909431)
(152.05645 -5.5929955e-16 -8.018172)
(151.84175 5.3659697e-16 -7.7470388)
(151.64172 5.1123713e-16 -7.4787221)
(151.45683 -4.8970922e-16 -7.2144634)
(151.28752 -9.1471599e-19 -6.9555096)
(151.13413 0 -6.7030016)
(150.99685 4.2881371e-16 -6.4579189)
(150.87562 -4.1026471e-16 -6.2209812)
(150.77008 0 -5.9925663)
(150.67958 0 -5.7727042)
(150.60321 2.2500591e-17 -5.5611118)
(150.53992 -1.346113e-18 -5.3573106)
(150.48866 2.0639962e-17 -5.1607761)
(150.44861 0 -4.9710664)
(150.4191 0 -4.7879456)
(150.39962 0 -4.6113887)
(150.38976 0 -4.4415057)
(150.38909 -3.5494942e-17 -4.2784704)
(150.39717 -3.2047401e-17 -4.1223351)
(150.41311 0 -3.9731145)
(150.43638 2.9517017e-17 -3.8304571)
(150.46525 0 -3.6943342)
(150.50007 -3.0624337e-17 -3.5638233)
(150.53707 -4.2171801e-16 -3.4396304)
(150.58019 4.0228733e-16 -3.3194048)
(150.61862 -3.0221421e-18 -3.2065555)
(150.66734 3.7217631e-16 -3.0938775)
(150.6929 -3.7795728e-16 -2.9935532)
(150.74614 0 -2.8824637)
(150.72888 -3.326482e-16 -2.8024852)
(150.80574 6.4151415e-16 -2.6765036)
(150.69059 -3.0980447e-16 -2.6501836)
(150.8658 4.6698353e-18 -2.4456936)
(150.51091 0 -2.5993185)
(150.92765 -1.3974941e-16 -2.0833473)
(150.09295 1.7091587e-17 -2.843521)
(150.9349 1.3120764e-16 -1.3204568)
(149.59136 -3.2003923e-17 -3.7260855)
(156.92375 -1.2289615e-15 -20.054552)
(167.67895 1.0841294e-15 -13.346113)
(163.51716 -4.1167423e-18 -19.180136)
(165.57593 9.8557682e-16 -14.361019)
(163.91284 -9.4122776e-16 -17.968285)
(164.4778 6.8684329e-18 -15.104656)
(163.61885 0 -17.053409)
(163.64194 0 -15.496489)
(163.07841 7.3535598e-16 -16.41904)
(162.87525 -7.1817376e-16 -15.609763)
(162.43004 6.606255e-16 -15.970504)
(162.12631 -6.3617545e-16 -15.540558)
(161.72604 0 -15.61934)
(161.37755 5.6916408e-16 -15.360699)
(160.99159 -5.4463797e-16 -15.305235)
(160.62266 0 -15.112719)
(160.23933 0 -14.99294)
(159.86067 0 -14.817872)
(159.47649 -8.7649556e-16 -14.663658)
(159.0933 8.4671149e-16 -14.484992)
(158.70824 0 -14.30775)
(158.3237 7.6761618e-16 -14.116754)
(157.93923 -7.1909424e-16 -13.920225)
(157.55597 -6.9620614e-16 -13.713316)
(157.17429 3.0691859e-17 -13.498477)
(156.79505 6.1188041e-16 -13.274251)
(156.41891 6.2119121e-16 -13.041371)
(156.04669 -1.1570528e-15 -12.799508)
(155.67923 1.094645e-15 -12.549001)
(155.31739 -5.0546878e-16 -12.28997)
(154.96207 4.9796205e-16 -12.022777)
(154.61417 -9.4978909e-16 -11.747816)
(154.27452 9.2034779e-16 -11.465532)
(153.94445 -8.5122737e-16 -11.176227)
(153.62473 4.1254632e-16 -10.881453)
(153.31654 0 -10.582396)
(153.0207 2.3517451e-17 -10.279917)
(152.7379 -1.1216409e-17 -9.9743259)
(152.46849 -6.966947e-16 -9.6653958)
(152.21313 6.9587284e-16 -9.3546291)
(151.97232 0 -9.0435464)
(151.74634 -5.9789622e-16 -8.7332547)
(151.5355 3.552589e-17 -8.4248611)
(151.34022 1.0916825e-15 -8.1197729)
(151.16078 -5.2162148e-16 -7.8193081)
(150.99744 -4.9875211e-16 -7.5246858)
(150.85036 5.065177e-16 -7.2371085)
(150.71954 -3.989094e-16 -6.9575719)
(150.60477 8.1738777e-16 -6.6868143)
(150.50561 -4.1693107e-16 -6.4252973)
(150.42133 0 -6.1731506)
(150.35104 0 -5.9302365)
(150.29371 -2.2815953e-17 -5.6962388)
(150.24831 -6.9892878e-16 -5.4707767)
(150.21394 6.4810416e-16 -5.2535592)
(150.18993 6.0053331e-16 -5.0444204)
(150.17581 4.3458762e-21 -4.8433656)
(150.1712 -6.6105022e-16 -4.6505263)
(150.17571 0 -4.4660407)
(150.18888 3.3708161e-17 -4.289977)
(150.21014 -3.2327337e-17 -4.1222532)
(150.23867 -6.196323e-17 -3.9626706)
(150.2737 -4.4553112e-16 -3.810838)
(150.31395 4.7819437e-20 -3.6664549)
(150.35893 4.1005728e-16 -3.5288823)
(150.40661 0 -3.3981318)
(150.45791 -4.029708e-16 -3.2729566)
(150.5077 3.8707167e-16 -3.1545891)
(150.56131 -4.6485062e-17 -3.0394805)
(150.60238 3.7972757e-16 -2.9332109)
(150.65279 -6.8737388e-16 -2.8239162)
(150.66306 3.7207558e-16 -2.7338863)
(150.71714 3.1826606e-16 -2.618364)
(150.65771 -8.6929258e-20 -2.5692074)
(150.76628 -3.1852235e-16 -2.3953019)
(150.52637 2.6731905e-16 -2.4956654)
(150.81904 -2.7061429e-16 -2.0529285)
(150.1537 -1.6660362e-17 -2.7045548)
(150.80391 1.6019929e-17 -1.3202625)
(149.67661 3.1116104e-17 -3.5263536)
(156.48718 1.2422096e-15 -21.876207)
(167.29661 -4.6794792e-21 -14.905354)
(162.93272 -1.0729746e-15 -20.966663)
(165.08252 9.9162924e-16 -15.935979)
(163.33195 7.4328095e-18 -19.679323)
(163.93522 8.8924065e-16 -16.693067)
(163.0325 -1.7004343e-15 -18.697485)
(163.06497 1.2158682e-17 -17.078318)
(162.4784 7.6212322e-16 -18.008084)
(162.27085 1.1281306e-17 -17.166447)
(161.81082 -6.9615114e-16 -17.511344)
(161.49703 6.4991009e-16 -17.058967)
(161.0844 0 -17.112837)
(160.72395 0 -16.832134)
(160.32605 -5.5701351e-16 -16.748394)
(159.94482 5.2904839e-16 -16.530828)
(159.54968 0 -16.380882)
(159.15907 1.4960326e-17 -16.177149)
(158.76352 -1.4215787e-17 -15.990814)
(158.3692 8.3926279e-16 -15.780073)
(157.9737 5.0615782e-19 -15.568423)
(157.5793 -7.5993246e-16 -15.342269)
(157.18582 7.3576888e-16 -15.108865)
(156.79447 -7.1142805e-16 -14.864022)
(156.4058 -6.993045e-16 -14.609875)
(156.02075 6.6589442e-16 -14.345261)
(155.64015 1.9273918e-17 -14.070879)
(155.26493 3.6695325e-17 -13.786576)
(154.89603 3.4981772e-17 -13.492775)
(154.53444 -5.5007847e-16 -13.189748)
(154.18115 4.7657502e-16 -12.878002)
(153.83718 5.1547202e-16 -12.55808)
(153.50353 -4.6251037e-16 -12.230696)
(153.18116 -4.4147267e-16 -11.896678)
(152.87094 8.4223277e-16 -11.556726)
(152.57404 -8.0371216e-16 -11.21208)
(152.29125 -3.5977601e-16 -10.864392)
(152.02379 7.3203983e-16 -10.515444)
(151.77199 0 -10.165798)
(151.53597 -6.6747895e-16 -9.8153553)
(151.31617 5.9732679e-16 -9.4658003)
(151.11293 0 -9.119003)
(150.92625 -3.6315543e-17 -8.7760438)
(150.75635 0 -8.4382646)
(150.60333 6.634665e-17 -8.107141)
(150.4671 0 -7.783793)
(150.34747 -3.0262286e-17 -7.4692495)
(150.24407 4.5781269e-20 -7.1643299)
(150.15628 1.1062481e-16 -6.869502)
(150.08329 0 -6.5849874)
(150.02412 0 -6.3107352)
(149.97769 0 -6.0465163)
(149.94295 0 -5.7920582)
(149.91898 0 -5.5471206)
(149.905 8.4606491e-17 -5.3116175)
(149.90048 4.045605e-17 -5.0855935)
(149.90507 6.1957714e-16 -4.8691868)
(149.91844 -5.93064e-16 -4.6625644)
(149.94015 -7.0975462e-17 -4.4658109)
(149.96969 0 -4.27886)
(150.0064 6.5052289e-17 -4.1014877)
(150.04947 5.6081536e-16 -3.9333421)
(150.09803 -5.3730661e-16 -3.773965)
(150.15104 0 -3.6229075)
(150.2077 -5.4843722e-17 -3.4796196)
(150.26672 -1.0512548e-16 -3.3437696)
(150.3278 4.0313784e-16 -3.2145996)
(150.38833 -3.8673648e-16 -3.0922352)
(150.44931 4.637333e-17 -2.9749811)
(150.50259 -3.5606525e-16 -2.8647664)
(150.5557 6.4580555e-20 -2.75622)
(150.58441 2.8739546e-16 -2.659357)
(150.62911 0 -2.5515951)
(150.6058 0 -2.4836765)
(150.67702 1.8231256e-17 -2.33806)
(150.51138 1.756621e-17 -2.3856694)
(150.71532 2.9555258e-17 -2.0176686)
(150.17678 -1.1412816e-16 -2.5424881)
(150.71615 1.1380655e-16 -1.3124076)
(149.68945 -6.0182791e-17 -3.3570787)
(155.92312 3.0011433e-17 -23.748253)
(166.76575 8.822242e-18 -16.501986)
(162.2104 1.1081068e-15 -22.794386)
(164.4545 5.0044097e-19 -17.547658)
(162.61285 -9.6866118e-16 -21.424438)
(163.25339 -9.1303464e-16 -18.316627)
(162.3053 8.6611147e-16 -20.370063)
(162.34507 -1.2798762e-17 -18.691695)
(161.73418 7.8966725e-16 -19.62153)
(161.5201 -7.1346457e-16 -18.749515)
(161.04418 -6.9936734e-16 -19.072724)
(160.7186 1.306146e-15 -18.598007)
(160.29257 -6.2982633e-16 -18.622524)
(159.91892 1.8711836e-17 -18.318239)
(159.50822 0 -18.202603)
(159.11389 0 -17.957437)
(158.70638 -5.139509e-16 -17.77396)
(158.30348 4.7321074e-16 -17.538423)
(157.89642 0 -17.316544)
(157.4911 9.1247354e-16 -17.070252)
(157.08554 -8.6793314e-16 -16.820616)
(156.68198 3.6054449e-20 -16.555635)
(156.28051 0 -16.281649)
(155.88241 -4.5456448e-17 -15.995122)
(155.48843 -6.9240468e-16 -15.697932)
(155.09963 6.1797173e-16 -15.38922)
(154.71699 -6.6776412e-16 -15.069699)
(154.34158 5.6120332e-16 -14.739425)
(153.97446 -3.5645676e-17 -14.398956)
(153.61672 -3.4031559e-17 -14.048772)
(153.26945 -4.8643445e-16 -13.689572)
(152.93372 4.6354885e-16 -13.322133)
(152.61057 0 -12.947376)
(152.30104 0 -12.566314)
(152.00605 0 -12.180154)
(151.72639 -5.1205279e-17 -11.790184)
(151.46297 -4.8785157e-17 -11.397432)
(151.21648 7.9203525e-16 -11.00394)
(150.9878 -8.8706486e-17 -10.612435)
(150.77725 -6.3621112e-16 -10.223285)
(150.58444 4.047578e-17 -9.8365143)
(150.4097 6.1866758e-16 -9.4543315)
(150.25291 -5.1664199e-16 -9.0784447)
(150.11378 -5.6398101e-16 -8.7098088)
(149.99217 -6.7388801e-17 -8.3498617)
(149.88762 9.6429115e-16 -7.999668)
(149.79952 -3.6833488e-16 -7.6599392)
(149.72713 -5.8633882e-17 -7.3312817)
(149.66945 3.9231555e-16 -7.0139151)
(149.62543 -5.354553e-16 -6.7078572)
(149.59393 -4.0931425e-16 -6.412976)
(149.57384 3.9114658e-16 -6.129051)
(149.56418 0 -5.8559347)
(149.56417 7.14678e-16 -5.5935663)
(149.57319 -7.6859505e-16 -5.3420306)
(149.59076 0 -5.1015018)
(149.61657 6.2466905e-16 -4.8721466)
(149.65022 -9.7087038e-16 -4.6540504)
(149.69122 5.0005409e-16 -4.4471662)
(149.73896 5.4672695e-16 -4.2512636)
(149.79273 -1.3086673e-16 -4.0659724)
(149.85173 -5.0065197e-16 -3.8908262)
(149.91512 -4.7911184e-16 -3.7252996)
(149.98196 5.7337689e-16 -3.5688656)
(150.05142 -4.39126e-16 -3.4209694)
(150.12248 1.0518413e-16 -3.2811279)
(150.19447 4.027925e-16 -3.1487131)
(150.26579 -3.8580145e-16 -3.0233991)
(150.33584 5.5461379e-16 -2.9041737)
(150.39993 0 -2.7914036)
(150.45938 0 -2.6825793)
(150.50171 0 -2.5817038)
(150.54516 0 -2.4779713)
(150.54585 1.5000657e-16 -2.3977801)
(150.59576 -2.879329e-16 -2.2713617)
(150.4839 3.4593852e-16 -2.277567)
(150.62644 -3.6533003e-16 -1.9737039)
(150.1859 4.9571308e-16 -2.3886434)
(150.62615 -3.7240656e-16 -1.2949386)
(149.68956 -1.2912276e-19 -3.1643236)
(155.22186 1.2987253e-15 -25.664186)
(166.0716 5.5500384e-19 -18.137365)
(161.34806 -1.1428577e-15 -24.651883)
(163.6797 0 -19.203394)
(161.74958 -1.5407194e-17 -23.192676)
(162.42042 -2.9061827e-17 -19.981181)
(161.42865 0 -22.062861)
(161.46989 -8.088366e-16 -20.339267)
(160.83515 7.9175047e-16 -21.253236)
(160.61017 -7.7452615e-16 -20.358626)
(160.11776 7.1244288e-16 -20.649483)
(159.77735 -2.9050464e-20 -20.15485)
(159.3368 0 -20.143008)
(158.94788 5.9138449e-16 -19.81409)
(158.52324 -5.7972276e-16 -19.661405)
(158.11448 0 -19.385693)
(157.69379 5.242717e-16 -19.164176)
(157.27791 -5.2945525e-16 -18.892942)
(156.85906 4.7431011e-16 -18.63108)
(156.44277 4.2337833e-16 -18.344879)
(156.02754 -8.3160499e-16 -18.052719)
(155.61561 -2.5523804e-17 -17.744343)
(155.20736 4.8684009e-17 -17.425169)
(154.80416 -8.134186e-20 -17.092361)
(154.40696 0 -16.747583)
(154.01698 -7.4701145e-20 -16.39032)
(153.63533 0 -16.021354)
(153.26322 3.8172143e-17 -15.640997)
(152.90184 0 -15.249995)
(152.55236 3.4604823e-17 -14.849081)
(152.21595 0 -14.439204)
(151.89374 0 -14.021416)
(151.58679 6.0053753e-17 -13.596922)
(151.29608 0 -13.167043)
(151.02249 -4.3648497e-16 -12.733202)
(150.76681 4.6805875e-16 -12.296933)
(150.52966 0 -11.859898)
(150.31142 -4.7291552e-17 -11.423508)
(150.11261 -6.3220244e-16 -10.989878)
(149.93389 6.0295551e-16 -10.561989)
(149.77485 -6.576458e-16 -10.140027)
(149.63486 7.0589677e-16 -9.7243461)
(149.51386 -7.4860896e-16 -9.3174473)
(149.41107 5.7150161e-16 -8.9202803)
(149.32593 -1.3647138e-16 -8.5337586)
(149.25764 6.5068118e-17 -8.158937)
(149.20515 -1.24245e-16 -7.7961942)
(149.16741 1.1874252e-16 -7.445876)
(149.14316 -4.533225e-16 -7.1080429)
(149.13119 9.7397228e-16 -6.7825747)
(149.13031 3.1769469e-22 -6.4693529)
(149.13947 -4.936401e-16 -6.168236)
(149.1578 1.886608e-16 -5.8792195)
(149.18463 0 -5.6023832)
(149.21943 0 -5.3378942)
(149.26173 0 -5.0859266)
(149.31112 -6.2860369e-16 -4.8465617)
(149.36717 4.5067916e-16 -4.6197307)
(149.42929 1.4354287e-16 -4.4052138)
(149.49682 -1.3727313e-16 -4.2026294)
(149.56905 1.3118928e-16 -4.0114884)
(149.64522 -7.5274437e-16 -3.8312446)
(149.72453 9.5973606e-16 -3.6613179)
(149.80617 -1.0325624e-15 -3.5011254)
(149.88929 9.8761794e-16 -3.3500748)
(149.97305 -2.1004857e-16 -3.2075949)
(150.05668 -6.0265013e-16 -3.0730649)
(150.139 0 -2.9459512)
(150.21889 -1.8392373e-16 -2.8254667)
(150.29321 1.7608512e-16 -2.7112926)
(150.36056 0 -2.6021356)
(150.41406 0 -2.4990438)
(150.46049 -1.5463708e-16 -2.3975518)
(150.47837 -2.9632857e-16 -2.309105)
(150.51706 -2.8394583e-16 -2.1967686)
(150.44393 6.8098303e-17 -2.1692761)
(150.54088 -6.5325984e-17 -1.9202368)
(150.17829 2.5086474e-16 -2.2359505)
(150.55288 -6.0035499e-17 -1.2694153)
(149.66608 2.266376e-16 -2.9788002)
(154.37673 1.2957413e-15 -27.623053)
(165.20282 -1.1654545e-15 -19.810027)
(160.33774 1.7575912e-17 -26.537673)
(162.75106 0 -20.900937)
(160.73457 1.5643014e-17 -24.981499)
(161.42876 9.7514695e-16 -21.682947)
(160.39485 -8.6900486e-16 -23.772041)
(160.43179 -5.3107645e-17 -22.015863)
(159.77346 0 -22.898177)
(159.53339 -7.6477503e-16 -21.987217)
(159.02372 6.7604585e-17 -22.235273)
(158.66566 2.1058357e-17 -21.721653)
(158.20941 6.1321541e-16 -21.666482)
(157.80341 0 -21.31061)
(157.36377 5.9096755e-16 -21.115461)
(156.93956 -1.0879807e-15 -20.805227)
(156.5051 1.0678567e-15 -20.54067)
(156.07599 -4.7588834e-16 -20.228985)
(155.64549 0 -19.922088)
(155.21879 2.8696147e-17 -19.590871)
(154.79492 -8.7489028e-16 -19.251011)
(154.37612 1.6647915e-15 -18.894018)
(153.96306 -1.6342142e-15 -18.52447)
(153.55727 8.484362e-16 -18.14024)
(153.15988 -7.1855412e-16 -17.742867)
(152.77227 6.8376335e-16 -17.332213)
(152.39571 0 -16.909205)
(152.03152 -5.8190186e-16 -16.474462)
(151.68098 5.9107811e-16 -16.028983)
(151.34535 7.0492456e-17 -15.573815)
(151.02583 6.7168675e-17 -15.110213)
(150.72355 -5.756546e-16 -14.639552)
(150.43953 9.1412411e-16 -14.163356)
(150.17468 2.0221984e-19 -13.683259)
(149.92976 -8.8585084e-16 -13.201007)
(149.70536 5.2783003e-16 -12.718399)
(149.5019 0 -12.237263)
(149.31959 3.8389871e-16 -11.759555)
(149.15841 -4.5755023e-16 -11.286723)
(149.01834 0 -10.821209)
(148.89965 -6.6592172e-16 -10.365597)
(148.80063 7.9454607e-17 -9.9195152)
(148.721 5.2995326e-16 -9.4841388)
(148.65976 0 -9.0611822)
(148.61567 1.3779744e-16 -8.6508679)
(148.58772 6.5788156e-16 -8.2540561)
(148.57444 -5.0215408e-16 -7.8709439)
(148.57454 1.1874516e-19 -7.5015789)
(148.58661 -4.5737232e-16 -7.1459552)
(148.60939 8.7310476e-16 -6.8038896)
(148.64174 -2.2896279e-20 -6.4753277)
(148.6827 -9.9420363e-17 -6.1602284)
(148.73151 -1.8981278e-16 -5.8586897)
(148.78758 1.8134021e-16 -5.5708481)
(148.85037 1.7313564e-16 -5.296846)
(148.91939 6.6103107e-16 -5.0367444)
(148.99413 -6.3135791e-16 -4.7904671)
(149.07409 0 -4.5577634)
(149.15862 0 -4.3382383)
(149.24707 1.3750797e-16 -4.1313871)
(149.33874 5.254986e-16 -3.9366281)
(149.43295 -2.5112703e-16 -3.753353)
(149.52897 -4.7965731e-16 -3.5809314)
(149.62605 -2.2912236e-16 -3.4187287)
(149.72344 2.1900875e-16 -3.2661047)
(149.82038 4.1856456e-16 -3.1224234)
(149.9161 8.0003432e-16 -2.9870307)
(150.00965 -3.8240668e-16 -2.8592841)
(150.09982 3.6547497e-16 -2.7384382)
(150.18416 -6.9893065e-16 -2.6238873)
(150.26026 -3.3409512e-16 -2.5147552)
(150.32366 3.1958172e-16 -2.4108297)
(150.37544 1.5281039e-16 -2.3106012)
(150.4063 1.462e-16 -2.2171438)
(150.43977 -2.7981043e-16 -2.1144662)
(150.3967 1.3392926e-16 -2.0608049)
(150.46089 1.2822383e-16 -1.8580022)
(150.16146 -4.9144545e-16 -2.0904957)
(150.47385 2.9385811e-16 -1.2368696)
(149.63181 0 -2.7888451)
(153.38091 2.0843166e-17 -29.622102)
(164.14735 -1.1475558e-15 -21.517033)
(159.17218 3.5116437e-17 -28.447796)
(161.65981 1.0687939e-15 -22.638741)
(159.55952 -1.0181365e-15 -26.786583)
(160.26848 9.908614e-16 -23.419558)
(159.1942 -5.7011277e-17 -25.493022)
(159.21994 2.6983538e-17 -23.717588)
(158.53814 0 -24.551315)
(158.27815 7.7804062e-16 -23.629689)
(157.75014 -8.3037621e-16 -23.823986)
(157.37128 0 -23.29117)
(156.89788 7.0762337e-16 -23.185204)
(156.47285 -6.3232204e-16 -22.798823)
(156.01707 6.0133037e-16 -22.555103)
(155.57644 -6.0684017e-16 -22.205193)
(155.12781 4.7543872e-16 -21.891717)
(154.68547 -1.0331419e-15 -21.533731)
(154.24386 4.9113846e-16 -21.175797)
(153.80784 -4.6755186e-16 -20.79345)
(153.37698 5.0018133e-16 -20.399795)
(152.95357 -5.2961789e-17 -19.988077)
(152.53859 -5.0404887e-17 -19.56217)
(152.1337 -4.7865829e-17 -19.120668)
(151.74026 0 -18.66509)
(151.35977 4.3382411e-17 -18.195727)
(150.99365 6.6182339e-16 -17.713735)
(150.6433 -7.0853123e-16 -17.220103)
(150.31008 5.2510222e-16 -16.71616)
(149.99525 -1.425891e-16 -16.203324)
(149.70001 -6.1222658e-16 -15.683211)
(149.42539 -1.3963208e-19 -15.157565)
(149.17232 -4.941697e-16 -14.628261)
(148.94152 4.7064864e-16 -14.097267)
(148.73353 1.12257e-16 -13.566617)
(148.5487 -1.0676536e-16 -13.038369)
(148.3871 0 -12.514564)
(148.24858 -3.8830443e-16 -11.997202)
(148.1328 4.6249036e-16 -11.48818)
(148.03915 -7.056251e-16 -10.988743)
(147.96682 8.4093077e-16 -10.502036)
(147.9152 -1.6022915e-16 -10.028879)
(147.88246 7.6437547e-16 -9.5684618)
(147.86768 -1.312292e-15 -9.1228572)
(147.86899 -1.3914012e-16 -8.6921228)
(147.88511 3.9792366e-16 -8.2765609)
(147.91433 0 -7.8763389)
(147.9552 1.2084373e-16 -7.49124)
(148.0063 0 -7.121243)
(148.06638 -2.1970632e-16 -6.7661691)
(148.13441 0 -6.4260293)
(148.20952 -3.9979653e-16 -6.1008524)
(148.29103 1.9079935e-16 -5.7907559)
(148.37836 -3.6398552e-16 -5.4958274)
(148.47093 -1.7360869e-16 -5.216082)
(148.56819 0 -4.951394)
(148.66955 0 -4.701492)
(148.77445 0 -4.4659435)
(148.88228 -5.7628446e-16 -4.2442062)
(148.99237 2.7523426e-16 -4.0356773)
(149.10412 1.0577739e-19 -3.8397043)
(149.21691 5.013726e-16 -3.655625)
(149.33011 0 -3.4827605)
(149.44304 6.8526842e-16 -3.3204262)
(149.55504 -6.5434947e-16 -3.1679341)
(149.6654 -2.0812285e-16 -3.024596)
(149.77343 -1.9871704e-16 -2.8897155)
(149.8783 7.5940314e-16 -2.7625813)
(149.97887 -3.6261726e-16 -2.6424261)
(150.07307 -5.19304e-16 -2.5285212)
(150.15822 1.5580246e-19 -2.4200638)
(150.2308 1.5199487e-19 -2.3164297)
(150.28921 1.5085647e-15 -2.2171428)
(150.33037 -5.7656518e-16 -2.1212257)
(150.36252 5.5081458e-16 -2.0249746)
(150.34296 0 -1.9515361)
(150.3824 5.0310833e-16 -1.787052)
(150.13637 -4.8147378e-16 -1.9384056)
(150.40066 0 -1.1983496)
(149.59072 2.1336544e-16 -2.6018373)
(152.22863 1.3298291e-15 -31.660348)
(162.89245 -2.4064199e-15 -23.260301)
(157.84066 -3.6875941e-17 -30.383522)
(160.39394 -7.4717043e-19 -24.418809)
(158.21254 1.0332689e-15 -28.607334)
(158.92634 -9.7697662e-16 -25.190913)
(157.81348 1.8824682e-15 -27.223582)
(157.82044 -8.7788189e-16 -25.441413)
(157.11515 0 -26.208649)
(156.83022 0 -25.280218)
(156.28267 9.3812354e-17 -25.409245)
(155.87996 -7.1279203e-16 -24.855025)
(155.38804 7.1880817e-16 -24.690103)
(154.94233 0 -24.26787)
(154.46959 0 -23.968506)
(154.0121 5.8080131e-16 -23.572253)
(153.54945 -4.8277474e-16 -23.202864)
(153.09466 0 -22.791429)
(152.64334 4.9917221e-16 -22.375342)
(152.2001 -4.7439537e-16 -21.934638)
(151.76504 -5.6360843e-17 -21.48011)
(151.34053 5.3617899e-17 -21.006659)
(150.92787 5.1014807e-17 -20.517643)
(150.52886 0 -20.01239)
(150.14505 0 -19.492526)
(149.77806 0 -18.95883)
(149.4294 0 -18.412788)
(149.10051 0 -17.855829)
(148.79275 6.8359458e-16 -17.289685)
(148.50732 -5.0610407e-16 -16.716204)
(148.24529 0 -16.137412)
(148.00755 5.9010054e-16 -15.555448)
(147.79477 1.8009758e-19 -14.97255)
(147.6074 1.5145716e-19 -14.391008)
(147.44565 -9.0598976e-16 -13.813115)
(147.30944 4.3156573e-16 -13.241119)
(147.19843 5.1410944e-16 -12.677201)
(147.11199 -3.916942e-16 -12.123359)
(147.04931 -3.7325005e-16 -11.581339)
(147.00919 -3.5567703e-16 -11.052871)
(146.99003 -1.6934956e-16 -10.539249)
(146.99163 6.4598007e-16 -10.042178)
(147.0109 -1.5404138e-16 -9.5612486)
(147.04685 -4.4025039e-16 -9.0970053)
(147.09729 1.398174e-16 -8.649906)
(147.16065 6.667891e-16 -8.2196086)
(147.23517 -2.5438643e-16 -7.806273)
(147.31933 2.4249492e-16 -7.4095368)
(147.41175 -2.3104859e-16 -7.0293701)
(147.5113 2.202891e-16 -6.6656308)
(147.61702 0 -6.3183496)
(147.72814 -1.5553086e-19 -5.9875513)
(147.84398 -1.9104837e-16 -5.6732711)
(147.96394 1.82202e-16 -5.3754501)
(148.08742 -3.4774999e-16 -5.0939036)
(148.21378 0 -4.8282882)
(148.34242 -3.1630158e-16 -4.5781371)
(148.47277 3.01491e-16 -4.3428619)
(148.60425 -1.1508856e-15 -4.1218078)
(148.73629 5.490891e-16 -3.9142934)
(148.86835 5.2355547e-16 -3.7196092)
(148.99991 -2.497608e-16 -3.5370415)
(149.13041 4.7641535e-16 -3.3658647)
(149.25928 -9.0903669e-16 -3.205348)
(149.38593 -4.3353071e-16 -3.0547605)
(149.50973 8.2730508e-16 -2.9133714)
(149.63005 8.9921319e-20 -2.7804441)
(149.74617 3.7642147e-16 -2.6552191)
(149.85706 3.5907585e-16 -2.5368977)
(149.96091 0 -2.4246848)
(150.05514 9.800657e-16 -2.3177454)
(150.13643 -1.8704702e-15 -2.2154023)
(150.20216 7.6815036e-20 -2.1172171)
(150.25177 8.5131178e-16 -2.0209057)
(150.28521 -1.3539637e-15 -1.9287349)
(150.28421 1.700536e-19 -1.8415947)
(150.30487 2.4669509e-16 -1.7077517)
(150.10608 -4.7094091e-16 -1.7924111)
(150.32598 1.1237073e-15 -1.1544658)
(149.54654 -2.0715711e-16 -2.4152306)
(150.90194 0 -33.73726)
(161.44563 -1.2231247e-15 -25.044102)
(156.32135 1.1763714e-15 -32.346)
(158.93146 3.4534702e-17 -26.242019)
(156.67305 1.0825418e-15 -30.441329)
(157.38149 -3.0199941e-17 -26.994639)
(156.23277 -9.4082573e-16 -28.959069)
(156.21353 8.3660751e-16 -27.181155)
(155.48516 -8.4591619e-16 -27.86326)
(155.17072 -8.5350302e-16 -26.929543)
(154.60275 -4.7712819e-19 -26.981375)
(154.17368 7.2320011e-16 -26.401296)
(153.66228 1.1470182e-19 -26.168537)
(153.19491 -6.5284177e-16 -25.703239)
(152.70504 6.1970774e-16 -25.3401)
(152.23107 7.3751259e-17 -24.889268)
(151.75549 6.3018048e-16 -24.455769)
(151.29011 -5.319536e-16 -23.982383)
(150.83171 -5.0610906e-16 -23.499859)
(150.38471 4.2060703e-16 -22.992443)
(149.94976 -4.5757117e-16 -22.468975)
(149.52934 4.3483493e-16 -21.925931)
(149.12503 -4.1387046e-16 -21.366372)
(148.73876 2.9486591e-16 -20.790389)
(148.37222 0 -20.199868)
(148.02711 7.1254239e-16 -19.596145)
(147.70495 -6.7756102e-16 -18.981143)
(147.40714 -6.4506578e-16 -18.356801)
(147.13491 -2.886689e-19 -17.725327)
(146.88931 5.8391534e-16 -17.089042)
(146.67116 5.5596887e-16 -16.450408)
(146.48103 -5.2900154e-16 -15.811964)
(146.31924 1.2607302e-16 -15.176284)
(146.18581 -4.7951819e-16 -14.545927)
(146.08045 7.9895661e-16 -13.923368)
(146.00257 -4.3459809e-16 -13.310961)
(145.95126 -7.2440063e-16 -12.710878)
(145.92536 3.9410819e-16 -12.124978)
(145.92341 0 -11.554937)
(145.94358 -1.7891508e-16 -11.00224)
(145.98441 -6.8105658e-16 -10.466996)
(146.04382 6.4884292e-16 -9.9512211)
(146.11947 7.7253694e-16 -9.4547562)
(146.20973 -7.3634716e-16 -8.9767786)
(146.31239 -2.8037168e-16 -8.5180354)
(146.42563 6.6875165e-16 -8.0777948)
(146.54775 2.5466619e-16 -7.6561262)
(146.67723 2.4296208e-16 -7.2526345)
(146.81282 2.3149589e-16 -6.8672512)
(146.95349 -1.0306209e-19 -6.4998457)
(147.09835 -6.308542e-16 -6.1503913)
(147.24669 6.0103896e-16 -5.8188128)
(147.39782 3.8186255e-16 -5.5049717)
(147.55112 -7.2834344e-16 -5.208594)
(147.70593 3.4697279e-16 -4.9292654)
(147.86164 -6.6157646e-16 -4.6664317)
(148.01765 1.5766698e-15 -4.4194556)
(148.17341 -3.0077236e-16 -4.187628)
(148.32847 -2.8664222e-16 -3.9702116)
(148.48232 -2.7314316e-16 -3.7664586)
(148.63453 0 -3.5756108)
(148.78466 -7.4482869e-16 -3.3969065)
(148.93225 -4.7311981e-16 -3.2295783)
(149.07684 1.3535666e-15 -3.0728568)
(149.2179 4.2998907e-16 -2.9259763)
(149.35489 -4.0985482e-16 -2.7881735)
(149.48726 -1.5626727e-15 -2.6586795)
(149.61436 -3.7221776e-16 -2.536701)
(149.73529 3.5501953e-16 -2.4214146)
(149.84849 0 -2.3119789)
(149.95155 9.6690459e-16 -2.2075265)
(150.04121 -6.1447292e-16 -2.1074135)
(150.11453 8.7833747e-16 -2.0108549)
(150.17131 -8.3698892e-16 -1.9158135)
(150.20788 1.4010923e-19 -1.8261562)
(150.22143 5.0701595e-16 -1.7306123)
(150.22878 2.4155174e-16 -1.6209258)
(150.07196 0 -1.6476273)
(150.25296 -2.1933627e-16 -1.1059759)
(149.50127 0 -2.231183)
(149.37409 -1.3851825e-15 -35.860668)
(159.89735 -3.8803214e-17 -26.873761)
(154.59767 -3.7350636e-17 -34.32486)
(157.25447 -3.500466e-17 -28.098691)
(154.92407 -3.3238397e-17 -32.275984)
(155.61588 -1.0080811e-15 -28.819763)
(154.43418 1.0146948e-15 -30.687987)
(154.38097 5.6536617e-17 -28.924086)
(153.62974 9.1289458e-16 -29.50292)
(153.28128 -7.1255508e-16 -28.563242)
(152.6919 -9.6648782e-17 -28.5261)
(152.2343 7.8011122e-16 -27.913563)
(151.70272 -7.3985326e-16 -27.603494)
(151.21331 0 -27.086061)
(150.70685 0 -26.649891)
(150.21777 -6.7158525e-16 -26.134619)
(149.73155 4.2500251e-16 -25.627488)
(149.25885 0 -25.082247)
(148.79765 -5.763024e-16 -24.523765)
(148.35221 9.7297869e-16 -23.940152)
(147.92371 3.4790055e-19 -23.338742)
(147.51475 -7.6919176e-16 -22.717512)
(147.12712 4.1782088e-16 -22.07948)
(146.76285 -6.9582076e-16 -21.425557)
(146.4237 8.5008532e-16 -20.758047)
(146.1113 -8.9975282e-17 -20.078929)
(145.82708 0 -19.390662)
(145.57227 0 -18.695762)
(145.34783 4.635128e-16 -17.996959)
(145.15447 2.0397229e-19 -17.297066)
(144.99259 1.4021114e-16 -16.59897)
(144.86231 -1.0643515e-15 -15.905563)
(144.76339 5.066169e-16 -15.219683)
(144.69527 -4.8183711e-16 -14.544052)
(144.65703 5.7323939e-16 -13.881203)
(144.64743 -4.3636443e-16 -13.233434)
(144.6649 6.227709e-16 -12.602725)
(144.70765 0 -11.990696)
(144.77353 0 -11.398715)
(144.86033 3.5831023e-16 -10.827615)
(144.96605 -1.7072138e-16 -10.277524)
(145.08745 -8.1221616e-16 -9.7495659)
(145.22313 -1.5467441e-16 -9.2430932)
(145.37065 1.0314298e-15 -8.7571426)
(145.52792 2.8074952e-16 -8.2923066)
(145.69302 -1.0693192e-15 -7.8477374)
(145.86436 0 -7.4233276)
(146.04055 -7.2750092e-16 -7.0186928)
(146.22047 4.6222565e-16 -6.633677)
(146.40318 2.2023681e-16 -6.2680916)
(146.58787 4.1922595e-16 -5.9217666)
(146.77385 -7.9925071e-16 -5.594439)
(146.96043 7.6127954e-16 -5.2857376)
(147.14698 -1.0884239e-15 -4.9951469)
(147.33286 3.4567873e-16 -4.7220326)
(147.51751 3.2932153e-16 -4.4656632)
(147.70037 0 -4.2252674)
(147.88103 0 -4.0000494)
(148.05909 5.6944738e-16 -3.7892097)
(148.23418 5.4245848e-16 -3.5919452)
(148.40596 -5.1711467e-16 -3.4074558)
(148.5741 4.9218213e-16 -3.2349393)
(148.73824 -4.6900385e-16 -3.0735953)
(148.898 4.4664184e-16 -2.9226263)
(149.05296 -1.2768746e-15 -2.7812425)
(149.20265 -8.106258e-16 -2.6486579)
(149.3466 1.1582677e-15 -2.5240806)
(149.48422 3.676248e-16 -2.4066992)
(149.61473 0 -2.2956775)
(149.73682 6.6667448e-16 -2.1901413)
(149.84832 -6.3493976e-16 -2.089221)
(149.94599 0 -1.9922632)
(150.02689 -5.7556402e-16 -1.8981311)
(150.08998 -5.479787e-16 -1.8056988)
(150.13094 0 -1.7177536)
(150.15552 0 -1.6185519)
(150.154 0 -1.5271675)
(150.03605 -4.5038474e-16 -1.5051113)
(150.17876 0 -1.054944)
(149.46229 -7.7390076e-16 -2.049286)
(147.6293 -4.3922887e-17 -38.028676)
(158.11218 0 -28.734354)
(152.6584 -1.1742471e-15 -36.310952)
(155.34832 1.1739432e-15 -29.985502)
(152.95008 0 -34.105203)
(153.61219 -1.0234264e-15 -30.658806)
(152.39934 9.082693e-16 -32.402449)
(152.30352 0 -30.659149)
(151.52876 8.1695042e-16 -31.116526)
(151.14157 -8.7726886e-16 -30.166714)
(150.52945 4.8897362e-17 -30.028164)
(150.04147 6.9747194e-16 -29.373524)
(149.48938 -8.7711213e-17 -28.975271)
(148.97843 -5.8555718e-16 -28.394117)
(148.45699 5.5646238e-16 -27.873877)
(147.95564 7.6147983e-17 -27.282224)
(147.46278 -5.0146014e-16 -26.69019)
(146.98808 0 -26.06152)
(146.53065 6.4527569e-17 -25.416152)
(146.09464 1.8432934e-16 -24.745701)
(145.68169 -1.1687896e-16 -24.056484)
(145.29443 -2.2167959e-16 -23.347946)
(144.93482 0 -22.62333)
(144.60484 1.0024358e-16 -21.884442)
(144.30616 -9.4928377e-17 -21.13416)
(144.04021 9.0219129e-17 -20.375184)
(143.80813 0 -19.610592)
(143.61076 -1.6354568e-16 -18.843507)
(143.44862 -4.6593985e-16 -18.077187)
(143.32185 4.4235655e-16 -17.314899)
(143.23027 -1.4009941e-16 -16.559888)
(143.1733 0 -15.815289)
(143.14999 3.8076153e-16 -15.08407)
(143.15903 -6.0342054e-16 -14.368944)
(143.19875 1.1517454e-16 -13.672316)
(143.26715 -2.1859101e-16 -12.996224)