/*--------------------------------*- C++ -*----------------------------------*\
  =========                 |
  \\      /  F ield         | OpenFOAM: The Open Source CFD Toolbox
   \\    /   O peration     | Website:  https://openfoam.org
    \\  /    A nd           | Version:  6
     \\/     M anipulation  |
\*---------------------------------------------------------------------------*/
FoamFile
{
    version     2.0;
    format      ascii;
    class       volScalarField;
    location    "0";
    object      Tlift0;
}
// * * * * * * * * * * * * * * * * * * * * * * * * * * * * * * * * * * * * * //

dimensions      [0 0 0 1 0 0 0];

internalField   nonuniform List<scalar> 
22000
(
0.995416
0.986247
0.977079
0.967909
0.958738
0.949564
0.940388
0.931208
0.922024
0.912836
0.903642
0.894442
0.885236
0.876022
0.8668
0.85757
0.848329
0.839079
0.829817
0.820543
0.811256
0.801956
0.792642
0.783313
0.773968
0.764607
0.755229
0.745833
0.736419
0.726985
0.717531
0.708056
0.69856
0.689043
0.679503
0.66994
0.660354
0.650744
0.641109
0.631449
0.621764
0.612053
0.602315
0.59255
0.582758
0.572939
0.563092
0.553217
0.543313
0.533381
0.52342
0.51343
0.503411
0.493363
0.483285
0.473178
0.463042
0.452877
0.442683
0.43246
0.422208
0.411927
0.401618
0.391282
0.380917
0.370525
0.360107
0.349661
0.339189
0.328692
0.31817
0.307623
0.297052
0.286458
0.275841
0.265202
0.254542
0.243861
0.233161
0.222441
0.211704
0.200949
0.190178
0.179391
0.16859
0.157775
0.146947
0.136108
0.125258
0.114398
0.103528
0.0926514
0.0817672
0.070877
0.0599815
0.0490816
0.0381782
0.027272
0.016364
0.00545479
0.995417
0.986249
0.977081
0.967911
0.958741
0.949568
0.940392
0.931213
0.922029
0.912842
0.903648
0.894449
0.885244
0.876031
0.86681
0.85758
0.84834
0.83909
0.829829
0.820555
0.811269
0.80197
0.792656
0.783328
0.773984
0.764624
0.755246
0.745851
0.736437
0.727003
0.71755
0.708076
0.698581
0.689064
0.679525
0.669963
0.660377
0.650767
0.641133
0.631473
0.621788
0.612078
0.60234
0.592576
0.582784
0.572965
0.563119
0.553244
0.54334
0.533408
0.523447
0.513457
0.503438
0.49339
0.483313
0.473206
0.46307
0.452905
0.44271
0.432487
0.422235
0.411954
0.401645
0.391308
0.380943
0.370551
0.360132
0.349686
0.339214
0.328716
0.318193
0.307645
0.297074
0.286479
0.275861
0.265222
0.254561
0.24388
0.233178
0.222458
0.21172
0.200965
0.190193
0.179405
0.168603
0.157787
0.146959
0.136118
0.125267
0.114406
0.103536
0.0926581
0.0817731
0.070882
0.0599857
0.049085
0.0381808
0.0272739
0.0163651
0.00545515
0.995417
0.986251
0.977084
0.967916
0.958746
0.949574
0.940399
0.931221
0.922039
0.912852
0.903661
0.894463
0.885258
0.876047
0.866827
0.857598
0.84836
0.839111
0.829851
0.820579
0.811294
0.801996
0.792684
0.783357
0.774014
0.764655
0.755279
0.745885
0.736472
0.72704
0.717587
0.708115
0.698621
0.689105
0.679567
0.670005
0.660421
0.650812
0.641179
0.63152
0.621836
0.612126
0.602389
0.592625
0.582835
0.573016
0.56317
0.553295
0.543392
0.533461
0.5235
0.51351
0.503491
0.493443
0.483366
0.473259
0.463123
0.452958
0.442763
0.432539
0.422287
0.412006
0.401696
0.391359
0.380993
0.3706
0.36018
0.349734
0.339261
0.328762
0.318238
0.307689
0.297117
0.286521
0.275902
0.265261
0.254599
0.243916
0.233213
0.222492
0.211752
0.200995
0.190221
0.179432
0.168628
0.157811
0.146981
0.136139
0.125286
0.114423
0.103551
0.0926716
0.0817849
0.0708921
0.0599942
0.0490919
0.0381861
0.0272776
0.0163673
0.0054559
0.995418
0.986253
0.977088
0.967921
0.958753
0.949583
0.94041
0.931234
0.922054
0.912869
0.903679
0.894483
0.88528
0.87607
0.866852
0.857625
0.848389
0.839142
0.829884
0.820614
0.811331
0.802035
0.792725
0.783399
0.774058
0.764701
0.755327
0.745934
0.736523
0.727092
0.717642
0.708171
0.698678
0.689164
0.679627
0.670068
0.660484
0.650877
0.641245
0.631587
0.621905
0.612195
0.60246
0.592697
0.582907
0.57309
0.563244
0.55337
0.543468
0.533536
0.523576
0.513587
0.503568
0.49352
0.483443
0.473336
0.4632
0.453034
0.442839
0.432615
0.422362
0.412081
0.40177
0.391432
0.381066
0.370672
0.360251
0.349803
0.339329
0.328828
0.318303
0.307753
0.297179
0.286581
0.275961
0.265318
0.254654
0.243969
0.233264
0.22254
0.211798
0.201039
0.190263
0.179472
0.168665
0.157845
0.147013
0.136168
0.125313
0.114448
0.103574
0.0926914
0.0818023
0.0709071
0.0600068
0.0491021
0.038194
0.0272832
0.0163707
0.00545701
0.995419
0.986257
0.977093
0.967929
0.958763
0.949595
0.940424
0.93125
0.922072
0.91289
0.903702
0.894508
0.885308
0.876101
0.866885
0.857661
0.848426
0.839182
0.829926
0.820659
0.811378
0.802085
0.792777
0.783454
0.774115
0.76476
0.755388
0.745997
0.736588
0.72716
0.717712
0.708243
0.698752
0.68924
0.679705
0.670147
0.660566
0.65096
0.64133
0.631674
0.621993
0.612285
0.60255
0.592789
0.583
0.573184
0.563339
0.553466
0.543564
0.533634
0.523674
0.513685
0.503667
0.493619
0.483542
0.473435
0.463299
0.453133
0.442937
0.432713
0.422459
0.412177
0.401866
0.391527
0.381159
0.370764
0.360341
0.349892
0.339416
0.328914
0.318387
0.307835
0.297259
0.286659
0.276036
0.265391
0.254724
0.244037
0.23333
0.222603
0.211858
0.201096
0.190317
0.179523
0.168713
0.15789
0.147055
0.136207
0.125348
0.11448
0.103603
0.0927173
0.0818251
0.0709268
0.0600233
0.0491155
0.0382044
0.0272907
0.0163751
0.00545848
0.99542
0.98626
0.9771
0.967938
0.958775
0.94961
0.940442
0.931271
0.922096
0.912916
0.903731
0.894541
0.885343
0.876139
0.866926
0.857705
0.848474
0.839232
0.82998
0.820715
0.811438
0.802147
0.792842
0.783522
0.774187
0.764834
0.755465
0.746077
0.736671
0.727246
0.7178
0.708334
0.698846
0.689336
0.679804
0.670249
0.660669
0.651066
0.641438
0.631784
0.622104
0.612399
0.602666
0.592906
0.583119
0.573304
0.56346
0.553588
0.543688
0.533758
0.523799
0.51381
0.503792
0.493745
0.483668
0.473561
0.463424
0.453258
0.443063
0.432838
0.422583
0.4123
0.401988
0.391647
0.381278
0.370882
0.360457
0.350006
0.339528
0.329024
0.318495
0.30794
0.297361
0.286759
0.276133
0.265485
0.254815
0.244124
0.233414
0.222684
0.211935
0.201169
0.190387
0.179588
0.168775
0.157948
0.147108
0.136257
0.125394
0.114522
0.10364
0.092751
0.0818546
0.0709523
0.0600448
0.0491331
0.038218
0.0273003
0.0163809
0.00546041
0.995422
0.986265
0.977108
0.96795
0.95879
0.949628
0.940464
0.931296
0.922124
0.912948
0.903767
0.89458
0.885386
0.876185
0.866977
0.857759
0.848532
0.839294
0.830045
0.820784
0.811511
0.802224
0.792923
0.783607
0.774275
0.764926
0.75556
0.746176
0.736774
0.727351
0.717909
0.708446
0.698962
0.689455
0.679926
0.670373
0.660797
0.651197
0.641571
0.63192
0.622243
0.612539
0.602808
0.593051
0.583265
0.573452
0.56361
0.553739
0.54384
0.533911
0.523953
0.513965
0.503948
0.493901
0.483824
0.473717
0.463581
0.453414
0.443218
0.432992
0.422737
0.412453
0.402139
0.391797
0.381426
0.371028
0.360601
0.350148
0.339667
0.329161
0.318629
0.308071
0.297489
0.286883
0.276253
0.265602
0.254928
0.244233
0.233518
0.222784
0.212031
0.201261
0.190474
0.179671
0.168853
0.158021
0.147176
0.136319
0.125452
0.114574
0.103688
0.0927933
0.0818919
0.0709845
0.0600719
0.0491552
0.0382351
0.0273125
0.0163882
0.00546284
0.995424
0.986271
0.977118
0.967963
0.958807
0.949649
0.940489
0.931325
0.922157
0.912985
0.903808
0.894625
0.885436
0.876239
0.867034
0.857821
0.848598
0.839364
0.83012
0.820863
0.811594
0.802311
0.793014
0.783702
0.774374
0.76503
0.755668
0.746288
0.73689
0.727471
0.718033
0.708574
0.699093
0.68959
0.680064
0.670515
0.660942
0.651345
0.641722
0.632074
0.622399
0.612698
0.60297
0.593215
0.583432
0.57362
0.56378
0.553911
0.544013
0.534085
0.524128
0.514142
0.504125
0.494078
0.484002
0.473895
0.463758
0.453591
0.443394
0.433168
0.422912
0.412626
0.402311
0.391967
0.381595
0.371194
0.360765
0.350309
0.339826
0.329316
0.318781
0.30822
0.297634
0.287024
0.276391
0.265735
0.255057
0.244358
0.233638
0.222899
0.212141
0.201366
0.190573
0.179765
0.168941
0.158104
0.147254
0.136391
0.125518
0.114635
0.103742
0.0928421
0.0819349
0.0710216
0.0601033
0.0491808
0.038255
0.0273267
0.0163967
0.00546567
0.995426
0.986277
0.977128
0.967978
0.958826
0.949672
0.940516
0.931357
0.922193
0.913026
0.903853
0.894675
0.88549
0.876298
0.867098
0.857889
0.848671
0.839442
0.830202
0.82095
0.811686
0.802408
0.793116
0.783808
0.774485
0.765145
0.755788
0.746413
0.737018
0.727604
0.71817
0.708715
0.699238
0.689739
0.680218
0.670672
0.661103
0.651509
0.64189
0.632244
0.622573
0.612875
0.60315
0.593397
0.583616
0.573807
0.563969
0.554101
0.544205
0.534279
0.524323
0.514337
0.504321
0.494275
0.484199
0.474092
0.463955
0.453788
0.443591
0.433363
0.423106
0.412819
0.402503
0.392157
0.381782
0.371379
0.360948
0.350489
0.340003
0.32949
0.318951
0.308386
0.297796
0.287182
0.276544
0.265884
0.255201
0.244497
0.233772
0.223027
0.212264
0.201483
0.190685
0.17987
0.169041
0.158197
0.147341
0.136472
0.125592
0.114703
0.103804
0.092897
0.0819833
0.0710636
0.0601387
0.0492098
0.0382775
0.0273427
0.0164063
0.00546887
0.995428
0.986284
0.977139
0.967994
0.958847
0.949698
0.940546
0.931391
0.922233
0.91307
0.903903
0.894729
0.88555
0.876363
0.867168
0.857964
0.84875
0.839527
0.830292
0.821045
0.811786
0.802513
0.793226
0.783924
0.774605
0.765271
0.755918
0.746548
0.737158
0.727749
0.71832
0.708869
0.699397
0.689902
0.680385
0.670844
0.661278
0.651688
0.642072
0.632431
0.622763
0.613068
0.603346
0.593596
0.583817
0.57401
0.564175
0.554309
0.544415
0.53449
0.524536
0.514551
0.504536
0.494491
0.484415
0.474308
0.464171
0.454004
0.443806
0.433577
0.423319
0.41303
0.402712
0.392365
0.381988
0.371582
0.361148
0.350686
0.340197
0.32968
0.319137
0.308568
0.297974
0.287356
0.276713
0.266047
0.255359
0.24465
0.233919
0.223169
0.212399
0.201612
0.190807
0.179986
0.16915
0.1583
0.147437
0.136561
0.125674
0.114778
0.103872
0.0929579
0.082037
0.07111
0.060178
0.0492419
0.0383024
0.0273605
0.0164169
0.00547242
0.99543
0.986291
0.977151
0.968011
0.958869
0.949725
0.940578
0.931429
0.922276
0.913118
0.903956
0.894788
0.885614
0.876432
0.867242
0.858044
0.848836
0.839618
0.830389
0.821148
0.811894
0.802626
0.793345
0.784048
0.774735
0.765406
0.756059
0.746693
0.737309
0.727905
0.718481
0.709035
0.699568
0.690078
0.680565
0.671028
0.661467
0.651881
0.642269
0.632631
0.622967
0.613276
0.603557
0.59381
0.584034
0.57423
0.564397
0.554534
0.544641
0.534719
0.524766
0.514782
0.504768
0.494724
0.484648
0.474542
0.464405
0.454237
0.444038
0.433809
0.423549
0.413259
0.402939
0.392589
0.38221
0.371802
0.361365
0.3509
0.340407
0.329886
0.319339
0.308766
0.298167
0.287544
0.276896
0.266225
0.255531
0.244816
0.234079
0.223322
0.212547
0.201752
0.190941
0.180113
0.16927
0.158412
0.147541
0.136658
0.125764
0.11486
0.103946
0.0930244
0.0820957
0.0711609
0.0602211
0.0492771
0.0383298
0.02738
0.0164286
0.00547632
0.995433
0.986299
0.977164
0.968029
0.958892
0.949754
0.940613
0.931469
0.922321
0.913169
0.904013
0.89485
0.885682
0.876506
0.867322
0.85813
0.848928
0.839716
0.830492
0.821257
0.812009
0.802747
0.793471
0.78418
0.774873
0.765549
0.756208
0.746848
0.73747
0.728071
0.718652
0.709212
0.69975
0.690265
0.680757
0.671225
0.661668
0.652087
0.64248
0.632846
0.623186
0.613498
0.603783
0.594039
0.584267
0.574465
0.564635
0.554774
0.544884
0.534963
0.525012
0.51503
0.505017
0.494973
0.484898
0.474792
0.464655
0.454487
0.444288
0.434057
0.423796
0.413505
0.403183
0.392831
0.382449
0.372038
0.361598
0.351129
0.340632
0.330108
0.319557
0.308979
0.298375
0.287746
0.277093
0.266416
0.255717
0.244995
0.234252
0.223488
0.212705
0.201904
0.191085
0.18025
0.169399
0.158534
0.147655
0.136764
0.125861
0.114948
0.104026
0.0930964
0.0821593
0.0712161
0.0602677
0.0493152
0.0383595
0.0274012
0.0164414
0.00548055
0.995435
0.986307
0.977178
0.968048
0.958917
0.949785
0.940649
0.931511
0.922369
0.913223
0.904073
0.894916
0.885754
0.876584
0.867407
0.85822
0.849025
0.839819
0.830601
0.821372
0.81213
0.802875
0.793605
0.78432
0.77502
0.765702
0.756367
0.747013
0.73764
0.728247
0.718834
0.709399
0.699943
0.690463
0.680961
0.671434
0.661882
0.652306
0.642703
0.633074
0.623418
0.613734
0.604022
0.594282
0.584514
0.574715
0.564888
0.55503
0.545142
0.535223
0.525274
0.515293
0.505281
0.495239
0.485164
0.475059
0.464922
0.454753
0.444553
0.434322
0.42406
0.413767
0.403443
0.393089
0.382704
0.37229
0.361847
0.351374
0.340874
0.330345
0.319789
0.309206
0.298597
0.287963
0.277304
0.266621
0.255915
0.245186
0.234436
0.223666
0.212875
0.202067
0.19124
0.180396
0.169537
0.158664
0.147776
0.136877
0.125965
0.115044
0.104113
0.0931739
0.0822277
0.0712754
0.060318
0.0493563
0.0383914
0.0274241
0.0164551
0.00548512
0.995438
0.986316
0.977192
0.968069
0.958944
0.949817
0.940688
0.931555
0.92242
0.91328
0.904136
0.894986
0.88583
0.876666
0.867495
0.858315
0.849126
0.839927
0.830716
0.821494
0.812258
0.803009
0.793746
0.784468
0.775174
0.765862
0.756533
0.747186
0.737819
0.728433
0.719026
0.709597
0.700146
0.690673
0.681176
0.671654
0.662108
0.652536
0.642939
0.633314
0.623663
0.613983
0.604276
0.59454
0.584774
0.57498
0.565155
0.5553
0.545415
0.535498
0.525551
0.515572
0.505562
0.49552
0.485446
0.475341
0.465204
0.455035
0.444835
0.434603
0.424339
0.414044
0.403718
0.393362
0.382975
0.372558
0.362111
0.351635
0.34113
0.330597
0.320036
0.309448
0.298833
0.288193
0.277528
0.266839
0.256126
0.24539
0.234633
0.223855
0.213057
0.20224
0.191405
0.180553
0.169685
0.158802
0.147906
0.136997
0.126077
0.115146
0.104205
0.0932568
0.0823009
0.0713389
0.0603718
0.0494004
0.0384257
0.0274485
0.0164697
0.00549001
0.995441
0.986325
0.977207
0.96809
0.958971
0.949851
0.940728
0.931602
0.922473
0.91334
0.904202
0.895059
0.885909
0.876752
0.867588
0.858415
0.849233
0.84004
0.830836
0.821621
0.812392
0.80315
0.793894
0.784623
0.775335
0.76603
0.756708
0.747368
0.738008
0.728628
0.719227
0.709805
0.70036
0.690892
0.681401
0.671886
0.662345
0.652779
0.643186
0.633567
0.62392
0.614246
0.604542
0.59481
0.585049
0.575258
0.565437
0.555585
0.545702
0.535788
0.525843
0.515866
0.505857
0.495816
0.485744
0.475639
0.465502
0.455333
0.445132
0.434899
0.424634
0.414338
0.40401
0.393651
0.383261
0.37284
0.36239
0.35191
0.341401
0.330863
0.320297
0.309704
0.299084
0.288437
0.277766
0.267069
0.256349
0.245607
0.234841
0.224055
0.213249
0.202424
0.19158
0.180719
0.169842
0.15895
0.148044
0.137125
0.126195
0.115254
0.104304
0.093345
0.0823789
0.0714066
0.0604291
0.0494473
0.0384622
0.0274746
0.0164854
0.00549523
0.995444
0.986334
0.977223
0.968112
0.959
0.949886
0.940769
0.93165
0.922528
0.913402
0.904271
0.895134
0.885992
0.876842
0.867685
0.858519
0.849344
0.840158
0.830962
0.821753
0.812532
0.803297
0.794048
0.784784
0.775503
0.766206
0.756891
0.747557
0.738204
0.728831
0.719437
0.710021
0.700583
0.691122
0.681637
0.672128
0.662593
0.653033
0.643446
0.633832
0.62419
0.61452
0.604822
0.595094
0.585337
0.57555
0.565732
0.555883
0.546004
0.536093
0.52615
0.516175
0.506168
0.496128
0.486057
0.475953
0.465816
0.455647
0.445445
0.435211
0.424945
0.414647
0.404317
0.393955
0.383562
0.373139
0.362685
0.3522
0.341687
0.331144
0.320573
0.309974
0.299348
0.288695
0.278017
0.267313
0.256586
0.245835
0.235062
0.224268
0.213453
0.202618
0.191765
0.180895
0.170008
0.159106
0.14819
0.137261
0.126321
0.115369
0.104408
0.0934385
0.0824616
0.0714784
0.0604899
0.0494971
0.0385009
0.0275023
0.016502
0.00550077
0.995447
0.986344
0.97724
0.968135
0.959029
0.949922
0.940813
0.931701
0.922585
0.913466
0.904342
0.895213
0.886077
0.876935
0.867785
0.858627
0.849459
0.840281
0.831092
0.821891
0.812677
0.80345
0.794208
0.784952
0.775679
0.766389
0.757081
0.747755
0.738409
0.729043
0.719656
0.710247
0.700816
0.691362
0.681884
0.672381
0.662852
0.653298
0.643717
0.634108
0.624472
0.614808
0.605114
0.595391
0.585638
0.575855
0.566041
0.556196
0.54632
0.536411
0.526471
0.516498
0.506493
0.496455
0.486385
0.476281
0.466145
0.455976
0.445774
0.435539
0.425271
0.414971
0.404639
0.394275
0.383879
0.373452
0.362994
0.352506
0.341988
0.33144
0.320863
0.310258
0.299626
0.288966
0.278281
0.26757
0.256835
0.246076
0.235295
0.224491
0.213667
0.202823
0.191961
0.18108
0.170184
0.159271
0.148345
0.137405
0.126453
0.115491
0.104518
0.0935375
0.0825491
0.0715543
0.0605542
0.0495498
0.038542
0.0275316
0.0165196
0.00550663
0.995451
0.986354
0.977256
0.968159
0.95906
0.94996
0.940857
0.931752
0.922644
0.913532
0.904415
0.895294
0.886166
0.877031
0.867889
0.858738
0.849578
0.840408
0.831227
0.822034
0.812828
0.803608
0.794375
0.785126
0.77586
0.766578
0.757278
0.74796
0.738622
0.729263
0.719884
0.710482
0.701059
0.691611
0.68214
0.672644
0.663122
0.653574
0.643999
0.634397
0.624766
0.615107
0.605419
0.595701
0.585953
0.576174
0.566364
0.556523
0.54665
0.536745
0.526807
0.516837
0.506834
0.496797
0.486728
0.476625
0.466489
0.45632
0.446118
0.435882
0.425613
0.415311
0.404977
0.39461
0.384212
0.373781
0.363319
0.352826
0.342303
0.33175
0.321168
0.310557
0.299918
0.289252
0.278559
0.26784
0.257097
0.24633
0.235539
0.224727
0.213893
0.203039
0.192167
0.181276
0.170368
0.159445
0.148508
0.137556
0.126593
0.115619
0.104635
0.0936418
0.0826414
0.0716345
0.0606221
0.0496054
0.0385853
0.0275626
0.0165382
0.00551283
0.995454
0.986364
0.977274
0.968183
0.959092
0.949999
0.940903
0.931806
0.922705
0.9136
0.904491
0.895377
0.886257
0.87713
0.867996
0.858853
0.849701
0.840539
0.831366
0.822181
0.812983
0.803772
0.794546
0.785305
0.776048
0.766775
0.757483
0.748172
0.738842
0.729492
0.72012
0.710726
0.70131
0.69187
0.682406
0.672917
0.663402
0.65386
0.644292
0.634696
0.625072
0.615419
0.605736
0.596023
0.58628
0.576506
0.566701
0.556863
0.546994
0.537092
0.527157
0.51719
0.507189
0.497154
0.487086
0.476984
0.466849
0.45668
0.446477
0.436241
0.425971
0.415667
0.405331
0.394961
0.384559
0.374125
0.363659
0.353162
0.342634
0.332075
0.321487
0.31087
0.300224
0.289551
0.27885
0.268124
0.257372
0.246596
0.235796
0.224974
0.21413
0.203266
0.192383
0.181481
0.170563
0.159628
0.148679
0.137716
0.12674
0.115754
0.104757
0.0937517
0.0827385
0.0717188
0.0606936
0.049664
0.0386308
0.0275952
0.0165577
0.00551935
0.995458
0.986375
0.977291
0.968208
0.959124
0.950038
0.940951
0.93186
0.922767
0.91367
0.904569
0.895463
0.886351
0.877232
0.868106
0.858971
0.849827
0.840674
0.831509
0.822332
0.813143
0.80394
0.794723
0.785491
0.776242
0.766977
0.757694
0.748391
0.73907
0.729728
0.720364
0.710978
0.70157
0.692138
0.682681
0.673199
0.663692
0.654158
0.644596
0.635007
0.625389
0.615742
0.606065
0.596358
0.58662
0.576851
0.56705
0.557217
0.547352
0.537453
0.527522
0.517557
0.507559
0.497526
0.48746
0.477359
0.467224
0.457055
0.446852
0.436615
0.426344
0.416038
0.4057
0.395328
0.384923
0.374485
0.364015
0.353513
0.34298
0.332416
0.321821
0.311197
0.300545
0.289864
0.279155
0.268421
0.25766
0.246874
0.236065
0.225233
0.214379
0.203504
0.19261
0.181697
0.170766
0.15982
0.148858
0.137883
0.126895
0.115895
0.104886
0.093867
0.0828406
0.0718074
0.0607687
0.0497255
0.0386788
0.0276294
0.0165783
0.0055262
0.995461
0.986386
0.97731
0.968234
0.959157
0.950079
0.940999
0.931916
0.922831
0.913742
0.904649
0.895551
0.886447
0.877336
0.868218
0.859092
0.849957
0.840812
0.831656
0.822488
0.813307
0.804114
0.794905
0.785682
0.776442
0.767185
0.757911
0.748617
0.739304
0.729971
0.720616
0.711239
0.701839
0.692415
0.682966
0.673492
0.663992
0.654465
0.644911
0.635329
0.625718
0.616077
0.606407
0.596706
0.586973
0.577209
0.567413
0.557585
0.547724
0.537829
0.527901
0.517939
0.507943
0.497913
0.487848
0.477748
0.467615
0.457446
0.447243
0.437005
0.426732
0.416425
0.406085
0.39571
0.385302
0.37486
0.364386
0.353879
0.343341
0.332771
0.32217
0.31154
0.30088
0.290191
0.279475
0.268731
0.257961
0.247166
0.236347
0.225504
0.214639
0.203753
0.192847
0.181922
0.17098
0.160021
0.149046
0.138058
0.127057
0.116044
0.10502
0.093988
0.0829476
0.0719004
0.0608475
0.04979
0.038729
0.0276653
0.0165998
0.00553339
0.995465
0.986397
0.977328
0.96826
0.95919
0.95012
0.941048
0.931973
0.922896
0.913815
0.90473
0.89564
0.886544
0.877442
0.868333
0.859216
0.850089
0.840953
0.831806
0.822647
0.813476
0.804291
0.795092
0.785877
0.776647
0.767399
0.758134
0.74885
0.739546
0.730221
0.720875
0.711507
0.702115
0.6927
0.683259
0.673794
0.664302
0.654783
0.645236
0.635661
0.626057
0.616424
0.60676
0.597065
0.587338
0.57758
0.567789
0.557966
0.548109
0.538218
0.528294
0.518335
0.508342
0.498314
0.488251
0.478153
0.46802
0.457852
0.447649
0.43741
0.427137
0.416828
0.406485
0.396108
0.385696
0.375251
0.364772
0.354261
0.343717
0.333141
0.322534
0.311897
0.301229
0.290533
0.279808
0.269055
0.258276
0.247471
0.236641
0.225787
0.214911
0.204014
0.193096
0.182158
0.171203
0.160231
0.149243
0.138241
0.127226
0.116199
0.105161
0.0941146
0.0830596
0.0719977
0.06093
0.0498576
0.0387816
0.0277029
0.0166224
0.00554092
0.995468
0.986408
0.977347
0.968286
0.959224
0.950162
0.941097
0.932031
0.922962
0.913889
0.904812
0.895731
0.886644
0.877551
0.86845
0.859342
0.850225
0.841097
0.83196
0.82281
0.813648
0.804472
0.795283
0.786078
0.776857
0.767619
0.758363
0.749088
0.739793
0.730478
0.721141
0.711782
0.702399
0.692993
0.683561
0.674104
0.664621
0.65511
0.645571
0.636004
0.626408
0.616781
0.607124
0.597436
0.587716
0.577963
0.568178
0.55836
0.548508
0.538622
0.528701
0.518746
0.508756
0.49873
0.48867
0.478573
0.468441
0.458274
0.44807
0.437831
0.427557
0.417247
0.406902
0.396522
0.386107
0.375658
0.365175
0.354658
0.344109
0.333527
0.322914
0.312269
0.301594
0.290889
0.280155
0.269393
0.258604
0.247788
0.236948
0.226083
0.215196
0.204286
0.193355
0.182405
0.171436
0.160451
0.149449
0.138433
0.127403
0.116361
0.105309
0.094247
0.0831767
0.0720994
0.0610163
0.0499283
0.0388367
0.0277423
0.016646
0.00554879
0.995472
0.986419
0.977366
0.968312
0.959259
0.950204
0.941148
0.932089
0.923028
0.913964
0.904896
0.895823
0.886745
0.877661
0.868569
0.85947
0.850362
0.841244
0.832116
0.822976
0.813823
0.804657
0.795478
0.786282
0.777071
0.767843
0.758597
0.749332
0.740047
0.730741
0.721414
0.712064
0.702691
0.693294
0.683872
0.674424
0.664949
0.655447
0.645916
0.636357
0.626769
0.61715
0.6075
0.597819
0.588105
0.578359
0.56858
0.558767
0.54892
0.539038
0.529122
0.519171
0.509184
0.499161
0.489103
0.479008
0.468878
0.458711
0.448508
0.438268
0.427993
0.417681
0.407334
0.396951
0.386533
0.37608
0.365593
0.355072
0.344517
0.333929
0.323308
0.312656
0.301973
0.291259
0.280516
0.269745
0.258945
0.24812
0.237268
0.226392
0.215492
0.204569
0.193626
0.182662
0.17168
0.16068
0.149664
0.138633
0.127588
0.116531
0.105463
0.0943852
0.0832991
0.0722057
0.0611064
0.0500022
0.0388942
0.0277834
0.0166707
0.00555702
0.995476
0.98643
0.977384
0.968339
0.959293
0.950247
0.941198
0.932148
0.923095
0.91404
0.90498
0.895916
0.886847
0.877772
0.86869
0.8596
0.850501
0.841393
0.832274
0.823144
0.814001
0.804846
0.795676
0.786491
0.77729
0.768071
0.758835
0.74958
0.740306
0.73101
0.721693
0.712353
0.70299
0.693602
0.68419
0.674751
0.665285
0.655792
0.646271
0.63672
0.62714
0.617529
0.607887
0.598213
0.588506
0.578767
0.568994
0.559187
0.549345
0.539469
0.529557
0.51961
0.509626
0.499607
0.489551
0.479459
0.469329
0.459163
0.44896
0.438721
0.428444
0.418132
0.407782
0.397397
0.386976
0.376519
0.366027
0.355501
0.34494
0.334345
0.323718
0.313058
0.302367
0.291645
0.280892
0.270111
0.259301
0.248464
0.237601
0.226713
0.2158
0.204865
0.193908
0.18293
0.171933
0.160919
0.149888
0.138841
0.127781
0.116708
0.105624
0.0945294
0.0834267
0.0723166
0.0612004
0.0500792
0.0389542
0.0278263
0.0166965
0.00556561
0.99548
0.986442
0.977404
0.968366
0.959328
0.950289
0.941249
0.932207
0.923163
0.914116
0.905065
0.89601
0.88695
0.877884
0.868811
0.859731
0.850642
0.841543
0.832435
0.823314
0.814182
0.805037
0.795877
0.786702
0.777512
0.768304
0.759078
0.749834
0.740569
0.731284
0.721978
0.712648
0.703295
0.693918
0.684515
0.675086
0.66563
0.656147
0.646634
0.637093
0.627521
0.617919
0.608284
0.598618
0.588919
0.579187
0.56942
0.559619
0.549784
0.539912
0.530006
0.520063
0.510083
0.500067
0.490014
0.479924
0.469796
0.459631
0.449429
0.439189
0.428912
0.418598
0.408247
0.397859
0.387435
0.376974
0.366478
0.355946
0.345379
0.334778
0.324144
0.313476
0.302776
0.292045
0.281283
0.270492
0.259671
0.248823
0.237947
0.227047
0.216121
0.205172
0.194201
0.183209
0.172197
0.161167
0.150121
0.139058
0.127981
0.116892
0.105791
0.0946796
0.0835596
0.0724321
0.0612983
0.0501595
0.0390167
0.027871
0.0167233
0.00557455
0.995484
0.986453
0.977423
0.968393
0.959363
0.950332
0.9413
0.932266
0.923231
0.914192
0.90515
0.896104
0.887053
0.877997
0.868933
0.859863
0.850783
0.841695
0.832596
0.823487
0.814365
0.80523
0.796081
0.786917
0.777737
0.76854
0.759325
0.750091
0.740838
0.731564
0.722268
0.712949
0.703607
0.69424
0.684848
0.675429
0.665983
0.656509
0.647007
0.637474
0.627912
0.618318
0.608693
0.599034
0.589343
0.579618
0.569859
0.560064
0.550235
0.540369
0.530468
0.520529
0.510554
0.500541
0.490492
0.480404
0.470278
0.460115
0.449913
0.439673
0.429396
0.41908
0.408727
0.398337
0.387909
0.377445
0.366944
0.356407
0.345834
0.335227
0.324585
0.31391
0.303201
0.292461
0.281689
0.270887
0.260055
0.249195
0.238307
0.227394
0.216455
0.205492
0.194506
0.183499
0.172472
0.161426
0.150363
0.139284
0.12819
0.117084
0.105965
0.094836
0.0836981
0.0725524
0.0614003
0.0502431
0.0390818
0.0279175
0.0167513
0.00558387
0.995487
0.986465
0.977442
0.96842
0.959398
0.950375
0.941351
0.932325
0.923298
0.914268
0.905235
0.896198
0.887157
0.878109
0.869056
0.859995
0.850926
0.841847
0.832759
0.82366
0.814549
0.805425
0.796286
0.787133
0.777964
0.768779
0.759575
0.750353
0.74111
0.731847
0.722562
0.713255
0.703924
0.694568
0.685186
0.675779
0.666343
0.65688
0.647387
0.637865
0.628312
0.618727
0.609111
0.599461
0.589778
0.580061
0.570309
0.560522
0.550699
0.540839
0.530943
0.52101
0.511039
0.50103
0.490984
0.480899
0.470775
0.460613
0.450413
0.440173
0.429895
0.419579
0.409224
0.398831
0.388401
0.377932
0.367427
0.356885
0.346306
0.335692
0.325043
0.314359
0.303642
0.292892
0.28211
0.271297
0.260454
0.249581
0.238681
0.227754
0.216801
0.205824
0.194823
0.1838
0.172757
0.161695
0.150615
0.139519
0.128408
0.117283
0.106146
0.0949987
0.0838421
0.0726775
0.0615065
0.0503301
0.0391496
0.027966
0.0167803
0.00559357
0.995491
0.986476
0.977461
0.968447
0.959432
0.950417
0.941401
0.932384
0.923365
0.914344
0.90532
0.896292
0.887259
0.878222
0.869178
0.860127
0.851068
0.842
0.832922
0.823834
0.814733
0.80562
0.796493
0.787352
0.778194
0.76902
0.759828
0.750617
0.741386
0.732135
0.722861
0.713565
0.704246
0.694901
0.685531
0.676134
0.66671
0.657257
0.647775
0.638263
0.62872
0.619145
0.609538
0.599898
0.590223
0.580514
0.57077
0.560991
0.551174
0.541321
0.531431
0.521503
0.511537
0.501533
0.49149
0.481408
0.471287
0.461127
0.450928
0.440689
0.430411
0.420093
0.409737
0.399342
0.388908
0.378436
0.367926
0.357378
0.346794
0.336173
0.325516
0.314824
0.304098
0.293339
0.282546
0.271722
0.260867
0.249982
0.239069
0.228128
0.217161
0.206168
0.195152
0.184113
0.173054
0.161975
0.150877
0.139763
0.128633
0.11749
0.106334
0.0951678
0.0839917
0.0728076
0.0616168
0.0504205
0.03922
0.0280163
0.0168106
0.00560365
0.995495
0.986488
0.97748
0.968473
0.959466
0.950459
0.941451
0.932442
0.923431
0.914419
0.905403
0.896385
0.887361
0.878333
0.869299
0.860258
0.851209
0.842152
0.833085
0.824008
0.814918
0.805816
0.796701
0.787571
0.778425
0.769263
0.760082
0.750884
0.741665
0.732425
0.723164
0.71388
0.704572
0.69524
0.685881
0.676496
0.667083
0.657641
0.64817
0.638669
0.629137
0.619572
0.609975
0.600344
0.590679
0.580979
0.571243
0.561471
0.551662
0.541816
0.531932
0.52201
0.51205
0.50205
0.492011
0.481933
0.471814
0.461656
0.451458
0.44122
0.430942
0.420624
0.410266
0.399869
0.389432
0.378956
0.368442
0.357889
0.347298
0.33667
0.326006
0.315306
0.304571
0.293801
0.282998
0.272162
0.261295
0.250398
0.239471
0.228516
0.217533
0.206526
0.195493
0.184438
0.173361
0.162265
0.151149
0.140016
0.128868
0.117705
0.10653
0.0953434
0.0841472
0.0729428
0.0617314
0.0505145
0.0392932
0.0280687
0.016842
0.00561412
0.995499
0.986498
0.977498
0.968498
0.959499
0.950499
0.941499
0.932498
0.923496
0.914492
0.905486
0.896476
0.887462
0.878443
0.869419
0.860388
0.85135
0.842303
0.833247
0.824181
0.815103
0.806012
0.796909
0.78779
0.778657
0.769506
0.760338
0.751152
0.741945
0.732718
0.723469
0.714198
0.704902
0.695582
0.686236
0.676863
0.667462
0.658032
0.648573
0.639083
0.629561
0.620007
0.61042
0.600799
0.591144
0.581453
0.571726
0.561963
0.552162
0.542323
0.532446
0.52253
0.512575
0.50258
0.492546
0.482471
0.472356
0.4622
0.452004
0.441767
0.431489
0.42117
0.410811
0.400412
0.389972
0.379493
0.368974
0.358416
0.347819
0.337184
0.326512
0.315804
0.305059
0.294279
0.283465
0.272618
0.261739
0.250828
0.239887
0.228917
0.21792
0.206896
0.195847
0.184775
0.17368
0.162565
0.151431
0.140279
0.129111
0.117928
0.106733
0.0955257
0.0843086
0.0730831
0.0618504
0.050612
0.0393691
0.028123
0.0168746
0.005625
0.995502
0.986509
0.977515
0.968523
0.959531
0.950539
0.941546
0.932554
0.92356
0.914564
0.905566
0.896565
0.88756
0.878551
0.869537
0.860516
0.851488
0.842452
0.833407
0.824352
0.815286
0.806207
0.797115
0.788009
0.778888
0.76975
0.760595
0.751421
0.742227
0.733013
0.723777
0.714518
0.705236
0.695928
0.686595
0.677234
0.667846
0.658428
0.648981
0.639503
0.629993
0.62045
0.610874
0.601264
0.591618
0.581937
0.57222
0.562465
0.552672
0.542841
0.532972
0.523062
0.513114
0.503124
0.493095
0.483024
0.472912
0.462759
0.452565
0.442329
0.432052
0.421733
0.411373
0.400971
0.390529
0.380046
0.369523
0.35896
0.348357
0.337715
0.327035
0.316318
0.305564
0.294774
0.283949
0.27309
0.262197
0.251273
0.240318
0.229333
0.21832
0.20728
0.196214
0.185124
0.174011
0.162877
0.151723
0.140552
0.129363
0.11816
0.106943
0.0957148
0.0844761
0.0732286
0.0619739
0.0507132
0.039448
0.0281794
0.0169084
0.00563628
0.995506
0.986519
0.977532
0.968547
0.959562
0.950577
0.941592
0.932607
0.923621
0.914633
0.905644
0.896652
0.887656
0.878657
0.869652
0.860642
0.851624
0.842599
0.833565
0.824521
0.815467
0.8064
0.797321
0.788227
0.779118
0.769993
0.760851
0.75169
0.74251
0.733309
0.724086
0.714841
0.705571
0.696277
0.686957
0.677609
0.668234
0.658829
0.649394
0.639928
0.63043
0.6209
0.611335
0.601736
0.592101
0.58243
0.572723
0.562977
0.553194
0.543371
0.533509
0.523607
0.513665
0.503681
0.493657
0.483591
0.473483
0.463333
0.453141
0.442907
0.43263
0.422311
0.41195
0.401547