/*--------------------------------*- C++ -*----------------------------------*\
  =========                 |
  \\      /  F ield         | OpenFOAM: The Open Source CFD Toolbox
   \\    /   O peration     | Website:  https://openfoam.org
    \\  /    A nd           | Version:  6
     \\/     M anipulation  |
\*---------------------------------------------------------------------------*/
FoamFile
{
    version     2.0;
    format      ascii;
    class       volScalarField;
    location    "0";
    object      Tlift2;
}
// * * * * * * * * * * * * * * * * * * * * * * * * * * * * * * * * * * * * * //

dimensions      [0 0 0 1 0 0 0];

internalField   nonuniform List<scalar> 
22000
(
0.000158986
0.000476774
0.000794008
0.00111032
0.00142535
0.00173872
0.00205009
0.00235909
0.00266537
0.00296859
0.00326842
0.00356451
0.00385654
0.0041442
0.00442716
0.00470513
0.00497781
0.00524491
0.00550614
0.00576125
0.00600996
0.00625202
0.0064872
0.00671526
0.00693597
0.00714913
0.00735453
0.00755197
0.00774128
0.00792228
0.00809482
0.00825875
0.00841393
0.00856022
0.00869753
0.00882573
0.00894473
0.00905446
0.00915484
0.0092458
0.0093273
0.00939928
0.00946171
0.00951459
0.00955788
0.0095916
0.00961575
0.00963034
0.0096354
0.00963096
0.00961708
0.0095938
0.00956118
0.0095193
0.00946823
0.00940806
0.00933888
0.00926079
0.0091739
0.00907833
0.00897421
0.00886165
0.0087408
0.00861181
0.00847481
0.00832997
0.00817745
0.0080174
0.00785001
0.00767545
0.00749389
0.00730554
0.00711058
0.00690921
0.00670162
0.00648803
0.00626864
0.00604366
0.0058133
0.0055778
0.00533736
0.00509222
0.0048426
0.00458873
0.00433085
0.00406919
0.00380399
0.00353549
0.00326393
0.00298955
0.0027126
0.00243332
0.00215195
0.00186874
0.00158394
0.00129778
0.00101053
0.000722419
0.000433696
0.000144606
0.000159171
0.000477329
0.000794931
0.00111161
0.001427
0.00174073
0.00205246
0.00236181
0.00266844
0.002972
0.00327216
0.00356858
0.00386094
0.00414891
0.00443218
0.00471045
0.00498341
0.00525079
0.0055123
0.00576767
0.00601663
0.00625894
0.00649435
0.00672263
0.00694356
0.00715691
0.0073625
0.00756013
0.00774961
0.00793077
0.00810346
0.00826752
0.00842283
0.00856924
0.00870665
0.00883494
0.00895403
0.00906384
0.00916427
0.00925529
0.00933682
0.00940883
0.00947129
0.00952417
0.00956747
0.00960118
0.0096253
0.00963987
0.00964489
0.00964041
0.00962647
0.00960313
0.00957044
0.00952848
0.00947732
0.00941705
0.00934777
0.00926957
0.00918257
0.00908687
0.00898262
0.00886992
0.00874893
0.00861979
0.00848264
0.00833763
0.00818494
0.00802472
0.00785715
0.00768241
0.00750067
0.00731212
0.00711697
0.0069154
0.00670761
0.00649381
0.0062742
0.006049
0.00581843
0.0055827
0.00534204
0.00509667
0.00484683
0.00459273
0.00433461
0.00407272
0.00380728
0.00353854
0.00326674
0.00299212
0.00271492
0.00243539
0.00215378
0.00187033
0.00158528
0.00129888
0.00101138
0.000723029
0.000434062
0.000144728
0.000159542
0.000478439
0.000796778
0.00111419
0.00143031
0.00174476
0.0020572
0.00236725
0.00267458
0.00297883
0.00327966
0.00357674
0.00386973
0.00415833
0.00444222
0.00472108
0.00499463
0.00526257
0.00552463
0.00578052
0.00603
0.00627279
0.00650867
0.0067374
0.00695875
0.00717252
0.00737849
0.00757647
0.00776629
0.00794778
0.00812076
0.0082851
0.00844066
0.0085873
0.00872492
0.0088534
0.00897266
0.00908261
0.00918317
0.00927428
0.00935589
0.00942797
0.00949046
0.00954337
0.00958666
0.00962035
0.00964444
0.00965894
0.00966389
0.00965932
0.00964527
0.00962179
0.00958896
0.00954684
0.0094955
0.00943504
0.00936555
0.00928713
0.00919989
0.00910395
0.00899943
0.00888646
0.00876518
0.00863574
0.00849827
0.00835295
0.00819992
0.00803935
0.00787143
0.00769632
0.0075142
0.00732528
0.00712973
0.00692776
0.00671956
0.00650534
0.00628531
0.00605968
0.00582868
0.00559251
0.0053514
0.00510558
0.00485527
0.00460071
0.00434212
0.00407976
0.00381385
0.00354463
0.00327235
0.00299724
0.00271956
0.00243955
0.00215745
0.00187351
0.00158797
0.00130108
0.0010131
0.000724251
0.000434795
0.000144972
0.000160097
0.000480105
0.000799552
0.00111807
0.00143528
0.00175082
0.00206432
0.00237544
0.00268381
0.00298908
0.00329093
0.003589
0.00388297
0.00417251
0.00445732
0.00473709
0.00501151
0.0052803
0.00554318
0.00579986
0.0060501
0.00629363
0.00653022
0.00675962
0.00698161
0.00719598
0.00740253
0.00760106
0.00779139
0.00797335
0.00814679
0.00831154
0.00846747
0.00861446
0.00875239
0.00888115
0.00900066
0.00911082
0.00921156
0.00930282
0.00938455
0.00945671
0.00951926
0.00957219
0.00961548
0.00964914
0.00967316
0.00968758
0.00969241
0.00968769
0.00967347
0.0096498
0.00961675
0.00957438
0.00952278
0.00946203
0.00939222
0.00931347
0.00922587
0.00912955
0.00902463
0.00891125
0.00878954
0.00865964
0.0085217
0.00837589
0.00822236
0.00806127
0.00789281
0.00771715
0.00753447
0.00734497
0.00714884
0.00694626
0.00673745
0.00652261
0.00630195
0.00607567
0.00584401
0.00560718
0.0053654
0.0051189
0.00486791
0.00461265
0.00435337
0.0040903
0.00382368
0.00355375
0.00328075
0.00300492
0.00272652
0.00244577
0.00216294
0.00187827
0.001592
0.00130438
0.00101566
0.000726084
0.000435895
0.000145339
0.000160841
0.000482333
0.00080326
0.00112325
0.00144192
0.00175891
0.00207385
0.00238638
0.00269615
0.0030028
0.003306
0.00360539
0.00390066
0.00419148
0.00447753
0.0047585
0.00503409
0.00530402
0.00556799
0.00582574
0.006077
0.00632152
0.00655904
0.00678934
0.00701219
0.00722738
0.00743469
0.00763395
0.00782496
0.00800756
0.00818159
0.00834689
0.00850332
0.00865077
0.00878911
0.00891825
0.00903807
0.00914852
0.0092495
0.00934096
0.00942284
0.00949511
0.00955773
0.00961069
0.00965397
0.00968758
0.00971152
0.00972581
0.00973048
0.00972557
0.00971112
0.00968718
0.00965383
0.00961113
0.00955917
0.00949802
0.00942779
0.00934859
0.00926051
0.00916369
0.00905824
0.00894429
0.00882199
0.00869149
0.00855292
0.00840645
0.00825225
0.00809047
0.00792129
0.0077449
0.00756147
0.0073712
0.00717428
0.0069709
0.00676127
0.0065456
0.00632409
0.00609696
0.00586443
0.00562671
0.00538404
0.00513663
0.00488473
0.00462855
0.00436834
0.00410433
0.00383677
0.00356589
0.00329193
0.00301514
0.00273577
0.00245406
0.00217026
0.00188462
0.00159737
0.00130878
0.00101908
0.000728527
0.000437361
0.000145828
0.000161827
0.000485291
0.000808183
0.00113012
0.00145074
0.00176966
0.0020865
0.00240092
0.00271254
0.00302103
0.00332602
0.00362718
0.00392417
0.00421667
0.00450437
0.00478694
0.00506409
0.00533553
0.00560096
0.00586012
0.00611274
0.00635855
0.00659733
0.00682882
0.00705281
0.00726907
0.00747741
0.00767763
0.00786954
0.00805299
0.00822779
0.00839382
0.00855092
0.00869897
0.00883786
0.00896748
0.00908773
0.00919854
0.00929984
0.00939155
0.00947363
0.00954605
0.00960876
0.00966175
0.00970502
0.00973855
0.00976237
0.00977649
0.00978094
0.00977576
0.009761
0.00973671
0.00970296
0.00965981
0.00960736
0.00954569
0.0094749
0.00939509
0.00930637
0.00920887
0.00910271
0.00898802
0.00886495
0.00873363
0.00859423
0.00844689
0.00829179
0.00812909
0.00795896
0.0077816
0.00759717
0.00740588
0.00720792
0.00700348
0.00679276
0.00657599
0.00635336
0.00612509
0.00589141
0.00565253
0.00540867
0.00516007
0.00490696
0.00464957
0.00438813
0.00412288
0.00385407
0.00358193
0.00330671
0.00302866
0.00274801
0.00246503
0.00217994
0.00189301
0.00160448
0.0013146
0.00102361
0.000731759
0.0004393
0.000146474
0.000163107
0.000489127
0.000814568
0.00113905
0.00146218
0.0017836
0.00210292
0.00241978
0.00273381
0.00304467
0.00335199
0.00365544
0.00395467
0.00424937
0.0045392
0.00482385
0.00510302
0.00537641
0.00564374
0.00590473
0.00615911
0.00640661
0.00664701
0.00688004
0.0071055
0.00732316
0.00753282
0.00773428
0.00792737
0.0081119
0.00828772
0.00845467
0.00861263
0.00876146
0.00890105
0.00903129
0.00915209
0.00926337
0.00936506
0.0094571
0.00953943
0.00961202
0.00967484
0.00972787
0.0097711
0.00980454
0.00982819
0.00984208
0.00984624
0.00984071
0.00982553
0.00980077
0.00976649
0.00972276
0.00966968
0.00960732
0.00953579
0.00945519
0.00936564
0.00926726
0.00916017
0.00904451
0.00892043
0.00878806
0.00864757
0.0084991
0.00834284
0.00817894
0.00800759
0.00782896
0.00764325
0.00745063
0.00725132
0.00704551
0.00683339
0.00661519
0.00639112
0.00616139
0.00592621
0.00568583
0.00544045
0.00519031
0.00493563
0.00467667
0.00441365
0.0041468
0.00387638
0.00360263
0.00332578
0.00304609
0.0027638
0.00247917
0.00219243
0.00190384
0.00161365
0.0013221
0.00102944
0.00073593
0.000441802
0.000147308
0.000164628
0.000493687
0.000822158
0.00114965
0.00147578
0.00180017
0.00212243
0.0024422
0.0027591
0.00307278
0.00338288
0.00368905
0.00399095
0.00428825
0.00458062
0.00486774
0.00514932
0.00542504
0.00569462
0.00595777
0.00621424
0.00646376
0.00670607
0.00694094
0.00716814
0.00738746
0.00759868
0.00780162
0.00799608
0.0081819
0.00835891
0.00852697
0.00868593
0.00883568
0.00897609
0.00910707
0.00922851
0.00934034
0.00944249
0.0095349
0.00961752
0.0096903
0.00975324
0.0098063
0.00984949
0.0098828
0.00990624
0.00991985
0.00992365
0.00991769
0.00990202
0.00987669
0.00984177
0.00979734
0.00974349
0.00968031
0.00960789
0.00952635
0.0094358
0.00933637
0.00922817
0.00911136
0.00898607
0.00885246
0.00871066
0.00856086
0.00840321
0.00823789
0.00806508
0.00788496
0.00769771
0.00750353
0.00730262
0.00709518
0.00688141
0.00666152
0.00643574
0.00620427
0.00596733
0.00572516
0.00547798
0.00522602
0.00496951
0.00470868
0.00444379
0.00417506
0.00390274
0.00362707
0.00334831
0.00306668
0.00278246
0.00249588
0.00220719
0.00191664
0.00162448
0.00133097
0.00103634
0.000740859
0.00044476
0.000148294
0.000166394
0.000498982
0.000830972
0.00116197
0.00149158
0.00181942
0.0021451
0.00246824
0.00278848
0.00310543
0.00341876
0.00372809
0.00403308
0.0043334
0.00462872
0.00491872
0.00520308
0.0054815
0.00575369
0.00601937
0.00627826
0.0065301
0.00677464
0.00701164
0.00724086
0.0074621
0.00767513
0.00787977
0.00807582
0.00826313
0.00844152
0.00861085
0.00877097
0.00892177
0.00906312
0.00919494
0.00931711
0.00942957
0.00953224
0.00962507
0.00970801
0.00978102
0.00984407
0.00989716
0.00994028
0.00997343
0.00999662
0.0100099
0.0100133
0.0100068
0.00999053
0.00996453
0.00992887
0.00988362
0.00982887
0.00976472
0.00969127
0.00960863
0.00951691
0.00941625
0.00930677
0.00918861
0.00906192
0.00892685
0.00878355
0.00863219
0.00847294
0.00830598
0.00813147
0.00794961
0.00776059
0.0075646
0.00736184
0.00715251
0.00693682
0.00671498
0.00648722
0.00625374
0.00601478
0.00577055
0.00552128
0.00526722
0.00500858
0.00474562
0.00447856
0.00420765
0.00393314
0.00365527
0.00337429
0.00309044
0.00280398
0.00251515
0.00222421
0.0019314
0.00163698
0.0013412
0.00104431
0.000746547
0.000448173
0.000149432
0.000168409
0.000505024
0.00084103
0.00117602
0.00150961
0.00184138
0.00217096
0.00249796
0.002822
0.0031427
0.0034597
0.00377264
0.00408117
0.00438494
0.00468363
0.0049769
0.00526444
0.00554594
0.00582111
0.00608966
0.00635131
0.0066058
0.00685287
0.00709229
0.00732381
0.00754722
0.00776231
0.00796888
0.00816675
0.00835574
0.00853569
0.00870645
0.00886789
0.00901987
0.0091623
0.00929505
0.00941805
0.0095312
0.00963446
0.00972775
0.00981104
0.00988428
0.00994746
0.0100006
0.0100436
0.0100765
0.0100994
0.0101123
0.0101152
0.0101081
0.0100912
0.0100644
0.0100279
0.00998167
0.00992589
0.00986063
0.00978599
0.00970209
0.00960904
0.00950697
0.00939602
0.00927632
0.00914803
0.0090113
0.00886628
0.00871315
0.00855207
0.00838322
0.00820678
0.00802295
0.00783191
0.00763385
0.00742898
0.00721751
0.00699965
0.0067756
0.00654558
0.00630983
0.00606855
0.00582199
0.00557036
0.00531391
0.00505287
0.00478747
0.00451797
0.00424459
0.0039676
0.00368723
0.00340374
0.00311736
0.00282837
0.002537
0.0022435
0.00194813
0.00165115
0.0013528
0.00105333
0.000752994
0.000452042
0.000150722
0.000170678
0.000511828
0.000852355
0.00119185
0.00152991
0.00186612
0.00220009
0.00253143
0.00285975
0.00318466
0.00350581
0.00382281
0.00413531
0.00444297
0.00474544
0.0050424
0.00533351
0.00561848
0.005897
0.00616877
0.00643353
0.006691
0.00694092
0.00718304
0.00741714
0.007643
0.00786039
0.00806913
0.00826902
0.00845989
0.00864159
0.00881395
0.00897685
0.00913016
0.00927377
0.00940756
0.00953147
0.0096454
0.00974929
0.00984309
0.00992676
0.0100002
0.0100636
0.0101167
0.0101596
0.0101923
0.0102148
0.0102272
0.0102295
0.0102218
0.0102041
0.0101764
0.0101389
0.0100916
0.0100347
0.00996813
0.00989215
0.00980681
0.00971225
0.0096086
0.00949598
0.00937455
0.00924445
0.00910585
0.00895889
0.00880376
0.00864063
0.00846967
0.00829106
0.00810501
0.0079117
0.00771133
0.0075041
0.00729023
0.00706992
0.00684338
0.00661085
0.00637255
0.00612869
0.00587951
0.00562524
0.00536611
0.00510237
0.00483426
0.00456202
0.00428589
0.00400612
0.00372295
0.00343665
0.00314746
0.00285563
0.00256141
0.00226507
0.00196684
0.00166699
0.00136576
0.00106342
0.000760203
0.000456368
0.000152164
0.000173207
0.000519408
0.000864974
0.00120949
0.00155252
0.00189368
0.00223255
0.00256872
0.00290181
0.00323142
0.00355718
0.0038787
0.00419564
0.00450762
0.00481431
0.00511537
0.00541046
0.00569929
0.00598153
0.00625689
0.00652509
0.00678587
0.00703895
0.00728409
0.00752105
0.00774961
0.00796956
0.00818069
0.00838282
0.00857578
0.0087594
0.00893353
0.00909805
0.00925281
0.00939772
0.00953266
0.00965756
0.00977233
0.00987692
0.00997126
0.0100553
0.0101291
0.0101925
0.0102456
0.0102883
0.0103208
0.0103429
0.0103548
0.0103564
0.0103479
0.0103293
0.0103006
0.010262
0.0102135
0.0101553
0.0100873
0.0100098
0.00992289
0.00982664
0.00972121
0.00960674
0.00948337
0.00935126
0.00921057
0.00906146
0.00890411
0.00873868
0.00856537
0.00838436
0.00819584
0.00800001
0.00779707
0.00758722
0.00737068
0.00714766
0.00691838
0.00668306
0.00644192
0.0061952
0.00594312
0.00568593
0.00542385
0.00515713
0.00488601
0.00461073
0.00433155
0.00404871
0.00376246
0.00347305
0.00318074
0.00288578
0.00258842
0.00228891
0.00198752
0.0016845
0.0013801
0.00107457
0.000768174
0.000461152
0.000153759
0.000176
0.000527783
0.000878915
0.00122897
0.00157751
0.00192413
0.0022684
0.00260992
0.00294827
0.00328307
0.00361392
0.00394045
0.00426227
0.00457903
0.00489037
0.00519595
0.00549544
0.00578851
0.00607486
0.00635418
0.00662618
0.0068906
0.00714716
0.00739561
0.00763572
0.00786726
0.00809001
0.00830377
0.00850836
0.0087036
0.00888933
0.0090654
0.00923167
0.00938802
0.00953434
0.00967053
0.0097965
0.00991218
0.0100175
0.0101124
0.0101969
0.0102709
0.0103345
0.0103875
0.0104301
0.0104622
0.0104839
0.0104951
0.010496
0.0104866
0.010467
0.0104372
0.0103974
0.0103475
0.0102878
0.0102183
0.0101391
0.0100504
0.00995231
0.00984491
0.00972838
0.00960287
0.00946854
0.00932554
0.00917405
0.00901425
0.0088463
0.0086704
0.00848673
0.0082955
0.00809689
0.00789112
0.00767839
0.00745892
0.00723292
0.00700062
0.00676223
0.00651799
0.00626812
0.00601287
0.00575246
0.00548714
0.00521714
0.00494272
0.00466413
0.0043816
0.00409539
0.00380575
0.00351294
0.00321721
0.00291881
0.00261801
0.00231505
0.00201019
0.0017037
0.00139582
0.0010868
0.000776911
0.000466395
0.000155507
0.000179064
0.00053697
0.000894209
0.00125034
0.00160493
0.00195753
0.00230773
0.00265511
0.00299924
0.00333973
0.00367617
0.00400817
0.00433535
0.00465735
0.00497379
0.00528433
0.00558863
0.00588635
0.00617719
0.00646084
0.006737
0.00700539
0.00726575
0.00751783
0.00776137
0.00799615
0.00822196
0.00843859
0.00864586
0.00884358
0.0090316
0.00920977
0.00937795
0.00953602
0.00968386
0.00982139
0.00994852
0.0100652
0.0101713
0.0102668
0.0103518
0.010426
0.0104897
0.0105427
0.010585
0.0106167
0.0106378
0.0106484
0.0106485
0.0106381
0.0106174
0.0105864
0.0105451
0.0104938
0.0104325
0.0103612
0.0102802
0.0101895
0.0100894
0.0099798
0.00986101
0.00973315
0.00959637
0.00945085
0.00929676
0.00913426
0.00896355
0.00878481
0.00859825
0.00840404
0.00820241
0.00799355
0.00777767
0.007555
0.00732575
0.00709015
0.00684842
0.00660079
0.00634749
0.00608877
0.00582486
0.00555601
0.00528245
0.00500444
0.00472223
0.00443605
0.00414618
0.00385286
0.00355634
0.00325689
0.00295476
0.00265021
0.00234349
0.00203486
0.00172458
0.00141291
0.00110011
0.000786417
0.0004721
0.000157408
0.000182407
0.000546991
0.000910891
0.00127365
0.00163483
0.00199397
0.00235063
0.0027044
0.00305483
0.00340152
0.00374405
0.00408202
0.00441505
0.00474274
0.00506474
0.00538067
0.00569021
0.005993
0.00628872
0.00657708
0.00685775
0.00713047
0.00739496
0.00765097
0.00789823
0.00813654
0.00836566
0.00858539
0.00879555
0.00899596
0.00918645
0.00936688
0.00953711
0.00969702
0.00984651
0.00998547
0.0101138
0.0102315
0.0103385
0.0104347
0.01052
0.0105946
0.0106583
0.0107112
0.0107532
0.0107845
0.010805
0.0108148
0.010814
0.0108025
0.0107806
0.0107482
0.0107054
0.0106525
0.0105893
0.0105162
0.0104332
0.0103403
0.0102379
0.010126
0.0100047
0.00987431
0.00973487
0.0095866
0.00942966
0.00926424
0.00909052
0.0089087
0.00871898
0.00852155
0.00831662
0.00810441
0.00788512
0.00765898
0.0074262
0.00718702
0.00694166
0.00669036
0.00643336
0.00617088
0.00590318
0.00563051
0.00535309
0.00507119
0.00478506
0.00449495
0.00420111
0.0039038
0.00360328
0.0032998
0.00299363
0.00268502
0.00237423
0.00206153
0.00174716
0.0014314
0.00111449
0.000796695
0.000478268
0.000159465
0.000186035
0.000557869
0.000928998
0.00129896
0.00166728
0.00203351
0.0023972
0.00275789
0.00311517
0.00346858
0.00381772
0.00416216
0.00450152
0.00483539
0.00516341
0.00548519
0.00580039
0.00610867
0.00640969
0.00670313
0.00698869
0.00726609
0.00753504
0.00779528
0.00804657
0.00828867
0.00852136
0.00874443
0.0089577
0.00916099
0.00935414
0.00953699
0.00970942
0.0098713
0.0100225
0.010163
0.0102927
0.0104115
0.0105193
0.0106161
0.010702
0.0107768
0.0108406
0.0108933
0.0109351
0.0109658
0.0109856
0.0109946
0.0109927
0.0109801
0.0109568
0.0109228
0.0108784
0.0108237
0.0107586
0.0106834
0.0105981
0.010503
0.0103981
0.0102836
0.0101597
0.0100265
0.00988414
0.00973288
0.00957286
0.00940427
0.00922731
0.00904215
0.00884901
0.0086481
0.00843961
0.00822377
0.0080008
0.00777091
0.00753433
0.00729129
0.00704202
0.00678676
0.00652575
0.00625924
0.00598746
0.00571066
0.00542909
0.005143
0.00485265
0.0045583
0.00426019
0.00395859
0.00365376
0.00334596
0.00303544
0.00272247
0.0024073
0.00209021
0.00177145
0.00145128
0.00112996
0.000807751
0.000484903
0.000161677
0.000189956
0.000569627
0.000948571
0.00132631
0.00170236
0.00207625
0.00244752
0.00281571
0.00318037
0.00354105
0.00389732
0.00424876
0.00459495
0.0049355
0.00527001
0.0055981
0.00591942
0.0062336
0.00654032
0.00683924
0.00713007
0.00741249
0.00768624
0.00795104
0.00820664
0.00845282
0.00868934
0.00891599
0.00913259
0.00933896
0.00953494
0.00972038
0.00989515
0.0100591
0.0102122
0.0103543
0.0104854
0.0106053
0.010714
0.0108115
0.0108978
0.0109729
0.0110367
0.0110893
0.0111306
0.0111608
0.0111799
0.0111879
0.0111849
0.0111709
0.0111461
0.0111105
0.0110643
0.0110076
0.0109404
0.0108629
0.0107753
0.0106776
0.0105701
0.0104528
0.010326
0.0101897
0.0100443
0.00988981
0.00972647
0.00955447
0.00937399
0.00918525
0.00898844
0.00878377
0.00857146
0.00835172
0.00812478
0.00789086
0.00765019
0.00740301
0.00714955
0.00689004
0.00662474
0.00635389
0.00607772
0.00579651
0.00551048
0.00521991
0.00492504
0.00462614
0.00432346
0.00401727
0.00370782
0.00339538
0.0030802
0.00276256
0.00244272
0.00212093
0.00179746
0.00147257
0.00114653
0.000819587
0.000492007
0.000164045
0.000194181
0.000582293
0.000969654
0.00135577
0.00174014
0.00212229
0.00250173
0.00287799
0.0032506
0.0036191
0.00398305
0.00434201
0.00469556
0.00504328
0.00538477
0.00571964
0.00604752
0.00636805
0.00668089
0.0069857
0.00728216
0.00756997
0.00784886
0.00811854
0.00837877
0.00862929
0.0088699
0.00910037
0.00932053
0.00953018
0.00972918
0.00991736
0.0100946
0.0102608
0.0104158
0.0105596
0.0106921
0.0108132
0.0109229
0.0110211
0.0111079
0.0111832
0.011247
0.0112993
0.0113402
0.0113698
0.011388
0.0113949
0.0113906
0.0113752
0.0113488
0.0113114
0.0112633
0.0112044
0.0111349
0.011055
0.0109648
0.0108644
0.0107539
0.0106337
0.0105037
0.0103643
0.0102155
0.0100575
0.00989061
0.00971493
0.00953069
0.00933809
0.00913734
0.00892865
0.00871224
0.00848832
0.00825714
0.00801891
0.00777387
0.00752225
0.0072643
0.00700026
0.00673037
0.00645487
0.00617403
0.0058881
0.00559732
0.00530195
0.00500227
0.00469851
0.00439095
0.00407985
0.00376548
0.00344809
0.00312795
0.00280532
0.00248048
0.00215368
0.00182519
0.00149528
0.0011642
0.000832211
0.000499583
0.00016657
0.000198718
0.000595895
0.000992296
0.00138741
0.00178072
0.00217173
0.00255994
0.00294485
0.003326
0.00370289
0.00407508
0.00444211
0.00480354
0.00515895
0.00550792
0.00585006
0.00618497
0.0065123
0.00683168
0.00714278
0.00744527
0.00773884
0.00802321
0.0082981
0.00856325
0.00881842
0.00906337
0.00929791
0.00952183
0.00973497
0.00993716
0.0101282
0.0103081
0.0104766
0.0106337
0.0107793
0.0109133
0.0110356
0.0111463
0.0112452
0.0113324
0.0114079
0.0114716
0.0115237
0.0115641
0.0115929
0.0116102
0.0116159
0.0116103
0.0115933
0.0115651
0.0115258
0.0114755
0.0114143
0.0113423
0.0112598
0.0111667
0.0110634
0.0109499
0.0108264
0.0106931
0.0105502
0.0103978
0.0102361
0.0100654
0.00988578
0.00969751
0.00950079
0.00929582
0.00908283
0.00886204
0.00863367
0.00839796
0.00815513
0.00790543
0.00764908
0.00738635
0.00711747
0.00684269
0.00656226
0.00627644
0.00598548
0.00568964
0.00538917
0.00508435
0.00477544
0.00446269
0.00414638
0.00382676
0.00350411
0.00317869
0.00285077
0.00252062
0.00218849
0.00185467
0.0015194
0.00118297
0.000845626
0.000507633
0.000169254
0.000203578
0.000610466
0.00101655
0.0014213
0.00182418
0.00222468
0.00262228
0.00301647
0.00340674
0.00379262
0.00417363
0.00454929
0.00491915
0.00528278
0.00563975
0.00598964
0.00633207
0.00666664
0.00699301
0.00731081
0.00761973
0.00791943
0.00820964
0.00849007
0.00876045
0.00902054
0.00927011
0.00950895
0.00973687
0.00995369
0.0101592
0.0103534
0.010536
0.010707
0.0108662
0.0110136
0.0111492
0.0112728
0.0113844
0.0114841
0.0115717
0.0116474
0.011711
0.0117628
0.0118026
0.0118305
0.0118467
0.0118512
0.011844
0.0118253
0.0117952
0.0117538
0.0117012
0.0116375
0.0115629
0.0114775
0.0113814
0.0112749
0.0111581
0.0110312
0.0108943
0.0107476
0.0105914
0.0104257
0.0102509
0.0100671
0.00987456
0.00967344
0.00946399
0.00924642
0.00902096
0.00878785
0.00854732
0.0082996
0.00804494
0.00778358
0.00751576
0.00724174
0.00696176
0.00667609
0.00638498
0.00608869
0.00578748
0.00548161
0.00517135
0.00485696
0.00453871
0.00421687
0.0038917
0.00356347
0.00323246
0.00289892
0.00256314
0.00222537
0.00188589
0.00154497
0.00120286
0.000859838
0.000516163
0.000172098
0.000208772
0.000626039
0.00104247
0.00145752
0.00187063
0.00228127
0.0026889
0.00309299
0.00349302
0.00388849
0.0042789
0.00466377
0.00504263
0.00541503
0.00578052
0.00613868
0.00648911
0.0068314
0.0071652
0.00749014
0.00780588
0.0081121
0.00840851
0.0086948
0.00897073
0.00923603
0.00949049
0.00973388
0.00996601
0.0101867
0.0103958
0.0105932
0.0107787
0.0109522
0.0111137
0.011263
0.0114002
0.0115251
0.0116377
0.011738
0.0118261
0.0119019
0.0119654
0.0120167
0.0120559
0.0120829
0.0120979
0.012101
0.0120921
0.0120716
0.0120394
0.0119957
0.0119405
0.0118742
0.0117967
0.0117082
0.011609
0.0114991
0.0113787
0.0112481
0.0111074
0.0109567
0.0107964
0.0106265
0.0104474
0.0102591
0.010062
0.00985617
0.00964194
0.00941951
0.0091891
0.00895096
0.00870531
0.00845241
0.00819249
0.0079258
0.00765259
0.00737313
0.00708766
0.00679644
0.00649973
0.0061978
0.0058909
0.00557931
0.00526329
0.00494311
0.00461904
0.00429135
0.00396031
0.00362619
0.00328926
0.0029498
0.00260807
0.00226434
0.00191889
0.00157198
0.00122388
0.000874853
0.000525174
0.000175102
0.000214313
0.000642651
0.00107012
0.00149616
0.00192018
0.00234163
0.00275995
0.0031746
0.00358503
0.00399072
0.00439116
0.00478583
0.00517427
0.005556
0.00593056
0.00629751
0.00665644
0.00700693
0.00734862
0.00768113
0.00800411
0.00831723
0.0086202
0.00891271
0.00919449
0.00946531
0.00972491
0.00997309
0.0102097
0.0104344
0.0106472
0.010848
0.0110365
0.0112127
0.0113765
0.0115278
0.0116666
0.0117928
0.0119065
0.0120075
0.0120959
0.0121718
0.0122351
0.0122859
0.0123243
0.0123503
0.012364
0.0123655
0.0123549
0.0123323
0.0122979
0.0122517
0.0121939
0.0121246
0.012044
0.0119523
0.0118496
0.0117361
0.011612
0.0114774
0.0113326
0.0111777
0.011013
0.0108386
0.0106548
0.0104618
0.0102598
0.0100491
0.00982981
0.00960222
0.00936656
0.00912308
0.00887202
0.00861363
0.00834814
0.00807583
0.00779693
0.00751171
0.00722043
0.00692335
0.00662073
0.00631284
0.00599994
0.00568231
0.00536022
0.00503393
0.00470373
0.00436987
0.00403264
0.0036923
0.00334914
0.00300342
0.00265542
0.00230541
0.00195366
0.00160044
0.00124602
0.000890677
0.00053467
0.000178267
0.000220214
0.000660342
0.00109957
0.0015373
0.00197294
0.0024059
0.00283561
0.00326149
0.00368298
0.00409955
0.00451064
0.00491575
0.00531436
0.005706
0.00609019
0.00646647
0.00683441
0.00719361
0.00754366
0.00788418
0.00821482
0.00853524
0.00884514
0.00914421
0.00943218
0.00970879
0.00997381
0.010227
0.0104682
0.0106973
0.010914
0.0111182
0.0113099
0.0114889
0.0116551
0.0118084
0.0119489
0.0120765
0.0121911
0.0122928
0.0123816
0.0124575
0.0125205
0.0125707
0.0126082
0.0126331
0.0126453
0.0126451
0.0126326
0.0126078
0.0125709
0.012522
0.0124614
0.012389
0.0123051
0.0122099
0.0121035
0.0119862
0.011858
0.0117192
0.0115701
0.0114107
0.0112413
0.0110622
0.0108735
0.0106755
0.0104683
0.0102523
0.0100277
0.00979465
0.00955344
0.00930433
0.00904755
0.00878336
0.008512
0.00823374
0.00794884
0.00765755
0.00736014
0.00705688
0.00674804
0.00643387
0.00611466
0.00579067
0.00546218
0.00512946
0.0047928
0.00445245
0.0041087
0.00376183
0.00341211
0.00305981
0.00270521
0.00234859
0.00199022
0.00163037
0.00126931
0.000907316
0.000544655
0.000181596
0.000226489
0.000679156
0.00113088
0.00158105
0.00202904
0.00247424
0.00291605
0.00335387
0.00378712
0.00421522
0.00463764
0.00505381
0.00546323
0.00586537
0.00625977
0.00664594
0.00702343
0.00739183
0.00775072
0.00809971
0.00843845
0.00876658
0.00908378
0.00938976
0.00968423
0.00996694
0.0102377
0.0104961
0.0107422
0.0109757
0.0111965
0.0114044
0.0115993
0.0117811
0.0119498
0.0121053
0.0122475
0.0123764
0.012492
0.0125943
0.0126834
0.0127593
0.0128219
0.0128715
0.012908
0.0129315
0.0129422
0.0129402
0.0129255
0.0128983
0.0128588
0.0128071
0.0127433
0.0126676
0.0125802
0.0124813
0.0123709
0.0122495
0.012117
0.0119738
0.01182
0.0116558
0.0114816
0.0112974
0.0111035
0.0109001
0.0106876
0.010466
0.0102357
0.00999691
0.00974985
0.00949479
0.00923198
0.00896168
0.00868414
0.00839962
0.00810839
0.00781072
0.00750687
0.00719711
0.00688171
0.00656095
0.00623509
0.00590442
0.00556921
0.00522974
0.00488629
0.00453913
0.00418854
0.0038348
0.00347819
0.00311899
0.00275747
0.00239391
0.00202859
0.00166177
0.00129375
0.000924776
0.000555134
0.000185089
0.000233154
0.000699138
0.00116414
0.00162752
0.00208862
0.00254682
0.00300147
0.00345196
0.00389767
0.00433803
0.00477244
0.00520035
0.00562121
0.00603449
0.00643969
0.00683632
0.00722391
0.00760203
0.00797026
0.0083282
0.00867546
0.00901171
0.00933661
0.00964985
0.00995116
0.0102403
0.0105169
0.010781
0.0110321
0.0112703
0.0114953
0.011707
0.0119052
0.01209
0.0122612
0.0124188
0.0125628
0.012693
0.0128096
0.0129125
0.0130019
0.0130776
0.0131398
0.0131885
0.0132239
0.013246
0.013255
0.0132509
0.0132339
0.0132042
0.0131618
0.013107
0.0130399
0.0129607
0.0128695
0.0127666
0.0126521
0.0125262
0.0123892
0.0122413
0.0120826
0.0119134
0.0117339
0.0115443
0.0113449
0.011136
0.0109177
0.0106903
0.010454
0.0102091
0.0099559
0.00969458
0.00942542
0.00914869
0.00886464
0.00857355
0.00827567
0.00797129
0.00766067
0.00734409
0.00702181
0.00669412
0.0063613
0.00602362
0.00568136
0.00533481
0.00498424
0.00462993
0.00427217
0.00391124
0.00354741
0.00318098
0.0028122
0.00244138
0.00206877
0.00169467
0.00131934
0.000943064
0.000566108
0.000188748
0.000240226
0.000720339
0.00119943
0.00167682
0.00215183
0.0026238
0.00309207
0.00355599
0.00401493
0.00446826
0.00491539
0.00535572
0.00578868
0.00621374
0.00663036
0.00703804
0.0074363
0.00782468
0.00820276
0.00857011
0.00892636
0.00927115
0.00960413
0.009925
0.0102335
0.0105293
0.0108122
0.011082
0.0113384
0.0115814
0.0118108
0.0120264
0.0122282
0.012416
0.0125898
0.0127496
0.0128952
0.0130268
0.0131444
0.0132478
0.0133373
0.0134128
0.0134744
0.0135223
0.0135564
0.0135769
0.013584
0.0135777
0.0135582
0.0135257
0.0134803
0.0134222
0.0133515
0.0132685
0.0131733
0.0130661
0.0129472
0.0128167
0.0126748
0.0125218
0.012358
0.0121834
0.0119984
0.0118032
0.011598
0.0113832
0.0111588
0.0109252
0.0106827
0.0104314
0.0101717
0.00990379
0.00962797
0.00934448
0.0090536
0.00875561
0.00845076
0.00813934
0.00782162
0.00749788
0.0071684
0.00683345
0.00649333
0.00614831
0.00579867
0.0054447
0.00508668
0.0047249
0.00435964
0.00399118
0.0036198
0.0032458
0.00286944
0.00249101
0.0021108
0.00172907
0.0013461
0.000962185
0.000577583
0.000192573
0.000247723
0.000742813
0.00123683
0.00172907
0.00221883
0.0027054
0.0031881
0.00366624
0.00413917
0.00460624
0.00506681
0.00552028
0.00596604
0.00640354
0.00683222
0.00725157
0.00766108
0.00806028
0.00844872
0.00882599
0.00919169
0.00954544
0.0098869
0.0102158
0.0105317
0.0108345
0.011124
0.0113998
0.0116617
0.0119098
0.0121437
0.0123633
0.0125687
0.0127596
0.012936
0.013098
0.0132454
0.0133783
0.0134967
0.0136007
0.0136902
0.0137654
0.0138263
0.0138731
0.0139058
0.0139246
0.0139296
0.0139209
0.0138987
0.0138632
0.0138145
0.0137528
0.0136784
0.0135913
0.0134918
0.0133801
0.0132565
0.013121
0.012974
0.0128158
0.0126464
0.0124662
0.0122754
0.0120742
0.0118629
0.0116418
0.0114111
0.011171
0.0109218
0.0106639
0.0103974
0.0101225
0.00983972
0.00954915
0.00925111
0.00894588
0.00863373
0.00831494
0.00798978
0.00765856
0.00732153
0.006979
0.00663124
0.00627854
0.00592119
0.00555947
0.00519367
0.00482407
0.00445097
0.00407465
0.00369539
0.00331347
0.0029292
0.00254283
0.00215466
0.00176498
0.00137404
0.000982147
0.000589562
0.000196566
0.000255663
0.000766617
0.00127645
0.00178442
0.00228978
0.00279181
0.00328978
0.00378298
0.00427072
0.00475231
0.0052271
0.00569444
0.00615373
0.00660436
0.00704577
0.00747741
0.00789877
0.00830936
0.00870871
0.0090964
0.00947201
0.00983516
0.0101855
0.0105227
0.0108466
0.0111567
0.0114529
0.0117349
0.0120026
0.0122558
0.0124944