/*--------------------------------*- C++ -*----------------------------------*\
  =========                 |
  \\      /  F ield         | OpenFOAM: The Open Source CFD Toolbox
   \\    /   O peration     | Website:  https://openfoam.org
    \\  /    A nd           | Version:  6
     \\/     M anipulation  |
\*---------------------------------------------------------------------------*/
FoamFile
{
    version     2.0;
    format      ascii;
    class       volScalarField;
    location    "900";
    object      alphat;
}
// * * * * * * * * * * * * * * * * * * * * * * * * * * * * * * * * * * * * * //

dimensions      [1 -1 -1 0 0 0 0];

internalField   nonuniform List<scalar> 
16000
(
6.0410679e-06
2.4760617e-05
2.6960857e-05
3.8424394e-05
3.3084541e-05
4.2609007e-05
4.2103543e-05
4.7520027e-05
4.9138974e-05
4.9225162e-05
5.0087367e-05
4.8468698e-05
4.8670965e-05
4.7387188e-05
4.7421112e-05
4.6812041e-05
4.7007295e-05
4.703628e-05
4.7520756e-05
4.8050833e-05
4.8883263e-05
4.9863156e-05
5.1096421e-05
5.2537828e-05
5.4241415e-05
5.6211612e-05
5.8492056e-05
6.1115275e-05
6.4134032e-05
6.7606282e-05
7.1607374e-05
7.622798e-05
8.1580529e-05
8.7802142e-05
9.5061761e-05
0.00010356669
0.00011357185
0.00012539065
0.00013940859
0.00015609956
0.00017604614
0.00019996629
0.00022874176
0.00026345363
0.00030542473
0.00035626815
0.00041793903
0.00049279148
0.00058363449
0.0006937813
0.00082708495
0.00098797475
0.0011815324
0.0012243835
0.0012256639
0.0012259038
0.0012253892
0.0012244477
0.001223299
0.0012219779
0.001220342
0.0012184384
0.0012161892
0.0012135087
0.0012103322
0.0012066926
0.00120272
0.0011987871
0.0011950804
0.0011918902
0.0011888288
0.0011865681
0.0011838676
0.001182572
0.0011798281
0.0011809499
0.0011772491
0.00118473
0.0011742965
0.001183877
5.0305151e-06
2.4497037e-05
2.4726513e-05
3.5143378e-05
3.0567919e-05
3.8430199e-05
3.8790909e-05
4.2473486e-05
4.4849827e-05
4.3871401e-05
4.5176364e-05
4.3143977e-05
4.3528847e-05
4.2100707e-05
4.2207956e-05
4.1598605e-05
4.1801949e-05
4.1808452e-05
4.2247995e-05
4.2715793e-05
4.3458933e-05
4.4331198e-05
4.5429441e-05
4.6712545e-05
4.8227969e-05
4.9979918e-05
5.2006283e-05
5.4336017e-05
5.7015097e-05
6.0094485e-05
6.3639996e-05
6.7731046e-05
7.2466012e-05
7.7964723e-05
8.4374707e-05
9.1876867e-05
0.00010069339
0.0001110971
0.00012342313
0.00013808281
0.00015558047
0.00017653697
0.00020171367
0.00023204248
0.00026866247
0.00031296267
0.00036662806
0.00043169239
0.00051059419
0.00060623209
0.00072201834
0.00086192696
0.0010305751
0.0012232053
0.0012247081
0.0012250863
0.0012246192
0.0012236669
0.0012224988
0.0012211936
0.0012197212
0.0012179711
0.0012158722
0.0012133321
0.0012102783
0.0012067105
0.0012027581
0.0011987719
0.0011950477
0.0011917716
0.0011887617
0.0011863425
0.001183856
0.0011824404
0.001179897
0.0011802669
0.0011771447
0.0011835086
0.0011743336
0.0011835641
4.2979934e-06
2.4231149e-05
2.2978477e-05
3.2343023e-05
2.8567416e-05
3.4868392e-05
3.6278879e-05
3.8021605e-05
4.1176592e-05
3.8986455e-05
4.0679845e-05
3.8235e-05
3.8768209e-05
3.7289547e-05
3.7468583e-05
3.6883435e-05
3.7092993e-05
3.70967e-05
3.750171e-05
3.7927701e-05
3.8600785e-05
3.9390441e-05
4.0381174e-05
4.1538465e-05
4.2902719e-05
4.4479206e-05
4.6300726e-05
4.8393785e-05
5.0798918e-05
5.3561691e-05
5.6740442e-05
6.0405766e-05
6.4644983e-05
6.9564439e-05
7.52949e-05
8.1996675e-05
8.9866389e-05
9.9145347e-05
0.00011012962
0.00012318198
0.00013874619
0.00015736789
0.00017971512
0.00020660414
0.000239031
0.00027820935
0.00032561112
0.00038301379
0.00045255373
0.00053678101
0.00063871821
0.00076191821
0.00091053872
0.0010894567
0.0012237803
0.0012243114
0.0012238993
0.0012229323
0.0012217304
0.0012203992
0.0012189263
0.0012172767
0.0012153617
0.0012129941
0.0012100923
0.0012066304
0.0012027176
0.0011987032
0.0011949549
0.0011916325
0.0011886393
0.0011861372
0.0011837638
0.0011822723
0.0011799211
0.0011798048
0.001177102
0.0011824547
0.0011743173
0.001182637
3.8276252e-06
2.3873264e-05
2.1506851e-05
2.9721057e-05
2.6688088e-05
3.1612113e-05
3.3835303e-05
3.4036454e-05
3.7605188e-05
3.462688e-05
3.6453472e-05
3.3828835e-05
3.4424083e-05
3.3030196e-05
3.3225885e-05
3.2700744e-05
3.2900762e-05
3.2918167e-05
3.3290428e-05
3.3687572e-05
3.4301316e-05
3.5023797e-05
3.5924183e-05
3.6976208e-05
3.8213176e-05
3.9641937e-05
4.1290839e-05
4.3184602e-05
4.5359337e-05
4.7856293e-05
5.0727755e-05
5.4037272e-05
5.7863282e-05
6.2301372e-05
6.746894e-05
7.3509928e-05
8.060081e-05
8.8957948e-05
9.8846899e-05
0.00011059274
0.00012459205
0.00014133249
0.00016141054
0.00018555412
0.00021465036
0.00024978014
0.0002922542
0.00034365619
0.00040589308
0.00048124812
0.00057244132
0.00068269267
0.00081579459
0.00097621878
0.0011692471
0.0012235601
0.0012232135
0.0012222304
0.0012209872
0.0012196189
0.0012181177
0.0012164594
0.0012146014
0.0012124445
0.0012097322
0.0012064154
0.0012025725
0.001198553
0.0011947893
0.0011914438
0.0011884619
0.0011859142
0.001183616
0.0011819782
0.0011799093
0.0011795343
0.0011770743
0.0011813923
0.0011743365
0.0011820813
3.4400903e-06
2.3384069e-05
2.0323589e-05
2.728958e-05
2.4962023e-05
2.8637205e-05
3.1533306e-05
3.0429526e-05
3.4173426e-05
3.0673846e-05
3.2483077e-05
2.9901303e-05
3.0477478e-05
2.92195e-05
2.9403345e-05
2.895555e-05
2.9140485e-05
2.9180078e-05
2.9524008e-05
2.9901061e-05
3.0465378e-05
3.1132698e-05
3.1957258e-05
3.292078e-05
3.4050194e-05
3.5353922e-05
3.6856607e-05
3.8581497e-05
4.0561109e-05
4.2833157e-05
4.5444958e-05
4.8454265e-05
5.1932284e-05
5.5965779e-05
6.0661276e-05
6.614945e-05
7.2590456e-05
8.0180534e-05
8.9160677e-05
9.9826035e-05
0.00011253555
0.00012773088
0.00014595211
0.00016785791
0.0001942502
0.00022610654
0.00026461252
0.00031120169
0.00036760313
0.00043589229
0.00051855129
0.00061853433
0.00073934305
0.00088512254
0.0010607987
0.0012228184
0.0012225533
0.0012215559
0.0012202665
0.0012188552
0.0012173177
0.0012156333
0.00121377
0.0012116686
0.0012091876
0.0012060593
0.0012023224
0.0011983213
0.0011945542
0.0011912041
0.0011882345
0.0011856693
0.0011834228
0.001181694
0.0011798459
0.001179267
0.0011770562
0.0011804503
0.0011743517
0.0011812978
3.1113974e-06
2.0176179e-05
1.9272079e-05
2.4991795e-05
2.3398374e-05
2.5889278e-05
2.9364363e-05
2.7150924e-05
3.0896673e-05
2.7124967e-05
2.8797021e-05
2.6423697e-05
2.6929327e-05
2.5833982e-05
2.5989208e-05
2.5624719e-05
2.5792523e-05
2.5857383e-05
2.6177478e-05
2.654014e-05
2.7063733e-05
2.768577e-05
2.8447287e-05
2.9336971e-05
3.0376509e-05
3.1575575e-05
3.2955859e-05
3.4539362e-05
3.635573e-05
3.8439776e-05
4.0834786e-05
4.3593778e-05
4.6782084e-05
5.0479313e-05
5.4783195e-05
5.9813618e-05
6.5717636e-05
7.2675313e-05
8.0907767e-05
9.0686454e-05
0.00010234019
0.00011627387
0.00013298277
0.00015307076
0.00017727199
0.0002064822
0.00024178795
0.0002845035
0.00033621648
0.00039883569
0.00047465072
0.00056639746
0.00067733445
0.00081133501
0.00097301719
0.0011678849
0.0012219043
0.0012208979
0.0012195584
0.0012180999
0.0012165213
0.001214804
0.001212921
0.0012108285
0.0012084417
0.001205551
0.0012019625
0.0011980053
0.0011942491
0.001190911
0.0011879604
0.0011853988
0.0011831923
0.0011814123
0.0011797316
0.0011789915
0.0011770442
0.0011796814
0.0011743925
0.0011807444
2.8037295e-06
1.9165296e-05
1.7996278e-05
2.2820252e-05
2.1983817e-05
2.336744e-05
2.7293613e-05
2.4171837e-05
2.7771388e-05
2.4000995e-05
2.545304e-05
2.3345639e-05
2.3751517e-05
2.2825897e-05
2.2944917e-05
2.2661108e-05
2.2812341e-05
2.290164e-05
2.3202086e-05
2.3553658e-05
2.4043622e-05
2.4627891e-05
2.5336752e-05
2.616442e-05
2.7128522e-05
2.8239563e-05
2.9516944e-05
3.0981575e-05
3.2660764e-05
3.4586966e-05
3.680015e-05
3.9349397e-05
4.2295289e-05
4.5711556e-05
4.968872e-05
5.4337944e-05
5.9795597e-05
6.622862e-05
7.384198e-05
8.2888249e-05
9.3671885e-05
0.00010656825
0.00012203666
0.0001406373
0.0001630501
0.00019010552
0.00022281137
0.00026238667
0.00031030621
0.00036834537
0.00043863833
0.00052374336
0.00062671856
0.00075121385
0.00090158974
0.0010830679
0.0012212522
0.0012202466
0.0012188548
0.0012173462
0.0012157235
0.0012139695
0.0012120601
0.0012099593
0.0012076062
0.0012048793
0.0012014895
0.0011976045
0.0011938747
0.001190564
0.0011876417
0.0011851
0.0011829281
0.0011811314
0.0011795739
0.0011786605
0.00117703
0.001179021
0.0011744354
0.0011801961
2.5364989e-06
1.8631114e-05
1.6803269e-05
2.078824e-05
2.0679807e-05
2.1026653e-05
2.5248693e-05
2.1497168e-05
2.4760551e-05
2.1227567e-05
2.2417315e-05
2.060557e-05
2.0903876e-05
2.0144353e-05
2.0229039e-05
2.0020358e-05
2.0159111e-05
2.0271558e-05
2.0557554e-05
2.0901126e-05
2.1364424e-05
2.1917869e-05
2.2583598e-05
2.3359939e-05
2.4261473e-05
2.5299296e-05
2.6491008e-05
2.7856553e-05
2.9421399e-05
3.1216032e-05
3.3277791e-05
3.5652438e-05
3.8396738e-05
4.1579622e-05
4.5285714e-05
4.9619112e-05
5.4707521e-05
6.0707279e-05
6.7810082e-05
7.625364e-05
8.6322633e-05
9.8368587e-05
0.0001128218
0.00013020769
0.00015116229
0.00017646355
0.00020705617
0.0002440824
0.00028892617
0.0003432547
0.00040907574
0.00048880156
0.00058532414
0.00070210631
0.00084329388
0.0010138661
0.0012197835
0.0012195912
0.0012181464
0.001216586
0.0012149177
0.0012131249
0.0012111858
0.0012090693
0.001206726
0.0012040674
0.0012009006
0.00119712
0.0011934328
0.0011901643
0.0011872819
0.001184774
0.0011826363
0.0011808485
0.001179382
0.0011783417
0.0011770077
0.0011784082
0.0011744865
0.0011797308
2.3052447e-06
1.804478e-05
1.5689928e-05
1.8855136e-05
1.9462068e-05
1.8817921e-05
2.3187869e-05
1.9099292e-05
2.1893546e-05
1.8748629e-05
1.9669293e-05
1.8156421e-05
1.8354549e-05
1.7748929e-05
1.7806408e-05
1.7665172e-05
1.7796863e-05
1.7930579e-05
1.8207207e-05
1.854541e-05
1.8988189e-05
1.9516909e-05
2.0147751e-05
2.0882058e-05
2.1732191e-05
2.2709519e-05
2.3830368e-05
2.5113785e-05
2.6583789e-05
2.8269265e-05
3.02054e-05
3.2435254e-05
3.5012457e-05
3.8002061e-05
4.1483929e-05
4.5556354e-05
5.0340102e-05
5.5983029e-05
6.2665689e-05
7.0614444e-05
8.0097808e-05
9.1448088e-05
0.00010507214
0.00012146776
0.00014123544
0.00016511085
0.00019398815
0.00022894751
0.00027129982
0.0003226249
0.00038482772
0.00046020124
0.00055150066
0.00066203343
0.00079576931
0.00095748454
0.0011529178
0.0012189208
0.0012174242
0.0012158118
0.0012140974
0.0012122654
0.0012102955
0.0012081601
0.0012058182
0.0012032027
0.0012001931
0.0011965544
0.0011929261
0.0011897144
0.0011868842
0.0011844223
0.0011823231
0.0011805642
0.0011791652
0.0011780555
0.0011769741
0.0011778498
0.0011745526
0.0011792699
2.1048843e-06
1.7375565e-05
1.4651956e-05
1.7005063e-05
1.831355e-05
1.6815341e-05
2.1091739e-05
1.694426e-05
1.9234884e-05
1.6527817e-05
1.7196717e-05
1.5965311e-05
1.6078964e-05
1.5609406e-05
1.5648793e-05
1.5566205e-05
1.5696198e-05
1.5849111e-05
1.6120831e-05
1.6455937e-05
1.6883601e-05
1.739298e-05
1.79962e-05
1.8696629e-05
1.9505146e-05
2.0433168e-05
2.1496078e-05
2.2712157e-05
2.4104266e-05
2.5700017e-05
2.7532869e-05
2.964364e-05
3.2083459e-05
3.491426e-05
3.8212061e-05
4.2070441e-05
4.6604687e-05
5.1955989e-05
5.8295295e-05
6.5840799e-05
7.4847784e-05
8.563309e-05
9.8584487e-05
0.00011417847
0.00013298648
0.00015571005
0.00018320327
0.00021649598
0.00025684063
0.0003057464
0.00036503505
0.0004369024
0.00052399157
0.00062948185
0.00075719741
0.00091174539
0.0010986748
0.0012182246
0.0012166792
0.0012150159
0.0012132564
0.001211386
0.0012093857
0.0012072307
0.0012048855
0.001202295
0.0011993638
0.0011959123
0.0011923587
0.0011892178
0.0011864527
0.0011840479
0.001181994
0.0011802784
0.0011789305
0.0011778
0.0011769284
0.0011773578
0.0011746348
0.0011788178
1.9309876e-06
1.6595e-05
1.3686757e-05
1.5223784e-05
1.7204205e-05
1.5000696e-05
1.895099e-05
1.5000918e-05
1.6794443e-05
1.4533915e-05
1.4983323e-05
1.4003661e-05
1.4052517e-05
1.3699324e-05
1.3730073e-05
1.3697618e-05
1.383078e-05
1.4001054e-05
1.4211057e-05
1.4535406e-05
1.4945323e-05
1.5434237e-05
1.6010878e-05
1.6679406e-05
1.7449294e-05
1.8331635e-05
1.9340838e-05
2.0494302e-05
2.1813722e-05
2.3325498e-05
2.5061532e-05
2.7060459e-05
2.9371188e-05
3.2052821e-05
3.5177949e-05
3.8835951e-05
4.3137234e-05
4.8217663e-05
5.4601345e-05
6.1821636e-05
7.0445247e-05
8.0776806e-05
9.3188259e-05
0.00010814039
0.00012618091
0.00014798382
0.00017437205
0.00020633456
0.00024507769
0.0002920541
0.00034901871
0.00041808919
0.00050181801
0.00060328053
0.00072618217
0.00087499202
0.0010551032
0.001217492
0.0012159033
0.0012141914
0.0012123891
0.0012104822
0.0012084532
0.0012062795
0.0012039305
0.0012013605
0.0011984952
0.0011951999
0.0011917357
0.0011886793
0.0011859916
0.0011836543
0.0011816545
0.0011799924
0.0011786855
0.0011775709
0.0011768688
0.0011769442
0.0011747334
0.001178419
1.7799557e-06
1.5688044e-05
1.2784363e-05
1.3500244e-05
1.6089565e-05
1.3351783e-05
1.6785747e-05
1.3241556e-05
1.4575629e-05
1.2739756e-05
1.3010274e-05
1.2247104e-05
1.2251778e-05
1.1996066e-05
1.1969134e-05
1.1957823e-05
1.2085998e-05
1.2265544e-05
1.2532924e-05
1.2865611e-05
1.3274583e-05
1.3757253e-05
1.4321056e-05
1.4971272e-05
1.5716842e-05
1.6568906e-05
1.7541407e-05
1.8651266e-05
1.9919443e-05
2.1371579e-05
2.3038643e-05
2.4957587e-05
2.7175841e-05
2.9750566e-05
3.2751916e-05
3.6266201e-05
4.0400229e-05
4.5287157e-05
5.1086145e-05
5.7994247e-05
6.625241e-05
7.6154897e-05
8.8744196e-05
0.00010319144
0.00012062905
0.00014170852
0.00016722981
0.00019814835
0.00023563509
0.00028109808
0.00033623939
0.00040311476
0.00048420469
0.00058250178
0.00070161707
0.00084591015
0.0010206502
0.0012167129
0.0012150891
0.001213332
0.0012114902
0.0012095502
0.0012074953
0.0012053052
0.001202953
0.0012004011
0.0011975914
0.0011944249
0.0011910638
0.0011881043
0.0011855057
0.0011832455
0.0011813094
0.0011797079
0.001178437
0.0011773639
0.0011767927
0.0011766103
0.0011748448
0.001178097
1.6495362e-06
1.4651339e-05
1.1945182e-05
1.1933501e-05
1.493149e-05
1.1848358e-05
1.4696694e-05
1.1643867e-05
1.2578752e-05
1.1123896e-05
1.1258823e-05
1.0676265e-05
1.0571382e-05
1.0369353e-05
1.0393055e-05
1.0435723e-05
1.0587013e-05
1.0790951e-05
1.106973e-05
1.141009e-05
1.1819631e-05
1.2298324e-05
1.2852935e-05
1.3489506e-05
1.4216574e-05
1.5045307e-05
1.59893e-05
1.7065055e-05
1.8292939e-05
1.9697998e-05
2.131067e-05
2.3166359e-05
2.5311471e-05
2.780171e-05
3.0705437e-05
3.4106574e-05
3.8108629e-05
4.2842896e-05
4.8464137e-05
5.5164793e-05
6.3180131e-05
7.2798006e-05
8.4372331e-05
9.8327487e-05
0.00011518395
0.00013669851
0.00016155793
0.00019167832
0.00022820482
0.00027251118
0.00032625867
0.00039145524
0.00047052578
0.0005663989
0.00068261291
0.0008234446
0.00099407026
0.0012007457
0.0012142305
0.0012124327
0.0012105559
0.0012085869
0.0012065102
0.001204307
0.0012019537
0.0011994189
0.0011966573
0.0011935966
0.0011903506
0.001187499
0.0011849997
0.0011828258
0.0011809631
0.0011794262
0.0011781908
0.0011771758
0.0011766976
0.0011763417
0.0011749639
0.0011778277
1.5372517e-06
1.3488381e-05
1.1161045e-05
1.0511774e-05
1.3690802e-05
1.0476913e-05
1.2720511e-05
1.0193282e-05
1.0801452e-05
9.6712587e-06
9.6166376e-06
9.1359446e-06
9.0832028e-06
8.9722501e-06
9.0258639e-06
9.1118707e-06
9.2844466e-06
9.508992e-06
9.7988553e-06
1.0146746e-05
1.0558412e-05
1.1035402e-05
1.1584181e-05
1.2211379e-05
1.2925178e-05
1.3736771e-05
1.465951e-05
1.570955e-05
1.6906742e-05
1.8275649e-05
1.9769792e-05
2.1562177e-05
2.3634077e-05
2.6039764e-05
2.8845949e-05
3.2134444e-05
3.6212484e-05
4.0830751e-05
4.6317512e-05
5.2861957e-05
6.0695107e-05
7.0098654e-05
8.142269e-05
9.5082237e-05
0.00011158889
0.00013156744
0.00015576885
0.00018670817
0.00022253024
0.00026598815
0.00031871279
0.00038267684
0.000460264
0.00055435559
0.00066843641
0.00080672415
0.0009743292
0.001177437
0.0012133229
0.0012114899
0.0012095832
0.0012075903
0.0012054966
0.0012032848
0.0012009337
0.0011984168
0.0011956983
0.0011927253
0.0011896044
0.0011868702
0.0011844788
0.0011823994
0.0011806189
0.0011791492
0.0011779516
0.0011770056
0.0011765799
0.0011760627
0.0011750842
0.0011776077
1.4417936e-06
1.221419e-05
1.042241e-05
9.2193381e-06
1.232984e-05
9.2217308e-06
1.0885134e-05
8.8735704e-06
9.2338056e-06
8.2229993e-06
8.1495796e-06
7.8265413e-06
7.8014778e-06
7.7617249e-06
7.8437298e-06
7.965045e-06
8.1573883e-06
8.3998984e-06
8.7007474e-06
9.0564109e-06
9.4717676e-06
9.9492823e-06
1.0495307e-05
1.1089961e-05
1.178831e-05
1.2581044e-05
1.348103e-05
1.4503861e-05
1.5668653e-05
1.6999053e-05
1.8523882e-05
2.0278534e-05
2.2306524e-05
2.4661438e-05
2.740927e-05
3.063134e-05
3.4427788e-05
3.8921938e-05
4.4265495e-05
5.0644796e-05
5.8287359e-05
6.798114e-05
7.9130463e-05
9.2584299e-05
0.00010884618
0.0001285358
0.00015239344
0.00018132482
0.00021839061
0.00026126682
0.00031328992
0.00037640828
0.00045297738
0.00054584617
0.00065846311
0.0007950075
0.00096054786
0.0011612271
0.0012123636
0.0012105014
0.0012085707
0.0012065598
0.0012044547
0.0012022395
0.0011998951
0.0011973985
0.0011947208
0.0011918225
0.0011888345
0.0011862246
0.0011839477
0.0011819701
0.0011802795
0.0011788788
0.0011777238
0.0011768488
0.0011764465
0.0011758293
0.0011751914
0.001177408
1.3629575e-06
1.0842765e-05
9.7210066e-06
8.0454645e-06
1.0891064e-05
8.0708676e-06
9.2259735e-06
7.6129195e-06
7.6538433e-06
6.9693889e-06
6.898847e-06
6.6962583e-06
6.7010356e-06
6.7172486e-06
6.826024e-06
6.9768035e-06
7.1876564e-06
7.4463914e-06
7.7583475e-06
8.1222889e-06
8.5225443e-06
8.9971682e-06
9.5379475e-06
1.0151481e-05
1.0846243e-05
1.1632593e-05
1.2523373e-05
1.3534048e-05
1.4683427e-05
1.5994955e-05
1.7497163e-05
1.9225107e-05
2.1221943e-05
2.3540847e-05
2.6247369e-05
2.9422285e-05
3.3165054e-05
3.7598102e-05
4.2872046e-05
4.9172261e-05
5.6726508e-05
6.5810148e-05
7.675985e-05
8.9982846e-05
0.00010685335
0.00012636559
0.00015001052
0.00017869128
0.00021348922
0.00025811457
0.00030971333
0.00037232013
0.00044827395
0.00054040468
0.00065213978
0.00078763848
0.00095194983
0.0011512002
0.0012113517
0.0012094669
0.0012075186
0.0012054958
0.0012033856
0.0012011729
0.0011988405
0.001196368
0.0011937312
0.0011908998
0.0011880502
0.0011855691
0.0011834109
0.0011815408
0.0011799455
0.0011786161
0.0011775114
0.0011767048
0.0011762995
0.0011756309
0.0011752717
0.0011772122
1.3019489e-06
9.3847736e-06
9.0334295e-06
6.9774235e-06
9.4164621e-06
6.9867441e-06
8.3899736e-06
6.4079194e-06
6.345052e-06
5.8891755e-06
5.8362954e-06
5.7240636e-06
5.7596553e-06
5.8210103e-06
5.9549285e-06
6.1311041e-06
6.3595413e-06
6.6334207e-06
6.9378468e-06
7.3061388e-06
7.7288534e-06
8.2097783e-06
8.7544446e-06
9.3697009e-06
1.00641e-05
1.0847976e-05
1.1734172e-05
1.273814e-05
1.3878352e-05
1.5178192e-05
1.6666035e-05
1.8376783e-05
2.0353462e-05
2.2649136e-05
2.532926e-05
2.8474523e-05
3.2184258e-05
3.6580576e-05
4.1813474e-05
4.8067456e-05
5.5571377e-05
6.4599351e-05
7.5488493e-05
8.8645425e-05
0.00010456497
0.00012384816
0.00014848922
0.00017705346
0.0002117161
0.00025378063
0.00030772544
0.00037010561
0.0004457883
0.00053759674
0.00064895018
0.00078400458
0.00094780921
0.0011464981
0.0012102883
0.0012083876
0.0012064284
0.0012044003
0.0012022913
0.0012000876
0.0011977733
0.00119533
0.0011927367
0.0011899688
0.0011872605
0.00118491
0.0011828723
0.001181113
0.0011796157
0.0011783596
0.0011773142
0.0011765712
0.0011761421
0.0011754549
0.0011753231
0.0011770158
1.264397e-06
7.8669899e-06
8.3229311e-06
6.0182616e-06
7.9780769e-06
6.7359913e-06
6.4762979e-06
5.3185431e-06
5.2668175e-06
4.9580974e-06
4.935439e-06
4.8938217e-06
4.9595184e-06
5.0585642e-06
5.2160528e-06
5.4146262e-06
5.6433653e-06
5.9274573e-06
6.2588191e-06
6.6387292e-06
7.0706416e-06
7.558862e-06
8.1091113e-06
8.7283905e-06
9.4253405e-06
1.0210181e-05
1.1095784e-05
1.2070821e-05
1.3199584e-05
1.4484683e-05
1.5954134e-05
1.764249e-05
1.9592452e-05
2.1856778e-05
2.4500663e-05
2.7604556e-05
3.126757e-05
3.5611484e-05
4.0785485e-05
4.7282755e-05
5.4770046e-05
6.3781487e-05
7.4656802e-05
8.7802259e-05
0.0001037124
0.00012298897
0.0001463615
0.00017626076
0.00021092191
0.00025299021
0.00030403882
0.00036946223
0.00044515943
0.00053699305
0.00064838375
0.00078349886
0.00094740535
0.0011462658
0.0012091768
0.0012072671
0.0012053036
0.0012032767
0.0012011755
0.0011989872
0.0011966975
0.0011942895
0.0011917442
0.0011890405
0.0011864741
0.0011842534
0.0011823353
0.001180687
0.0011792877
0.0011781071
0.001177129
0.0011764423
0.0011759782
0.0011753045
0.0011753565
0.0011767998
1.2532917e-06
7.3502482e-06
7.597292e-06
6.2845897e-06
7.6441867e-06
5.0476549e-06
5.0676849e-06
4.4107154e-06
4.3617054e-06
4.1738789e-06
4.178623e-06
4.1940199e-06
4.2876847e-06
4.4182306e-06
4.5848501e-06
4.7983737e-06
5.056096e-06
5.356287e-06
5.7008361e-06
6.0919881e-06
6.5335068e-06
7.0300433e-06
7.5874545e-06
8.2127972e-06
8.901018e-06
9.6854076e-06
1.0568426e-05
1.1565159e-05
1.2694099e-05
1.3977991e-05
1.5444901e-05
1.7129504e-05
1.9074713e-05
2.1333608e-05
2.397184e-05
2.7070456e-05
3.0729361e-05
3.5071409e-05
4.0247313e-05
4.644155e-05
5.3879389e-05
6.3294909e-05
7.4194185e-05
8.7373739e-05
0.00010332839
0.00012266168
0.00014610554
0.00017454737
0.00021092307
0.00025312458
0.00030433334
0.00036647353
0.00044601285
0.00053814769
0.00064990911
0.0007854881
0.00094998422
0.0011496057
0.0012080227
0.0012061108
0.0012041495
0.0012021301
0.0012000427
0.0011978761
0.0011956173
0.0011932512
0.0011907602
0.0011881246
0.0011856984
0.0011836045
0.0011818027
0.001180262
0.0011789574
0.0011778539
0.0011769464
0.0011763057
0.0011758121
0.0011751876
0.0011753503
0.0011765504
1.2644007e-06
7.5425352e-06
6.8120099e-06
6.7364146e-06
6.6409032e-06
4.0339296e-06
4.1121664e-06
3.6458264e-06
3.6107456e-06
3.5171413e-06
3.5504932e-06
3.6112457e-06
3.7311379e-06
3.875289e-06
4.0701151e-06
4.3044179e-06
4.5788116e-06
4.893357e-06
5.2503412e-06
5.6526468e-06
6.1042871e-06
6.6101307e-06
7.1678068e-06
7.7980778e-06
8.5035932e-06
9.2944788e-06
1.0183052e-05
1.118437e-05
1.2316928e-05
1.3603531e-05
1.507238e-05
1.6758394e-05
1.8704828e-05
2.0965253e-05
2.3605944e-05
2.6708754e-05
3.0374559e-05
3.4727388e-05
3.9919311e-05
4.6136342e-05
5.3605922e-05
6.2605474e-05
7.4026234e-05
8.7273616e-05
0.00010331265
0.0001227497
0.00014631993
0.00017491445
0.00021152133
0.0002539496
0.00030543007
0.00036789662
0.00044794199
0.0005405751
0.00065294675
0.00078928023
0.00095471891
0.0011555296
0.0012068333
0.0012049258
0.0012029727
0.0012009665
0.0011988985
0.0011967589
0.0011945367
0.0011922186
0.0011897889
0.0011872284
0.0011849392
0.0011829677
0.0011812764
0.0011798369
0.0011786214
0.0011775939
0.0011767558
0.0011761556
0.0011756565
0.0011750885
0.0011752811
0.0011762479
1.0192918e-06
8.071525e-06
5.9052816e-06
4.2284069e-06
4.2732122e-06
3.3479568e-06
3.2849314e-06
3.0272578e-06
2.9995013e-06
2.9760449e-06
3.0375087e-06
3.1337596e-06
3.26616e-06
3.4418214e-06
3.6571174e-06
3.9088622e-06
4.1980173e-06
4.5257766e-06
4.8947882e-06
5.3083368e-06
5.7705985e-06
6.2806403e-06
6.8540642e-06
7.4937554e-06
8.2080533e-06
9.0070394e-06
9.902988e-06
1.0910946e-05
1.204945e-05
1.3341421e-05
1.4815264e-05
1.6506226e-05
1.8458016e-05
2.0724802e-05
2.3373614e-05
2.6487224e-05
3.0167641e-05
3.4540258e-05
3.975871e-05
4.601035e-05
5.3524301e-05
6.3045311e-05
7.4071955e-05
8.7407411e-05
0.00010355467
0.00012312374
0.000146854
0.00017564156
0.00021249419
0.00025520159
0.00030701734
0.00036988774
0.00045048752
0.00054372654
0.00065684027
0.0007940898
0.00096066881
0.0011629104
0.0012056177
0.0012037205
0.0012017815
0.0011997937
0.0011977497
0.0011956413
0.0011934592
0.0011911932
0.0011888308
0.0011863574
0.0011841999
0.0011823453
0.0011807584
0.001179412
0.0011782771
0.0011773206
0.0011765496
0.0011759895
0.0011754867
0.0011749391
0.0011751406
0.00117588
7.9931702e-07
5.9251239e-06
4.6074956e-06
3.2465047e-06
3.3122673e-06
2.7138097e-06
2.6471659e-06
2.502472e-06
2.5050437e-06
2.5317639e-06
2.6220186e-06
2.7395569e-06
2.9012581e-06
3.0986891e-06
3.3314036e-06
3.5983482e-06
3.9009705e-06
4.2411978e-06
4.6219521e-06
5.0467548e-06
5.5164014e-06
6.0413908e-06
6.6252444e-06
7.2748885e-06
7.9986075e-06
8.806431e-06
9.7106038e-06
1.0726181e-05
1.1871772e-05
1.3170455e-05
1.4650897e-05
1.6348717e-05
1.8308138e-05
2.0583979e-05
2.3244055e-05
2.637207e-05
3.0071148e-05
3.4468113e-05
3.9718759e-05
4.6011496e-05
5.3947617e-05
6.3141033e-05
7.4243585e-05
8.7672336e-05
0.00010393345
0.00012364075
0.00014753827
0.00017652721
0.00021359351
0.00025658483
0.00030874226
0.00037202522
0.000453132
0.00054698264
0.00066084738
0.00079902617
0.00096676422
0.001170462
0.0012043861
0.0012025053
0.0012005858
0.0011986213
0.0011966054
0.0011945308
0.0011923901
0.0011901751
0.001187877
0.0011855144
0.0011834813
0.0011817372
0.0011802485
0.0011789878
0.001177925
0.0011770324
0.0011763202
0.0011757914
0.0011752944
0.0011747965
0.0011749647
0.0011754723
6.2458161e-07
3.3502896e-06
3.6609293e-06
2.6378825e-06
2.5587763e-06
2.1943561e-06
2.1451785e-06
2.0800163e-06
2.112678e-06
2.1788327e-06
2.2944838e-06
2.4368477e-06
2.6194385e-06
2.8345106e-06
3.0820497e-06
3.3623834e-06
3.6773583e-06
4.0293367e-06
4.4213888e-06
4.8571285e-06
5.3408183e-06
5.8742864e-06
6.4683843e-06
7.1278257e-06
7.8608371e-06
8.6774028e-06
9.5897518e-06
1.0612969e-05
1.1765756e-05
1.3071366e-05
1.455874e-05
1.6263889e-05
1.8231549e-05
2.0517188e-05
2.3189377e-05
2.6332654e-05
3.0050926e-05
3.4660866e-05
3.9982679e-05
4.6362351e-05
5.4033872e-05
6.3281841e-05
7.4451827e-05
8.7962765e-05
0.00010432331
0.00012415048
0.00014819314
0.00017891348
0.00021454885
0.00025777481
0.00031021497
0.00037384062
0.00045529546
0.00054964611
0.00066412909
0.00080307876
0.00097178636
0.0011767127
0.0012031501
0.0012012914
0.0011993969
0.0011974607
0.0011954771
0.0011934397
0.0011913418
0.0011891761
0.0011869351
0.0011847006
0.0011827817
0.0011811394
0.0011797413
0.0011785593
0.0011775633
0.0011767306
0.0011760694
0.0011755644
0.0011750852
0.0011746535
0.0011747814
0.001175102
5.0526787e-07
2.6021081e-06
2.8000944e-06
2.0846482e-06
1.9943983e-06
1.7824946e-06
1.7554014e-06
1.7471607e-06
1.8081449e-06
1.9056822e-06
2.0436765e-06
2.2089017e-06
2.4086352e-06
2.6385038e-06
2.8990398e-06
3.1913947e-06
3.5176796e-06
3.8804804e-06
4.2829287e-06
4.7286588e-06
5.2218985e-06
5.7675706e-06
6.3714608e-06
7.0404473e-06
7.7828085e-06
8.6086179e-06
9.5302438e-06
1.0562975e-05
1.1725797e-05
1.3042335e-05
1.4542012e-05
1.6261433e-05
1.8246071e-05
2.0552274e-05
2.324967e-05
2.6424067e-05
3.0180862e-05
3.4649303e-05
3.9987406e-05
4.6388009e-05
5.4086019e-05
6.3367235e-05
7.4579083e-05
8.8140614e-05
0.00010456112
0.0001255095
0.00014981186
0.00017927731
0.0002150117
0.000258356
0.00031093866
0.0003782769
0.00045624702
0.00055084413
0.0006656423
0.00080499962
0.00097424013
0.0011798683
0.0012019207
0.0012000896
0.0011982253
0.0011963227
0.0011943763
0.0011923807
0.0011903299
0.0011882177
0.0011860374
0.0011839162
0.0011820985
0.0011805463
0.0011792282
0.0011781157
0.0011771795
0.0011764012
0.0011757839
0.0011752993
0.0011748444
0.0011744742
0.0011745546
0.0011747177
3.8750939e-07
2.0222233e-06
2.1022868e-06
1.6552395e-06
1.5629545e-06
1.4526721e-06
1.4501317e-06
1.484195e-06
1.570817e-06
1.6933213e-06
1.8498412e-06
2.0338926e-06
2.246963e-06
2.488475e-06
2.7594127e-06
3.061398e-06
3.3966949e-06
3.7680004e-06
4.1784659e-06
4.6317197e-06
5.1319603e-06
5.6840759e-06
6.2938e-06
6.9679395e-06
7.7146958e-06
8.544071e-06
9.4683733e-06
1.0502854e-05
1.1666486e-05
1.2982919e-05
1.4481636e-05
1.6199343e-05
1.8181644e-05
2.0485054e-05
2.3179433e-05
2.6350932e-05
3.0104993e-05
3.4570979e-05
3.9906926e-05
4.6305495e-05
5.4001054e-05
6.37457e-05
7.5038913e-05
8.8694533e-05
0.00010522358
0.0001252458
0.00014951251
0.00017893489
0.00021461852
0.0002579013
0.00031324044
0.00037739892
0.00045523334
0.00054968049
0.00066431812
0.00080351127
0.0009725949
0.0011780902
0.0012007108
0.0011989121
0.0011970826
0.0011952176
0.0011933124
0.0011913621
0.0011893614
0.001187305
0.0011851872
0.0011831622
0.00118143
0.0011799542
0.0011787036
0.0011776495
0.0011767645
0.0011760325
0.0011754504
0.0011749834
0.0011745568
0.0011742385
0.0011742707
0.0011743142
2.4385196e-07
1.6074827e-06
1.528461e-06
1.3245191e-06
1.2413978e-06
1.199598e-06
1.2246436e-06
1.2931734e-06
1.4042577e-06
1.5483229e-06
1.7215154e-06
1.9211032e-06
2.1468123e-06
2.3994024e-06
2.6803878e-06
2.9910787e-06
3.3349873e-06
3.7143674e-06
4.1323702e-06
4.5926236e-06
5.099337e-06
5.6574122e-06
6.2725414e-06
6.9514317e-06
7.7021986e-06
8.5347592e-06
9.4613352e-06
1.0497101e-05
1.1660954e-05
1.297648e-05
1.4473089e-05
1.6187404e-05
1.8164899e-05
2.0461883e-05
2.3235944e-05
2.6418322e-05
3.018484e-05
3.4664974e-05
4.0016791e-05
4.6432926e-05
5.414767e-05
6.3445659e-05
7.4672412e-05
8.8247161e-05
0.0001046765
0.00012457551
0.00014868979
0.00017951218
0.00021522275
0.00025852287
0.0003110367
0.00037473798
0.00045202748
0.00054582815
0.00065970264
0.00079799934
0.00096603528
0.0011703115
0.0011995291
0.0011977669
0.0011959759
0.001194152
0.0011922909
0.0011903883
0.0011884395
0.0011864398
0.0011843842
0.0011824355
0.0011807713
0.001179356
0.0011781586
0.0011771505
0.0011763062
0.0011756109
0.001175055
0.0011746022
0.0011742024
0.0011739217
0.0011739032
0.0011738564
3.4866991e-07
1.2872694e-06
1.124654e-06
1.058578e-06
1.0139734e-06
1.0124854e-06
1.0609361e-06
1.1521089e-06
1.2786707e-06
1.4341525e-06
1.6150492e-06
1.8201671e-06
2.0498033e-06
2.3051063e-06
2.5877591e-06
2.8998384e-06
3.2437512e-06
3.6222951e-06
4.038674e-06
4.4965654e-06
5.0001736e-06
5.5542779e-06
6.1641967e-06
6.8362878e-06
7.5787692e-06
8.4015047e-06
9.3166468e-06
1.0339248e-05
1.148805e-05
1.2786427e-05
1.4263528e-05
1.5955641e-05
1.7907839e-05
2.0175946e-05
2.2828799e-05
2.5950776e-05
2.9645454e-05
3.4039963e-05
3.9289475e-05
4.5582969e-05
5.3150347e-05
6.22708e-05
7.385233e-05
8.7271125e-05
0.00010350907
0.00012317395
0.00014700289
0.00017589024
0.00021092148
0.00025341488
0.00030497236
0.00036754218
0.00044349562
0.00053572161
0.00064774344
0.00078386403
0.0009493468
0.0011506302
0.001198368
0.0011966479
0.0011949005
0.0011931222
0.001191309
0.0011894572
0.0011875628
0.0011856218
0.0011836299
0.0011817352
0.0011801193
0.0011787467
0.0011775865
0.0011766102
0.0011757942
0.0011751233
0.0011745829
0.0011741386
0.0011737605
0.0011735102