/*--------------------------------*- C++ -*----------------------------------*\
  =========                 |
  \\      /  F ield         | OpenFOAM: The Open Source CFD Toolbox
   \\    /   O peration     | Website:  https://openfoam.org
    \\  /    A nd           | Version:  6
     \\/     M anipulation  |
\*---------------------------------------------------------------------------*/
FoamFile
{
    version     2.0;
    format      ascii;
    class       volScalarField;
    location    "900";
    object      k;
}
// * * * * * * * * * * * * * * * * * * * * * * * * * * * * * * * * * * * * * //

dimensions      [0 2 -2 0 0 0 0];

internalField   nonuniform List<scalar> 
16000
(
0.1268838
0.03181783
0.021287774
0.017655102
0.015204011
0.014342667
0.01332386
0.012992964
0.01252238
0.012306026
0.012051623
0.011886637
0.011725408
0.011599205
0.011486756
0.011392958
0.011314498
0.011248438
0.011192163
0.011143889
0.011102142
0.011065813
0.011033996
0.01100598
0.010981183
0.010959134
0.010939441
0.010921781
0.010905878
0.010891502
0.010878458
0.010866575
0.010855706
0.01084572
0.010836499
0.010827937
0.010819936
0.010812402
0.01080525
0.010798396
0.010791763
0.010785274
0.010778857
0.01077244
0.010765954
0.010759329
0.010752496
0.010745388
0.010737933
0.010730063
0.010721706
0.010712788
0.010703233
0.010692959
0.010681869
0.010669841
0.010656711
0.010642272
0.010626219
0.010607881
0.01058499
0.010558279
0.010526566
0.010488528
0.010443258
0.010391218
0.010334657
0.010278964
0.010227656
0.010183944
0.010144152
0.010114564
0.01008329
0.010066221
0.010041799
0.010054179
0.010033557
0.010121404
0.010036851
0.010121973
0.10737537
0.032324935
0.020781293
0.017533308
0.015017593
0.014264447
0.013225212
0.01292568
0.012451072
0.012240997
0.011988487
0.011824006
0.011665683
0.011539328
0.011432552
0.011344872
0.011271521
0.011209771
0.011157169
0.011112048
0.011073028
0.011039069
0.011009322
0.010983118
0.010959913
0.010939263
0.0109208
0.010904218
0.01088926
0.010875707
0.010863374
0.010852101
0.010841749
0.010832194
0.010823326
0.010815043
0.010807254
0.010799872
0.010792815
0.010786006
0.010779371
0.01077284
0.010766345
0.010759818
0.010753195
0.010746411
0.010739401
0.010732102
0.010724446
0.010716369
0.010707801
0.010698672
0.010688906
0.010678424
0.010667137
0.010654932
0.010641662
0.010627144
0.010611163
0.010593437
0.010573416
0.010549393
0.010520286
0.010484682
0.010441517
0.010390811
0.010334683
0.010278423
0.010226815
0.010182208
0.010142812
0.010111729
0.010082614
0.010065792
0.010041363
0.010046673
0.010029089
0.010107294
0.010035007
0.010120555
0.092838775
0.032778652
0.020256458
0.017387487
0.014825308
0.014170345
0.013122601
0.012847934
0.012376421
0.012168807
0.011921992
0.011756198
0.011602773
0.011481292
0.011381694
0.011299913
0.011231498
0.011173911
0.01112486
0.011082784
0.011046396
0.011014722
0.010986969
0.010962509
0.01094083
0.010921517
0.010904225
0.010888666
0.010874597
0.010861812
0.010850136
0.010839419
0.010829529
0.010820351
0.010811779
0.010803721
0.010796087
0.010788799
0.010781779
0.010774955
0.01076826
0.010761626
0.010754992
0.010748295
0.010741474
0.01073447
0.010727223
0.010719673
0.010711757
0.010703413
0.010694576
0.010685178
0.010675146
0.010664403
0.010652861
0.01064042
0.010626942
0.010612255
0.010596161
0.010578436
0.010558782
0.010536663
0.010510717
0.01047807
0.010437508
0.010388676
0.010333345
0.010276875
0.010225003
0.010179967
0.010140725
0.010108925
0.010080912
0.010064394
0.01004092
0.010041801
0.010026491
0.010095301
0.010032879
0.010110474
0.083302186
0.032964419
0.019733634
0.017217806
0.014631645
0.014058758
0.013018717
0.012758127
0.012299139
0.012088331
0.011852053
0.011682614
0.011539878
0.01142684
0.011334163
0.011258062
0.011194407
0.01114083
0.0110952
0.011056056
0.011022201
0.010992723
0.010966881
0.010944087
0.010923862
0.010905818
0.01088963
0.010875028
0.010861783
0.010849704
0.010838623
0.010828401
0.010818912
0.010810049
0.010801713
0.010793817
0.010786278
0.010779023
0.01077198
0.010765083
0.010758268
0.010751475
0.010744645
0.010737721
0.010730649
0.010723372
0.010715835
0.010707983
0.010699756
0.010691097
0.010681943
0.010672229
0.010661886
0.010650838
0.010639
0.010626275
0.01061254
0.01059763
0.010581354
0.010563504
0.010543829
0.01052196
0.010497246
0.010468173
0.010430819
0.010384479
0.01033044
0.010274104
0.010222143
0.010176959
0.010137911
0.010105742
0.010078554
0.01006067
0.010040323
0.010039356
0.010024477
0.010082313
0.010031071
0.010103724
0.074943407
0.032771129
0.019223755
0.017022507
0.014437914
0.013928781
0.012913933
0.012655708
0.012219138
0.011999262
0.011778528
0.011613485
0.011481026
0.011376079
0.011290061
0.011219419
0.011160347
0.011110628
0.011068288
0.011031962
0.011000536
0.01097316
0.010949142
0.010927933
0.010909085
0.010892234
0.010877077
0.010863361
0.010850871
0.010839426
0.010828871
0.010819072
0.010809915
0.010801296
0.010793126
0.010785322
0.010777809
0.010770519
0.010763385
0.010756348
0.010749348
0.010742331
0.010735243
0.010728034
0.010720651
0.010713044
0.010705162
0.010696954
0.010688366
0.010679342
0.010669823
0.010659748
0.010649049
0.010637652
0.010625476
0.010612427
0.010598388
0.010583208
0.0105667
0.010548666
0.010528874
0.01050701
0.01048259
0.010454716
0.010421235
0.010378071
0.010325898
0.010270062
0.010218223
0.010173154
0.010134382
0.010102169
0.010075641
0.01005695
0.010039138
0.01003679
0.010022959
0.010070509
0.010029374
0.010093187
0.067615546
0.03204045
0.018738807
0.016799743
0.01424584
0.013779177
0.012808865
0.012539867
0.012136286
0.011905865
0.011701752
0.011548896
0.011426294
0.011329089
0.011249462
0.011184057
0.011129383
0.011083363
0.011044177
0.011010547
0.01098144
0.010956065
0.010933777
0.010914063
0.010896506
0.010880765
0.010866556
0.010853644
0.010841828
0.010830937
0.010820826
0.010811371
0.010802465
0.010794013
0.010785929
0.010778141
0.010770578
0.010763178
0.010755881
0.010748633
0.010741381
0.010734075
0.010726668
0.010719112
0.010711362
0.010703371
0.010695094
0.010686482
0.010677485
0.010668052
0.010658126
0.010647649
0.010636555
0.010624774
0.010612225
0.010598817
0.01058444
0.010568951
0.010552172
0.01053391
0.010513948
0.010492003
0.010467669
0.010440289
0.010408579
0.010369356
0.010319711
0.010264767
0.010213278
0.010168558
0.010130188
0.010098184
0.010072229
0.010053117
0.010037285
0.010033843
0.010021678
0.010060849
0.010027922
0.010085493
0.061194107
0.030965918
0.018282103
0.016547103
0.014057347
0.01360891
0.012704062
0.012410099
0.012049933
0.011818475
0.011630224
0.011488953
0.011375773
0.011285965
0.011212457
0.011152064
0.011101599
0.011059116
0.011022941
0.010991879
0.010964975
0.010941491
0.01092083
0.010902513
0.010886151
0.010871425
0.010858073
0.010845872
0.010834637
0.010824208
0.010814451
0.010805249
0.010796504
0.010788128
0.010780044
0.010772185
0.010764489
0.010756898
0.010749361
0.010741829
0.010734254
0.010726592
0.010718802
0.010710841
0.010702668
0.010694242
0.010685521
0.01067646
0.010667012
0.01065713
0.010646761
0.010635846
0.010624325
0.010612128
0.010599177
0.010585382
0.010570637
0.010554809
0.010537728
0.010519206
0.010499036
0.010476958
0.010452614
0.010425466
0.0103946
0.010358184
0.010311841
0.010258222
0.010207324
0.010163179
0.01012536
0.010093775
0.01006836
0.010049203
0.010034814
0.010029686
0.010020434
0.010052556
0.010026405
0.010077197
0.055566507
0.029924683
0.017837209
0.01626322
0.01387422
0.013417624
0.012599855
0.012281584
0.011958176
0.011737154
0.011563994
0.01143373
0.011329538
0.011246788
0.011179122
0.011123516
0.011077066
0.011037954
0.01100464
0.01097601
0.010951184
0.010929474
0.010910327
0.010893296
0.010878021
0.010864204
0.010851601
0.010840006
0.010829246
0.010819175
0.010809666
0.010800614
0.010791929
0.010783531
0.010775351
0.010767328
0.010759409
0.010751543
0.010743685
0.010735792
0.010727824
0.010719741
0.010711507
0.010703085
0.010694438
0.01068553
0.010676322
0.010666772
0.010656839
0.010646475
0.010635631
0.010624252
0.010612278
0.010599641
0.010586264
0.010572061
0.010556928
0.01054074
0.010523334
0.010504527
0.010484125
0.010461881
0.010437474
0.010410439
0.010380046
0.010344965
0.010302291
0.010250485
0.010200417
0.010157063
0.010119963
0.010088979
0.010064118
0.010045196
0.010031911
0.010025503
0.010019071
0.010044673
0.010024654
0.010069607
0.050626955
0.028966786
0.017405504
0.015947834
0.013697654
0.013205074
0.012494734
0.012161229
0.011865348
0.011661984
0.011503133
0.011383321
0.011287678
0.01121165
0.011149547
0.011098497
0.011055864
0.011019947
0.010989335
0.010962994
0.010940108
0.010920041
0.010902281
0.010886413
0.010872101
0.010859071
0.010847095
0.010835985
0.01082558
0.010815746
0.010806368
0.010797351
0.010788613
0.010780083
0.010771702
0.010763417
0.010755181
0.010746953
0.010738691
0.010730363
0.010721932
0.010713365
0.010704631
0.010695698
0.010686532
0.010677101
0.01066737
0.010657301
0.010646853
0.010635984
0.010624643
0.010612779
0.010600333
0.010587239
0.010573423
0.010558798
0.010543264
0.010526701
0.010508956
0.010489851
0.010469199
0.010446771
0.010422271
0.010395291
0.010365227
0.010331082
0.010291057
0.010241626
0.010192624
0.010150269
0.010114063
0.010083842
0.010059594
0.010041128
0.01002868
0.010021607
0.010017557
0.010037308
0.010022754
0.010061841
0.046283223
0.028071511
0.016988382
0.015599704
0.013528553
0.013003236
0.012386064
0.012049801
0.011779777
0.01159304
0.011447716
0.011337818
0.011250285
0.011180645
0.01112382
0.011077092
0.011038068
0.011005161
0.010977082
0.010952869
0.010931772
0.010913201
0.010896683
0.010881835
0.010868344
0.01085596
0.010844471
0.010833705
0.010823518
0.010813786
0.010804408
0.010795297
0.010786383
0.010777607
0.010768915
0.010760264
0.010751616
0.010742937
0.010734194
0.010725358
0.010716401
0.010707294
0.01069801
0.010688523
0.010678801
0.010668817
0.010658536
0.010647925
0.010636944
0.010625552
0.010613702
0.010601342
0.010588414
0.010574855
0.010560592
0.010545539
0.0105296
0.010512657
0.010494567
0.010475159
0.010454252
0.010431631
0.010407024
0.010380067
0.010350243
0.010316738
0.010278137
0.010231755
0.010184042
0.010142882
0.010107742
0.010078429
0.010054883
0.010037027
0.010025229
0.010017997
0.010015891
0.010030635
0.010020778
0.01005404
0.042455594
0.027217939
0.016587353
0.015217486
0.013365538
0.012814795
0.012270584
0.011947274
0.011701459
0.01153039
0.011397819
0.011297317
0.011217455
0.011153869
0.011102031
0.01105938
0.011023746
0.010993651
0.010967917
0.010945657
0.010926177
0.010908933
0.010893491
0.010879496
0.010866663
0.01085476
0.010843598
0.010833018
0.010822891
0.010813111
0.010803587
0.010794245
0.010785026
0.01077588
0.010766765
0.010757646
0.010748493
0.01073928
0.010729982
0.010720575
0.010711037
0.010701343
0.010691472
0.010681398
0.010671096
0.010660537
0.010649692
0.010638526
0.010627004
0.010615083
0.010602719
0.010589861
0.010576452
0.010562429
0.010547719
0.010532241
0.010515899
0.010498581
0.010480149
0.01046044
0.010439282
0.010416471
0.010391754
0.010364807
0.010335187
0.010302229
0.010264834
0.010221004
0.010174785
0.010135001
0.010101092
0.01007282
0.010050081
0.010032944
0.010021669
0.010014649
0.010014096
0.010024888
0.010018943
0.010047168
0.039074783
0.026384266
0.016204229
0.014799981
0.013206449
0.0126405
0.012149099
0.011853617
0.011630403
0.011474106
0.011353528
0.011261916
0.011189286
0.011131415
0.011084264
0.011045433
0.011012953
0.010985453
0.010961854
0.010941344
0.010923283
0.010907171
0.010892609
0.010879276
0.010866909
0.010855301
0.01084428
0.010833708
0.01082347
0.010813477
0.010803652
0.010793933
0.010784275
0.010774638
0.010764991
0.010755306
0.010745564
0.010735745
0.01072583
0.010715801
0.010705639
0.010695326
0.010684841
0.010674163
0.010663267
0.010652126
0.010640713
0.010628993
0.010616932
0.010604488
0.010591617
0.010578268
0.010564386
0.010549907
0.010534762
0.010518869
0.010502135
0.010484452
0.01046569
0.010445693
0.010424295
0.010401305
0.010376488
0.010349553
0.010320116
0.010287634
0.01025126
0.010209534
0.010164989
0.010126744
0.010094213
0.010067103
0.010045283
0.010028932
0.010018114
0.010011533
0.010012154
0.010020156
0.010017198
0.010041383
0.036080028
0.025546937
0.015840873
0.014416171
0.013047984
0.012481189
0.012038359
0.011768781
0.01156662
0.011424251
0.011314927
0.011231707
0.011165869
0.011113367
0.011070587
0.011035299
0.011005714
0.010980564
0.010958866
0.010939871
0.010922999
0.010907789
0.010893881
0.010880985
0.010868865
0.010857337
0.010846251
0.010835489
0.010824955
0.010814575
0.010804289
0.010794049
0.010783822
0.01077358
0.0107633
0.010752966
0.010742563
0.010732079
0.010721501
0.010710815
0.010700005
0.010689057
0.01067795
0.010666664
0.010655177
0.010643461
0.010631489
0.010619228
0.010606642
0.010593691
0.010580329
0.010566506
0.010552168
0.010537252
0.010521688
0.010505399
0.010488292
0.010470264
0.010451191
0.010430924
0.010409308
0.010386159
0.010361261
0.01033435
0.010305092
0.010273039
0.010237536
0.010197529
0.010154809
0.010118241
0.010087214
0.010061373
0.010040578
0.010025048
0.010014657
0.010008625
0.010009989
0.01001622
0.010015579
0.010036399
0.03341948
0.024681278
0.015496464
0.014066469
0.012885427
0.012336427
0.011938161
0.011692743
0.011510157
0.011380908
0.011282114
0.011206788
0.011147292
0.011099793
0.011061056
0.011029004
0.011002019
0.010978935
0.010958858
0.010941103
0.010925145
0.010910568
0.01089705
0.010884332
0.01087221
0.010860525
0.010849151
0.01083799
0.010826968
0.010816027
0.010805125
0.010794229
0.010783316
0.01077237
0.010761377
0.010750329
0.010739216
0.010728032
0.010716767
0.01070541
0.010693948
0.010682365
0.010670645
0.010658766
0.010646705
0.010634436
0.010621929
0.010609151
0.010596066
0.010582633
0.010568806
0.010554536
0.010539768
0.01052444
0.010508484
0.010491822
0.010474368
0.010456021
0.010436663
0.010416154
0.010394347
0.010371069
0.010346119
0.010319256
0.010290186
0.010258534
0.01022379
0.010185192
0.010144415
0.010109631
0.010080206
0.010055728
0.010036051
0.010021358
0.010011389
0.010005951
0.010007579
0.010011915
0.01001401
0.010032237
0.031048171
0.023759773
0.015169768
0.013749144
0.012712085
0.012205765
0.011848327
0.01162548
0.011461062
0.011344151
0.011255175
0.011187235
0.011133631
0.011090743
0.011055673
0.011026505
0.011001776
0.010980421
0.010961632
0.01094479
0.010929426
0.010915169
0.010901737
0.01088891
0.010876514
0.010864418
0.010852524
0.010840756
0.01082906
0.010817397
0.010805741
0.010794074
0.010782383
0.010770661
0.010758902
0.010747104
0.01073526
0.010723366
0.010711415
0.010699397
0.0106873
0.010675108
0.010662802
0.01065036
0.010637759
0.01062497
0.010611964
0.010598705
0.010585157
0.010571277
0.01055702
0.010542337
0.010527172
0.010511465
0.010495148
0.010478147
0.010460378
0.010441743
0.010422133
0.010401416
0.010379452
0.010356081
0.010331116
0.010304336
0.010275477
0.010244222
0.010210161
0.010172738
0.010133988
0.01010106
0.010073303
0.010050263
0.010031782
0.010017937
0.01000841
0.010003527
0.010005141
0.010008156
0.010012341
0.010028593
0.028927582
0.02275248
0.014858778
0.013463508
0.012546306
0.012088763
0.011768709
0.011566964
0.011419388
0.011314035
0.011234196
0.011173118
0.011124909
0.011086183
0.011054348
0.011027646
0.011004765
0.010984737
0.010966843
0.010950531
0.01093539
0.010921099
0.010907422
0.010894175
0.010881222
0.010868463
0.010855826
0.010843258
0.010830727
0.01081821
0.010805696
0.010793178
0.010780653
0.010768119
0.010755577
0.010743024
0.010730459
0.010717876
0.010705268
0.010692624
0.010679932
0.010667173
0.010654327
0.01064137
0.010628275
0.010615014
0.010601554
0.01058786
0.010573893
0.01055961
0.010544966
0.01052991
0.010514388
0.010498341
0.010481701
0.010464398
0.01044635
0.010427467
0.010407642
0.010386754
0.010364674
0.010341253
0.010316317
0.010289662
0.010261053
0.010230209
0.010196795
0.010160388
0.01012371
0.010092672
0.010066617
0.010045063
0.010027826
0.010014848
0.010005815
0.010001394
0.010002704
0.010004809
0.010010398
0.010025282
0.027025482
0.02162743
0.014560318
0.013208206
0.012397927
0.01198514
0.011699243
0.011517113
0.011385138
0.011290631
0.011219221
0.011164424
0.011121048
0.011085961
0.011056848
0.011032114
0.011010591
0.010991415
0.010973956
0.010957735
0.010942404
0.0109277
0.010913431
0.010899457
0.010885677
0.010872024
0.010858452
0.010844931
0.010831446
0.010817989
0.01080456
0.010791159
0.010777789
0.010764451
0.010751147
0.010737876
0.010724632
0.010711411
0.010698201
0.01068499
0.010671762
0.010658496
0.01064517
0.010631757
0.010618227
0.01060455
0.010590692
0.010576615
0.010562281
0.010547645
0.01053266
0.010517278
0.010501445
0.0104851
0.010468182
0.010450619
0.010432334
0.010413243
0.010393245
0.010372231
0.010350079
0.010326652
0.010301793
0.010275315
0.010247003
0.010216607
0.010183839
0.01014836
0.010113763
0.010084611
0.010060252
0.010040201
0.010024223
0.010012125
0.010003654
0.0099996179
0.010000407
0.010001806
0.010008267
0.010022251
0.025315956
0.020352066
0.014267473
0.012981582
0.012266266
0.011894595
0.011639959
0.011476011
0.011358443
0.011273992
0.011210227
0.011161029
0.01112182
0.011089737
0.011062725
0.011039359
0.011018614
0.010999739
0.010982197
0.010965594
0.010949645
0.010934146
0.010918956
0.010903976
0.010889144
0.010874418
0.010859778
0.010845213
0.010830718
0.010816297
0.010801955
0.010787694
0.01077352
0.010759432
0.01074543
0.01073151
0.010717664
0.010703881
0.010690148
0.010676447
0.010662759
0.010649061
0.010635327
0.010621526
0.010607628
0.0105936
0.010579404
0.010565004
0.010550358
0.010535422
0.01052015
0.010504492
0.010488395
0.010471802
0.01045465
0.010436873
0.010418398
0.010399143
0.010379019
0.010357922
0.010335744
0.010312361
0.010287629
0.010261382
0.010233424
0.010203528
0.010171436
0.010136859
0.01010432
0.01007701
0.010054307
0.010035733
0.010020994
0.010009784
0.01000194
0.0099982226
0.0099983976
0.0099992857
0.010006294
0.010019292
0.023779946
0.019099749
0.013967178
0.012782094
0.012150503
0.011816628
0.011590177
0.011443658
0.011339312
0.011264004
0.011206983
0.011162561
0.011126711
0.01109686
0.011071206
0.011048503
0.011027877
0.011008704
0.010990542
0.010973082
0.01095611
0.010939481
0.010923101
0.010906911
0.01089088
0.010874988
0.010859232
0.01084361
0.010828128
0.01081279
0.0107976
0.010782561
0.010767672
0.010752931
0.010738331
0.010723863
0.010709514
0.010695268
0.010681107
0.010667009
0.01065295
0.010638903
0.010624839
0.010610726
0.010596532
0.010582219
0.010567751
0.010553088
0.010538189
0.010523011
0.010507506
0.010491625
0.010475316
0.010458524
0.010441189
0.010423247
0.01040463
0.010385261
0.010365057
0.010343925
0.010321767
0.010298474
0.010273919
0.010247955
0.010220409
0.010191076
0.010159719
0.01012607
0.010095533
0.010069996
0.01004887
0.010031702
0.010018144
0.010007817
0.010000621
0.0099971475
0.0099967724
0.0099974066
0.01000433
0.010016246
0.022400806
0.018039688
0.013650914
0.012608956
0.012050503
0.011750367
0.011550372
0.011420073
0.011327584
0.011260286
0.011208912
0.011168248
0.011134783
0.011106247
0.011081098
0.01105829
0.011037099
0.01101703
0.010997745
0.010979018
0.010960704
0.01094271
0.010924983
0.010907493
0.010890229
0.010873186
0.010856366
0.01083977
0.010823402
0.010807263
0.010791351
0.010775663
0.010760192
0.010744927
0.010729855
0.010714961
0.010700225
0.010685627
0.010671143
0.010656746
0.010642408
0.0106281
0.010613789
0.010599442
0.010585023
0.010570495
0.01055582
0.010540957
0.010525866
0.010510502
0.01049482
0.01047877
0.010462303
0.010445365
0.010427899
0.010409844
0.010391135
0.010371702
0.010351468
0.010330349
0.010308258
0.010285099
0.010260764
0.010235127
0.010208041
0.010179333
0.010148787
0.010116143
0.010087531
0.010063674
0.010044022
0.010028147
0.010015672
0.010006191
0.0099996155
0.0099963263
0.0099955867
0.0099961222
0.010002227
0.010012902
0.021155739
0.017132669
0.013369378
0.012456358
0.011964344
0.01169584
0.011520261
0.011404636
0.011322471
0.011261855
0.011214833
0.011176733
0.011144537
0.011116308
0.011090781
0.011067103
0.011044714
0.011023245
0.011002455
0.010982196
0.010962374
0.010942937
0.010923856
0.010905119
0.01088672
0.010868654
0.01085092
0.010833514
0.010816432
0.010799664
0.010783201
0.010767029
0.010751133
0.010735495
0.010720093
0.010704906
0.010689908
0.010675073
0.010660372
0.010645776
0.010631253
0.01061677
0.010602294
0.010587788
0.010573217
0.010558542
0.010543725
0.010528725
0.010513501
0.010498009
0.010482206
0.010466043
0.010449473
0.010432442
0.010414899
0.010396783
0.010378036
0.010358591
0.010338378
0.010317321
0.010295343
0.01027236
0.01024828
0.010222998
0.0101964
0.010168348
0.010138681
0.010107198
0.01008041
0.010058132
0.010039843
0.010025131
0.01001361
0.010004889
0.0099988927
0.0099957788
0.0099946625
0.0099947306
0.0099999297
0.010008924
0.020025239
0.016331577
0.013119353
0.012318906
0.011890662
0.011653225
0.011499253
0.011396468
0.011322731
0.011267149
0.011222939
0.011186037
0.011153912
0.011124992
0.011098268
0.011073089
0.011049043
0.01102587
0.011003411
0.010981566
0.010960278
0.010939508
0.010919236
0.010899448
0.01088013
0.010861269
0.010842852
0.010824863
0.010807284
0.010790096
0.010773278
0.010756805
0.010740655
0.0107248
0.010709213
0.010693865
0.010678727
0.010663767
0.010648955
0.010634256
0.010619637
0.010605063
0.010590499
0.010575909
0.010561254
0.010546498
0.010531601
0.010516524
0.010501226
0.010485665
0.010469797
0.010453576
0.010436957
0.01041989
0.010402323
0.010384202
0.010365471
0.010346069
0.010325931
0.010304989
0.010283172
0.010260406
0.010236612
0.010211703
0.010185584
0.010158152
0.010129294
0.010099318
0.010074228
0.010053419
0.010036389
0.010022727
0.01001204
0.010003973
0.0099984642
0.0099954838
0.0099941015
0.009993902
0.0099980856
0.01000508
0.018999672
0.015605683
0.012900901
0.012200767
0.01183069
0.011621486
0.011485903
0.011393617
0.011326058
0.011273598
0.011230539
0.011193472
0.011160348
0.011129931
0.011101454
0.011074437
0.011048583
0.011023707
0.010999691
0.010976459
0.010953958
0.010932146
0.010910991
0.010890462
0.01087053
0.010851167
0.010832343
0.010814028
0.010796192
0.010778802
0.010761828
0.010745237
0.010728998
0.010713077
0.010697442
0.010682059
0.010666895
0.010651916
0.010637088
0.010622375
0.010607743
0.010593156
0.010578577
0.01056397
0.010549298
0.010534524
0.010519609
0.010504514
0.0104892
0.010473625
0.010457748
0.010441525
0.010424912
0.010407863
0.010390328
0.010372258
0.0103536
0.010334297
0.010314291
0.010293518
0.010271916
0.010249417
0.010225951
0.010201441
0.010175803
0.010148948
0.010120778
0.01009256
0.010069004
0.010049526
0.010033638
0.010020926
0.010010993
0.010003518
0.0099984226
0.0099955353
0.0099940292
0.0099938179
0.0099972095
0.010002759
0.018073489
0.014941048
0.012711249
0.012101376
0.011782134
0.011597772
0.011477106
0.011392612
0.011328872
0.011277646
0.011234265
0.01119597
0.011161155
0.011128866
0.011098519
0.011069747
0.011042314
0.011016063
0.01099088
0.010966679
0.01094339
0.010920952
0.01089931
0.010878413
0.010858212
0.010838662
0.010819717
0.010801334
0.010783471
0.010766089
0.010749146
0.010732606
0.010716429
0.01070058
0.010685021
0.010669716
0.01065463
0.010639727
0.01062497
0.010610325
0.010595756
0.010581227
0.010566702
0.010552145
0.010537518
0.010522787
0.010507912
0.010492857
0.010477583
0.010462051
0.010446221
0.010430051
0.010413501
0.010396525
0.010379079
0.010361116
0.010342587
0.010323441
0.010303623
0.010283077
0.010261746
0.01023957
0.010216488
0.01019243
0.010167326
0.010141098
0.010113664
0.010086974
0.010064752
0.01004643
0.010031532
0.010019641
0.010010366
0.010003416
0.009998672
0.0099958651
0.0099943123
0.0099941256
0.0099968684
0.010001145
0.017246183
0.014379639
0.012548781
0.012017688
0.011741855
0.011577972
0.011468328
0.011388762
0.01132664
0.011275133
0.01123049
0.011190519
0.011153952
0.011120014
0.011088213
0.01105822
0.011029802
0.011002785
0.010977033
0.010952431
0.010928881
0.010906297
0.010884602
0.010863724
0.0108436
0.010824168
0.010805373
0.010787163
0.010769487
0.0107523
0.010735557
0.010719217
0.010703238
0.010687581
0.010672209
0.010657083
0.010642166
0.010627424
0.010612819
0.010598316
0.010583881
0.010569478
0.010555071
0.010540626
0.010526106
0.010511476
0.0104967
0.010481742
0.010466565
0.010451131
0.010435404
0.010419343
0.01040291
0.010386064
0.010368761
0.01035096
0.010332615
0.01031368
0.010294104
0.010273837
0.010252828
0.010231025
0.010208372
0.010184811
0.010160278
0.01013471
0.010108036
0.010082614
0.010061497
0.010044132
0.01003005
0.010018834
0.010010105
0.010003589
0.0099991237
0.0099963899
0.0099948575
0.0099947238
0.0099969566
0.010000257
0.016534132
0.013925823
0.012411073
0.011944836
0.011703767
0.011555573
0.011453334
0.011376508
0.011314783
0.01126256
0.011216772
0.011175616
0.01113801
0.011103262
0.011070886
0.011040531
0.01101193
0.010984879
0.010959208
0.010934776
0.010911464
0.010889167
0.010867794
0.010847262
0.010827496
0.010808427
0.010789995
0.010772142
0.010754815
0.010737966
0.010721549
0.01070552
0.010689839
0.010674466
0.010659362
0.010644491
0.010629817
0.010615302
0.010600914
0.010586616
0.010572374
0.010558155
0.010543923
0.010529645
0.010515286
0.010500812
0.010486189
0.010471382
0.010456357
0.010441076
0.010425506
0.010409608
0.010393347
0.010376683
0.010359578
0.010341992
0.010323882
0.010305208
0.010285923
0.010265982
0.01024534
0.01022395
0.010201762
0.010178726
0.010154788
0.010129889
0.010103971
0.010079521
0.010059249
0.010042615
0.010029153
0.010018446
0.010010132
0.010003943
0.0099996744
0.0099969904
0.00999549
0.0099953636
0.0099971347
0.0099996492
0.015830016
0.013521598
0.012272449
0.011863593
0.011651554
0.011517238
0.011421867
0.011348386
0.011288258
0.011236804
0.011191392
0.011150429
0.011112915
0.011078421
0.01104648
0.011016683
0.010988719
0.010962347
0.010937374
0.010913643
0.010891024
0.010869406
0.010848697
0.010828811
0.010809668
0.010791197
0.010773335
0.010756025
0.010739213
0.010722853
0.010706897
0.010691306
0.010676038
0.010661055
0.010646322
0.010631801
0.010617458
0.010603259
0.01058917
0.010575157
0.010561188
0.010547229
0.010533247
0.010519211
0.010505087
0.010490842
0.010476444
0.010461859
0.010447054
0.010431996
0.01041665
0.010400982
0.010384957
0.010368539
0.010351693
0.01033438
0.010316563
0.010298203
0.010279258
0.010259688
0.010239452
0.010218509
0.010196816
0.010174329
0.010151003
0.010126789
0.010101639
0.010077818
0.010058095
0.010041931
0.010028861
0.010018473
0.010010416
0.010004422
0.010000252
0.0099975788
0.0099961196
0.0099960388
0.0099975233
0.0099995249
0.014481175
0.012848907
0.012017182
0.011702826
0.011531678
0.011420098
0.011339071
0.011275631
0.011223267
0.011178338
0.011138729
0.011103119
0.011070644
0.011040468
0.011012143
0.010985394
0.010960011
0.010935829
0.010912714
0.010890554
0.010869254
0.010848732
0.010828974
0.010809984
0.010791684
0.010774002
0.010756877
0.010740254
0.010724083
0.010708318
0.010692918
0.010677843
0.010663057
0.010648526
0.010634214
0.01062009
0.010606121
0.010592277
0.010578527
0.010564839
0.010551183
0.010537526
0.010523837
0.010510086
0.01049624
0.010482269
0.010468142
0.010453826
0.01043929
0.010424502
0.010409429
0.010394039
0.010378299
0.010362174
0.010345631
0.010328634
0.010311147
0.010293134
0.010274558
0.010255378
0.010235558
0.01021506
0.010193845
0.010171874
0.010149104
0.010125495
0.010101001
0.010077483
0.010058017
0.010042066
0.010029159
0.010018885
0.0100109
0.010004923
0.010000689
0.0099979121
0.0099963927
0.0099961677
0.0099971436
0.0099985974
0.014031608
0.012627208
0.011865878
0.011588029
0.011437208
0.011339246
0.01126778
0.011211534
0.011164674
0.011124069
0.011087903
0.011055076
0.011024877
0.010996826
0.010970595
0.010945939
0.010922664
0.01090061
0.010879642
0.010859646
0.010840517
0.010822163
0.01080445
0.010787245
0.010770509
0.010754206
0.010738302
0.010722765
0.010707563
0.010692666
0.010678046
0.010663675
0.010649525
0.01063557
0.010621782
0.010608136
0.010594606
0.010581195
0.010567873
0.010554606
0.010541362
0.010528111
0.010514822
0.010501464
0.010488007
0.010474421
0.010460674
0.010446738
0.010432581
0.010418172
0.010403481
0.010388476
0.010373124
0.010357395
0.010341254
0.010324669
0.010307604
0.010290025
0.010271896
0.01025318
0.010233841
0.010213842
0.010193147
0.010171718
0.010149516
0.010126501
0.010102631
0.010078849
0.01005917
0.010043061
0.010030033
0.010019664
0.010011597
0.01000553
0.010001184
0.0099983024
0.0099967083
0.0099963208
0.009996956
0.0099982153
0.013585815
0.012398835
0.01168181
0.01144346
0.011316077
0.011235889
0.011177569
0.011131652
0.011093039
0.011059194
0.011028671
0.011000636
0.010974565
0.010950109
0.01092702
0.010905113
0.010884242
0.01086429
0.01084516
0.010826771
0.010809055
0.010791953
0.01077541
0.010759382
0.010743828
0.010728711
0.010713997
0.010699651
0.010685639
0.010671931
0.010658493
0.010645297
0.010632312
0.010619508
0.010606856
0.010594329
0.010581897
0.010569501
0.010557116
0.01054472
0.010532288
0.010519799
0.010507226
0.010494546
0.010481734
0.010468763
0.010455607
0.010442241
0.010428637
0.010414767
0.010400603
0.010386117
0.010371278
0.010356058
0.010340425
0.010324348
0.010307794
0.010290731
0.010273124
0.010254938
0.010236138
0.010216689
0.010196555
0.010175701
0.010154088
0.010131679
0.010108432
0.010084307
0.010063784
0.010046954
0.010033311
0.010022415
0.01001389
0.010007414
0.010002699
0.0099994996
0.0099976221
0.0099969081
0.0099971707
0.0099982167
55.585959
100.93711
60.545113
41.050516
28.504942
19.91659
14.074285
10.076499
7.274506
5.2710648
3.8174702
2.7618163
1.9892476
1.4300021
1.0187861
0.7218382
0.50688555
0.35354061
0.24566824
0.1702483
0.11794347
0.082051868
0.057714647
0.041414093
0.030646588
0.023629395
0.0191227
0.016265274
0.014474167
0.013361495
0.012673125
0.012245819
0.011976786
0.011802531
0.011684618
0.011600243
0.011536124
0.011484642
0.011441455
0.011404092
0.011371097
0.011341573
0.011314939
0.011290746
0.011268627
0.011248169
0.01122835
0.011204002
0.011169394
0.011124819
0.011074264
0.011022208
0.010971588
0.010924208
0.010880367
0.010840324
0.010804221
0.010773313
0.010745531
0.010720685
0.010693825
0.01066804