/*--------------------------------*- C++ -*----------------------------------*\
  =========                 |
  \\      /  F ield         | OpenFOAM: The Open Source CFD Toolbox
   \\    /   O peration     | Website:  https://openfoam.org
    \\  /    A nd           | Version:  6
     \\/     M anipulation  |
\*---------------------------------------------------------------------------*/
FoamFile
{
    version     2.0;
    format      ascii;
    class       volScalarField;
    location    "900";
    object      nut;
}
// * * * * * * * * * * * * * * * * * * * * * * * * * * * * * * * * * * * * * //

dimensions      [0 2 -1 0 0 0 0];

internalField   nonuniform List<scalar> 
16000
(
5.2217186e-06
2.1307478e-05
2.3231923e-05
3.3073635e-05
2.8487501e-05
3.6666216e-05
3.6231894e-05
4.0875417e-05
4.2262199e-05
4.2321292e-05
4.3053104e-05
4.1648206e-05
4.1810808e-05
4.0695014e-05
4.0712033e-05
4.0176179e-05
4.0330957e-05
4.0342499e-05
4.0744531e-05
4.1185072e-05
4.1884266e-05
4.2709098e-05
4.3750208e-05
4.4968647e-05
4.6410521e-05
4.8079413e-05
5.0012448e-05
5.223721e-05
5.4798549e-05
5.7745704e-05
6.1142724e-05
6.5066678e-05
6.9613133e-05
7.4898647e-05
8.1066816e-05
8.8293843e-05
9.6796392e-05
0.00010684083
0.00011875479
0.000132941
0.00014989457
0.00017022567
0.00019468367
0.00022418736
0.00025986105
0.00030307586
0.0003554937
0.00041911587
0.00049633058
0.00058995517
0.00070326647
0.00084003219
0.0010045759
0.001040994
0.0010420826
0.0010423014
0.001041893
0.0010411354
0.0010402148
0.0010391603
0.0010378504
0.0010363242
0.0010345156
0.0010323498
0.0010297743
0.0010268114
0.0010235823
0.0010203844
0.0010174137
0.0010148502
0.0010124883
0.0010106791
0.0010087547
0.0010076032
0.0010060102
0.0010064484
0.0010049883
0.0010095417
0.001004335
0.0010084436
4.3463035e-06
2.1071214e-05
2.1298292e-05
3.0236055e-05
2.6309221e-05
3.3054637e-05
3.3365475e-05
3.6516172e-05
3.8553553e-05
3.7698183e-05
3.8810398e-05
3.7051566e-05
3.7371411e-05
3.6133073e-05
3.6213672e-05
3.5678689e-05
3.5841067e-05
3.5834167e-05
3.6198281e-05
3.6586095e-05
3.7209307e-05
3.794246e-05
3.8868381e-05
3.9951699e-05
4.1232875e-05
4.2715327e-05
4.4431271e-05
4.6405248e-05
4.8676318e-05
5.1287758e-05
5.4295485e-05
5.7766968e-05
6.1785792e-05
6.6453768e-05
7.189624e-05
7.8266905e-05
8.5754534e-05
9.4590906e-05
0.00010506076
0.00011751354
0.00013237772
0.00015018081
0.0001715697
0.00019733623
0.00022844834
0.00026608647
0.00031168271
0.00036696577
0.0004340087
0.00051527607
0.00061366962
0.00073256956
0.00087590394
0.0010396348
0.0010409374
0.0010412978
0.0010409528
0.0010402077
0.0010392909
0.0010382688
0.0010371154
0.0010357359
0.0010340697
0.0010320374
0.0010295777
0.0010266884
0.0010234834
0.001020254
0.0010172667
0.001014653
0.0010123131
0.0010104198
0.0010086161
0.0010074779
0.001005884
0.0010059242
0.001004633
0.0010086444
0.0010041202
0.0010082424
3.7112411e-06
2.0830356e-05
1.9781705e-05
2.780992e-05
2.4572732e-05
2.9972054e-05
3.1184788e-05
3.2666884e-05
3.5371826e-05
3.3476993e-05
3.4922222e-05
3.2811378e-05
3.3258797e-05
3.1978841e-05
3.2121601e-05
3.1608589e-05
3.1776928e-05
3.176849e-05
3.2103593e-05
3.2456223e-05
3.3019929e-05
3.3682825e-05
3.4517108e-05
3.5493107e-05
3.6645236e-05
3.7977844e-05
3.9518796e-05
4.1290554e-05
4.3327534e-05
4.5668413e-05
4.8362726e-05
5.1470418e-05
5.5065645e-05
5.9238718e-05
6.4100685e-05
6.978769e-05
7.6466712e-05
8.4342679e-05
9.3667031e-05
0.00010474787
0.00011796209
0.00013377315
0.00015274849
0.00017558153
0.0002031185
0.0002363906
0.00027664865
0.00032540332
0.00038447057
0.0004560184
0.00054261699
0.00064728806
0.00077356857
0.00092560825
0.0010397836
0.0010403004
0.0010400274
0.0010392937
0.0010383705
0.0010373472
0.0010362126
0.0010349364
0.0010334429
0.0010315724
0.0010292554
0.0010264693
0.0010233081
0.0010200668
0.0010170643
0.0010144262
0.0010120945
0.0010101605
0.001008418
0.0010072961
0.0010057552
0.0010055456
0.0010043805
0.0010078641
0.0010038897
0.0010075613
3.3026194e-06
2.0507687e-05
1.8501507e-05
2.553569e-05
2.2938558e-05
2.7151111e-05
2.9060584e-05
2.9218251e-05
3.227602e-05
2.9707122e-05
3.1265611e-05
2.900322e-05
2.9503907e-05
2.8298536e-05
2.8456042e-05
2.7995663e-05
2.815638e-05
2.8160465e-05
2.8468019e-05
2.8796489e-05
2.9309796e-05
2.9915573e-05
3.067284e-05
3.1559034e-05
3.2602481e-05
3.3808902e-05
3.5202355e-05
3.6803788e-05
3.8643838e-05
4.0757501e-05
4.3189149e-05
4.5992714e-05
4.9234773e-05
5.299646e-05
5.7377423e-05
6.2499846e-05
6.851353e-05
7.5602142e-05
8.3991124e-05
9.3956459e-05
0.00010583486
0.0001200404
0.00013707963
0.00015757075
0.00018226731
0.00021208751
0.00024814504
0.00029178566
0.00034463015
0.00040861948
0.00048606636
0.00057970921
0.000692774
0.0008290654
0.00099307838
0.0010393039
0.0010391151
0.0010383945
0.0010374613
0.0010364296
0.0010352923
0.0010340283
0.0010326011
0.001030926
0.0010287848
0.0010261353
0.001023045
0.0010198104
0.0010168022
0.0010141552
0.0010118336
0.0010098782
0.0010081811
0.0010069818
0.0010056155
0.0010053012
0.0010041592
0.0010070271
0.0010036782
0.0010070752
2.9655558e-06
2.0069931e-05
1.7468129e-05
2.3424554e-05
2.1434793e-05
2.4571861e-05
2.7056455e-05
2.609509e-05
2.9299833e-05
2.6287457e-05
2.7829657e-05
2.5607174e-05
2.6091442e-05
2.5004478e-05
2.5152262e-05
2.4759297e-05
2.4907617e-05
2.4931428e-05
2.5215187e-05
2.5526942e-05
2.5998307e-05
2.655721e-05
2.7249862e-05
2.8060563e-05
2.9012187e-05
3.0111809e-05
3.1380326e-05
3.283743e-05
3.4510696e-05
3.64321e-05
3.8641777e-05
4.1188713e-05
4.4133314e-05
4.7549183e-05
5.1526696e-05
5.6176721e-05
6.1635142e-05
6.8068474e-05
7.568122e-05
8.4723866e-05
9.5501059e-05
0.00010838772
0.00012384234
0.00014242421
0.00016481433
0.000191843
0.0002245174
0.00026405556
0.00031192691
0.0003698956
0.00044007191
0.00052496799
0.00062756225
0.00075138123
0.0009006167
0.0010382994
0.0010382104
0.0010375065
0.0010365607
0.0010355173
0.0010343718
0.0010331064
0.0010316936
0.0010300827
0.0010281536
0.0010256783
0.0010226902
0.0010194823
0.0010164799
0.0010138382
0.0010115311
0.0010095723
0.0010079113
0.0010066658
0.001005441
0.0010050483
0.0010039644
0.0010062559
0.0010034747
0.001006386
2.6792905e-06
1.7298445e-05
1.654653e-05
2.1427893e-05
2.0069248e-05
2.2187866e-05
2.5165323e-05
2.3254934e-05
2.6457247e-05
2.3216364e-05
2.4639472e-05
2.2598911e-05
2.3022674e-05
2.2076869e-05
2.2200574e-05
2.1879994e-05
2.2014148e-05
2.2060227e-05
2.2324008e-05
2.2623859e-05
2.3060691e-05
2.3581123e-05
2.4220056e-05
2.496777e-05
2.5842653e-05
2.6852863e-05
2.8016773e-05
2.9353016e-05
3.0886714e-05
3.2647371e-05
3.4671678e-05
3.7004582e-05
3.9701472e-05
4.2829847e-05
4.6472575e-05
5.0731321e-05
5.5730793e-05
6.1623715e-05
6.8597645e-05
7.6882872e-05
8.6758385e-05
9.8567782e-05
0.00011273141
0.0001297619
0.00015028256
0.00017505407
0.00020499933
0.00024123487
0.00028510977
0.00033824636
0.00040259105
0.00048047022
0.00057465528
0.00068844133
0.00082575787
0.00099128923
0.0010373087
0.0010366273
0.0010356671
0.0010346094
0.0010334527
0.0010321809
0.0010307709
0.0010291852
0.0010273519
0.0010250927
0.0010222432
0.0010190834
0.0010160991
0.0010134756
0.0010111897
0.0010092416
0.0010076117
0.0010063417
0.0010052273
0.0010047725
0.001003782
0.0010056049
0.0010032873
0.0010058632
2.4112815e-06
1.6410814e-05
1.5431534e-05
1.9540027e-05
1.8830759e-05
1.9998984e-05
2.3357947e-05
2.0673679e-05
2.3746299e-05
2.0511972e-05
2.1745226e-05
1.9935575e-05
2.0273961e-05
1.9475131e-05
1.956831e-05
1.9317702e-05
1.9438162e-05
1.9505702e-05
1.9753053e-05
2.0043764e-05
2.0452098e-05
2.0940444e-05
2.1534512e-05
2.2229316e-05
2.3039783e-05
2.3974782e-05
2.5050736e-05
2.6285346e-05
2.770174e-05
2.9327408e-05
3.119621e-05
3.3349732e-05
3.5839306e-05
3.872741e-05
4.2090761e-05
4.6023574e-05
5.0641445e-05
5.60859e-05
6.2530726e-05
7.0190112e-05
7.9322293e-05
9.0245701e-05
0.00010335007
0.00011911083
0.00013810513
0.0001610381
0.0001887656
0.00022232314
0.00026296376
0.00031219625
0.00037183478
0.00044405449
0.00053145619
0.00063714467
0.00076483007
0.00091895621
0.0010364037
0.001035754
0.0010347781
0.0010337041
0.001032534
0.0010312529
0.0010298401
0.0010282651
0.0010264761
0.0010243701
0.0010217017
0.0010186138
0.0010156607
0.0010130679
0.0010108114
0.0010088855
0.0010072848
0.0010060115
0.0010049775
0.0010044279
0.0010036013
0.0010050312
0.0010030992
0.0010053139
2.1782926e-06
1.5929982e-05
1.4387457e-05
1.7772959e-05
1.7686527e-05
1.7967147e-05
2.1573111e-05
1.8355852e-05
2.1136329e-05
1.8110736e-05
1.9118387e-05
1.7564622e-05
1.7811159e-05
1.7155872e-05
1.7220186e-05
1.7034617e-05
1.7144868e-05
1.7232661e-05
1.7467989e-05
1.7752139e-05
1.8137888e-05
1.8600042e-05
1.9157353e-05
1.9808355e-05
2.0565379e-05
2.1437799e-05
2.2440504e-05
2.3590373e-05
2.490896e-05
2.6422076e-05
2.8161332e-05
3.0165482e-05
3.2482592e-05
3.5171047e-05
3.8302521e-05
4.1965202e-05
4.6267286e-05
5.1341252e-05
5.7349571e-05
6.4493749e-05
7.3015171e-05
8.3211962e-05
9.5449136e-05
0.0001101725
0.00012792186
0.00014935765
0.000175282
0.0002066651
0.00024468266
0.00029075144
0.00034657798
0.00041421318
0.00049611637
0.00059523303
0.0007150904
0.00085992574
0.0010348124
0.0010348838
0.0010338917
0.0010327999
0.0010316149
0.0010303224
0.0010289039
0.0010273329
0.0010255676
0.0010235331
0.0010210659
0.0010180767
0.001015168
0.0010126177
0.0010103999
0.0010085064
0.0010069357
0.0010056748
0.0010047023
0.0010040812
0.0010034141
0.0010044817
0.0010029014
0.0010048107
1.976455e-06
1.5402947e-05
1.3411784e-05
1.6092326e-05
1.6615884e-05
1.6050874e-05
1.9775984e-05
1.627788e-05
1.8653319e-05
1.5964742e-05
1.6741602e-05
1.5445855e-05
1.5607116e-05
1.5084592e-05
1.5126188e-05
1.4998909e-05
1.5103557e-05
1.5209899e-05
1.5437505e-05
1.571728e-05
1.6085657e-05
1.652679e-05
1.7054359e-05
1.7669469e-05
1.8382568e-05
1.9203261e-05
2.0145352e-05
2.1224955e-05
2.2462386e-05
2.3882085e-05
2.551383e-05
2.739406e-05
2.9568167e-05
3.2091214e-05
3.5030812e-05
3.8470186e-05
4.2511609e-05
4.7280317e-05
5.2929281e-05
5.9650311e-05
6.7671018e-05
7.7273151e-05
8.8801749e-05
0.00010267911
0.00011941476
0.00013963314
0.00016409339
0.00019371285
0.00022960507
0.00027311244
0.00032585402
0.00038977915
0.00046723069
0.00056102179
0.00067452972
0.00081181872
0.00097777307
0.001034014
0.0010330059
0.0010318955
0.0010306945
0.0010293895
0.0010279635
0.001026393
0.0010246435
0.0010226582
0.0010203355
0.0010174761
0.0010146248
0.0010121284
0.001009959
0.0010081069
0.0010065696
0.0010053337
0.0010044081
0.0010037503
0.0010032189
0.001003963
0.001002699
0.0010043038
1.8013489e-06
1.4803873e-05
1.2500929e-05
1.4484996e-05
1.5604367e-05
1.4313647e-05
1.7951037e-05
1.4410726e-05
1.6352847e-05
1.4042889e-05
1.4604442e-05
1.3551157e-05
1.3640794e-05
1.3235448e-05
1.3262144e-05
1.3185469e-05
1.328906e-05
1.3412088e-05
1.363573e-05
1.3913013e-05
1.4268591e-05
1.4693262e-05
1.519726e-05
1.5783418e-05
1.6460927e-05
1.7239432e-05
1.8131935e-05
1.9153893e-05
2.0324635e-05
2.1667512e-05
2.3210823e-05
2.4989091e-05
2.7045568e-05
2.943265e-05
3.2214661e-05
3.5470798e-05
3.9298648e-05
4.3817753e-05
4.9172898e-05
5.5548899e-05
6.3162096e-05
7.2281055e-05
8.3234562e-05
9.6426743e-05
0.00011234242
0.00013157697
0.00015485542
0.00018305228
0.00021723137
0.00025867496
0.00030893129
0.00036986701
0.00044372955
0.00053322293
0.00064160036
0.00077278198
0.00093149039
0.0010331421
0.0010321192
0.0010309898
0.0010297723
0.0010284543
0.0010270198
0.001025448
0.0010237092
0.0010217567
0.0010195104
0.0010168181
0.0010140364
0.0010116048
0.0010094936
0.001007691
0.0010061922
0.0010049901
0.0010041012
0.0010034358
0.0010030162
0.0010034855
0.0010024963
0.0010038005
1.6491005e-06
1.4109112e-05
1.1652728e-05
1.2939308e-05
1.4626528e-05
1.2739906e-05
1.6091564e-05
1.2727757e-05
1.4243571e-05
1.2318467e-05
1.2692929e-05
1.185606e-05
1.189106e-05
1.1585767e-05
1.1605631e-05
1.157214e-05
1.1678776e-05
1.1816836e-05
1.1988574e-05
1.2256893e-05
1.2597482e-05
1.3004784e-05
1.3486154e-05
1.4045108e-05
1.4689643e-05
1.5429132e-05
1.6275753e-05
1.7244208e-05
1.8352834e-05
1.9623945e-05
2.1084507e-05
2.2767186e-05
2.4713328e-05
2.6972912e-05
2.9607331e-05
3.2692193e-05
3.6320914e-05
4.0608482e-05
4.599711e-05
5.2094693e-05
5.9379751e-05
6.811044e-05
7.8602072e-05
9.1245367e-05
0.00010650498
0.00012495281
0.0001472874
0.00017434845
0.00020716056
0.00024695788
0.00029523178
0.00035378238
0.00042477995
0.00051083997
0.00061511451
0.00074140606
0.00089430429
0.0010322655
0.0010312305
0.0010300822
0.0010288484
0.0010275172
0.0010260741
0.0010245003
0.00102277
0.0010208451
0.001018663
0.0010161102
0.0010134095
0.0010110529
0.0010090089
0.0010072635
0.0010058092
0.0010046472
0.0010037884
0.0010031367
0.001002808
0.0010030625
0.0010023058
0.0010033544
1.5166082e-06
1.3306847e-05
1.085877e-05
1.1446419e-05
1.3644913e-05
1.1310695e-05
1.4215995e-05
1.1205298e-05
1.2328409e-05
1.0768224e-05
1.0990796e-05
1.0339665e-05
1.033773e-05
1.0116111e-05
1.0087865e-05
1.0072951e-05
1.0175777e-05
1.0322006e-05
1.0542329e-05
1.0817749e-05
1.1157502e-05
1.1559411e-05
1.2029746e-05
1.2572971e-05
1.3196639e-05
1.3910161e-05
1.4725316e-05
1.5656399e-05
1.6721118e-05
1.7941133e-05
1.934261e-05
2.0956778e-05
2.2823713e-05
2.4991728e-05
2.7520131e-05
3.0481906e-05
3.3967387e-05
3.8089226e-05
4.2982135e-05
4.8812952e-05
5.578575e-05
6.4149849e-05
7.4785518e-05
8.6996811e-05
0.00010174075
0.00011957013
0.00014116388
0.00016733323
0.00019907262
0.00023757827
0.00028429658
0.00034097494
0.00040972237
0.00049308387
0.00059413109
0.00071657323
0.0008648943
0.0010313818
0.0010303393
0.0010291725
0.0010279229
0.0010265793
0.001025128
0.0010235521
0.0010218292
0.001019928
0.0010177999
0.0010153616
0.0010127519
0.0010104794
0.001008511
0.0010068296
0.0010054263
0.0010043086
0.0010034765
0.0010028519
0.0010025936
0.0010026997
0.0010021247
0.0010029741
1.4018894e-06
1.239522e-05
1.0119325e-05
1.0090564e-05
1.2627709e-05
1.0008685e-05
1.2410696e-05
9.8242713e-06
1.0607423e-05
9.3737698e-06
9.481777e-06
8.9852944e-06
8.8916939e-06
8.7165558e-06
8.731586e-06
8.7627436e-06
8.8853665e-06
9.0523756e-06
9.2823968e-06
9.5642917e-06
9.9044492e-06
1.0302866e-05
1.076525e-05
1.129671e-05
1.1904463e-05
1.2597942e-05
1.3388628e-05
1.429046e-05
1.5320633e-05
1.65003e-05
1.785516e-05
1.9415128e-05
2.1219395e-05
2.3315021e-05
2.5759776e-05
2.86246e-05
3.1997013e-05
3.5988046e-05
4.0728663e-05
4.6381757e-05
5.3146554e-05
6.1266905e-05
7.1042726e-05
8.2833828e-05
9.7081635e-05
0.00011527084
0.00013629877
0.00016178616
0.0001927055
0.00023022382
0.0002757528
0.00033099922
0.00039802471
0.00047931981
0.00057789422
0.00069738659
0.00084220168
0.0010176639
0.0010294455
0.0010282614
0.0010269971
0.001025642
0.0010241835
0.0010226061
0.0010208904
0.0010190102
0.0010169278
0.0010145827
0.0010120725
0.0010098919
0.0010080063
0.0010063951
0.001005049
0.0010039779
0.0010031713
0.0010025806
0.0010023693
0.0010023851
0.0010019553
0.0010026432
1.3027648e-06
1.1378471e-05
9.42742e-06
8.861596e-06
1.1542725e-05
8.8223185e-06
1.0707262e-05
8.5722009e-06
9.0782445e-06
8.1221198e-06
8.0710365e-06
7.6623746e-06
7.6133981e-06
7.5158398e-06
7.5565234e-06
7.6245619e-06
7.7653232e-06
7.9498096e-06
8.1891973e-06
8.477399e-06
8.8192515e-06
9.2160892e-06
9.6733705e-06
1.0196703e-05
1.0793006e-05
1.1471731e-05
1.2244153e-05
1.3123911e-05
1.4127763e-05
1.5276439e-05
1.653131e-05
1.8037303e-05
1.9779137e-05
2.1802645e-05
2.4164184e-05
2.6932887e-05
3.0367076e-05
3.4258665e-05
3.8883995e-05
4.440318e-05
5.1011822e-05
5.8948533e-05
6.8509946e-05
8.0047926e-05
9.3996343e-05
0.00011088523
0.00013135197
0.00015752328
0.00018784099
0.00022463504
0.00026929133
0.0003234866
0.00038924748
0.00046902426
0.00056578106
0.00068310616
0.00082534817
0.00099777142
0.0010285501
0.0010273499
0.0010260724
0.0010247075
0.0010232434
0.0010216659
0.0010199578
0.0010180971
0.0010160543
0.0010137851
0.0010113812
0.0010092985
0.0010075014
0.001005966
0.0010046826
0.0010036593
0.0010028784
0.0010023248
0.0010021343
0.0010020537
0.0010017932
0.0010023625
1.2180471e-06
1.0270729e-05
8.7749521e-06
7.7460503e-06
1.035964e-05
7.7382166e-06
9.1295326e-06
7.435223e-06
7.7319598e-06
6.8800039e-06
6.8139039e-06
6.5392253e-06
6.5141608e-06
6.4770874e-06
6.542e-06
6.6399816e-06
6.7975022e-06
6.9971535e-06
7.2457725e-06
7.540453e-06
7.8853086e-06
8.2824533e-06
8.7372531e-06
9.2332474e-06
9.8163877e-06
1.0479051e-05
1.1232103e-05
1.2088706e-05
1.3064993e-05
1.4180919e-05
1.5460803e-05
1.6934513e-05
1.8638779e-05
2.061884e-05
2.2930429e-05
2.5642244e-05
2.8838915e-05
3.2624708e-05
3.7127941e-05
4.2506287e-05
4.8952366e-05
5.7130195e-05
6.6541856e-05
7.7903615e-05
9.1642505e-05
0.00010828421
0.00012845705
0.00015292994
0.00018429156
0.00022058929
0.00026464737
0.0003181219
0.00038301554
0.00046175104
0.00055726163
0.00067310289
0.00081358772
0.00098394418
0.0010276545
0.0010264401
0.0010251513
0.0010237785
0.0010223108
0.0010207351
0.001019036
0.0010171947
0.0010151873
0.0010129812
0.0010106884
0.001008708
0.0010070032
0.001005548
0.001004332
0.0010033576
0.0010026041
0.0010020857
0.0010019012
0.0010017571
0.00100163
0.0010021149
1.1474629e-06
9.0852961e-06
8.154916e-06
6.7346906e-06
9.1159031e-06
6.7462354e-06
7.707215e-06
6.3531913e-06
6.3827261e-06
5.8070844e-06
5.7442132e-06
5.571613e-06
5.5721259e-06
5.58245e-06
5.670091e-06
5.7929619e-06
5.9660979e-06
6.1793859e-06
6.4373017e-06
6.7388708e-06
7.0711602e-06
7.4658235e-06
7.9161433e-06
8.4277081e-06
9.0076818e-06
9.6648156e-06
1.0409948e-05
1.1256133e-05
1.2219239e-05
1.3319041e-05
1.4579606e-05
1.6030508e-05
1.7708164e-05
1.9657456e-05
2.1933729e-05
2.460521e-05
2.7755943e-05
3.1489424e-05
3.5933038e-05
4.1243639e-05
4.761403e-05
5.527744e-05
6.451915e-05
7.5684395e-05
8.9932983e-05
0.00010642304
0.00012641421
0.00015067325
0.00018011855
0.00021788922
0.00026158621
0.00031462575
0.00037899651
0.0004571051
0.00055186692
0.00066682051
0.0008062622
0.00097540597
0.0010267612
0.0010255348
0.0010242368
0.0010228586
0.0010213897
0.0010198183
0.0010181304
0.0010163094
0.0010143355
0.0010121837
0.0010100048
0.0010081288
0.0010065185
0.0010051465
0.001004001
0.0010030769
0.0010023541
0.0010018665
0.0010016722
0.0010014879
0.0010014561
0.0010018895
1.0919038e-06
7.8328397e-06
7.547705e-06
5.8165631e-06
7.8481155e-06
5.8147674e-06
6.977924e-06
5.3238095e-06
5.267455e-06
4.884833e-06
4.8374969e-06
4.7412558e-06
4.7679901e-06
4.8164043e-06
4.9252817e-06
5.0695166e-06
5.2574231e-06
5.4833976e-06
5.735189e-06
6.0404099e-06
6.3913415e-06
6.791216e-06
7.2447234e-06
7.7576615e-06
8.3372589e-06
8.9922436e-06
9.7334524e-06
1.0573921e-05
1.1529232e-05
1.2619104e-05
1.3867464e-05
1.5303751e-05
1.6964264e-05
1.8893781e-05
2.1147561e-05
2.3793751e-05
2.6916283e-05
3.0618385e-05
3.502692e-05
4.0298008e-05
4.662537e-05
5.4241195e-05
6.3431145e-05
7.4539961e-05
8.7987327e-05
0.00010428321
0.00012511242
0.00014927265
0.00017860342
0.0002142122
0.0002598896
0.00031273825
0.00037688088
0.00045471853
0.00054915972
0.00066374032
0.00080275692
0.00097143001
0.0010258736
0.0010246376
0.001023333
0.0010219518
0.0010204845
0.0010189203
0.0010172464
0.0010154478
0.0010135076
0.0010114054
0.0010093412
0.0010075695
0.0010060538
0.0010047662
0.0010036923
0.0010028197
0.0010021318
0.0010016711
0.0010014553
0.0010012427
0.0010012761
0.0010016833
1.0559012e-06
6.537548e-06
6.9228818e-06
4.993942e-06
6.6177958e-06
5.5792596e-06
5.3600153e-06
4.3969958e-06
4.3507165e-06
4.092259e-06
4.0707737e-06
4.0339976e-06
4.0861965e-06
4.1662817e-06
4.2949731e-06
4.4579809e-06
4.6463719e-06
4.8809402e-06
5.1551105e-06
5.4700258e-06
5.8286366e-06
6.234609e-06
6.6927926e-06
7.2091116e-06
7.7908664e-06
8.4466883e-06
9.1874343e-06
1.0003941e-05
1.0949735e-05
1.2027323e-05
1.3260327e-05
1.4677886e-05
1.6316018e-05
1.821924e-05
2.0442587e-05
2.3053997e-05
2.6137218e-05
2.9795196e-05
3.4154119e-05
3.9628821e-05
4.5942172e-05
5.3544125e-05
6.2722564e-05
7.3821973e-05
8.7261849e-05
0.00010355281
0.00012331413
0.00014860052
0.00017793185
0.00021354618
0.00025678061
0.00031220339
0.00037636313
0.00045422803
0.00054870801
0.00066334874
0.00080246207
0.00097129297
0.0010249964
0.0010237532
0.0010224445
0.0010210631
0.0010196004
0.0010180465
0.0010163898
0.0010146168
0.0010127121
0.0010106584
0.0010087077
0.0010070384
0.0010056153
0.001004411
0.0010034079
0.0010025876
0.0010019387
0.0010015013
0.0010012591
0.0010010293
0.0010011095
0.0010014844
1.0415333e-06
6.0780916e-06
6.2871453e-06
5.1880954e-06
6.3074308e-06
4.1586914e-06
4.1716503e-06
3.6268292e-06
3.5836562e-06
3.4266858e-06
3.4285601e-06
3.4395849e-06
3.5153211e-06
3.6217715e-06
3.7583316e-06
3.9339163e-06
4.1463815e-06
4.3943891e-06
4.6795863e-06
5.0039226e-06
5.3706085e-06
5.7835979e-06
6.2478536e-06
6.7693455e-06
7.3440738e-06
7.9996878e-06
8.7384564e-06
9.5731024e-06
1.0519217e-05
1.1595975e-05
1.282704e-05
1.4241649e-05
1.5875999e-05
1.7774881e-05
1.9993711e-05
2.2600941e-05
2.568099e-05
2.9337726e-05
3.3698637e-05
3.8919859e-05
4.5192147e-05
5.3133868e-05
6.2333485e-05
7.3462884e-05
8.6941873e-05
0.00010328266
0.00012310667
0.00014716753
0.00017794847
0.00021368007
0.00025705561
0.00030971105
0.00037712649
0.00045525641
0.00055006229
0.00066511018
0.0008047399
0.00097423553
0.0010241349
0.0010228873
0.0010215773
0.0010201984
0.0010187431
0.0010172025
0.0010155665
0.0010138227
0.0010119571
0.0010099536
0.0010081138
0.0010065431
0.0010052084
0.0010040838
0.0010031486
0.0010023806
0.0010017722
0.0010013544
0.0010010895
0.0010008568
0.0010009479
0.0010012837
1.0450513e-06
6.2031996e-06
5.6058142e-06
5.5299314e-06
5.4474729e-06
3.3037078e-06
3.3649553e-06
2.9802847e-06
2.9495101e-06
2.8712817e-06
2.8973516e-06
2.9462466e-06
3.0439414e-06
3.1619777e-06
3.3219774e-06
3.5148717e-06
3.7412548e-06
4.0012757e-06
4.2969155e-06
4.6306532e-06
5.0059067e-06
5.42681e-06
5.8915634e-06
6.4173905e-06
7.0066684e-06
7.6679463e-06
8.4116161e-06
9.2503767e-06
1.019982e-05
1.1279172e-05
1.2512208e-05
1.3928373e-05
1.5564155e-05
1.746476e-05
1.9686142e-05
2.2297441e-05
2.538391e-05
2.9050431e-05
3.3425663e-05
3.8667074e-05
4.4967297e-05
5.2561415e-05
6.2200832e-05
7.338962e-05
8.6942465e-05
0.00010337408
0.00012330871
0.0001475033
0.00017848557
0.00021441582
0.00025802948
0.00031097098
0.00037882708
0.00045739301
0.00055273245
0.00066843926
0.00080889097
0.00097942193
0.001023296
0.0010220467
0.001020738
0.0010193642
0.0010179188
0.0010163942
0.0010147818
0.0010130709
0.0010112489
0.0010093002
0.0010075672
0.0010060903
0.0010048386
0.0010037875
0.0010029152
0.0010021976
0.0010016283
0.001001227
0.0010009499
0.0010007227
0.0010007828
0.0010010692
8.3743269e-07
6.5987196e-06
4.8289347e-06
3.4485794e-06
3.4826594e-06
2.7244774e-06
2.670943e-06
2.4593158e-06
2.4354854e-06
2.4155959e-06
2.4652521e-06
2.5436708e-06
2.6520342e-06
2.7961571e-06
2.9731883e-06
3.1806309e-06
3.4193745e-06
3.6905036e-06
3.9962986e-06
4.33957e-06
4.7238702e-06
5.148578e-06
5.6266353e-06
6.1605952e-06
6.7575055e-06
7.4258785e-06
8.1760707e-06
9.0207721e-06
9.9756116e-06
1.1059913e-05
1.2297627e-05
1.3718478e-05
1.5359343e-05
1.7265939e-05
1.949487e-05
2.2116067e-05
2.5215764e-05
2.890002e-05
3.3298854e-05
3.8570912e-05
4.4910305e-05
5.2944644e-05
6.2256016e-05
7.3522202e-05
8.71701e-05
0.00010371764
0.00012379279
0.00014815689
0.00017935494
0.0002155304
0.00025943858
0.00031273475
0.00038107635
0.00046017359
0.00055616311
0.00067267142
0.00081411939
0.00098589846
0.0010224871
0.001021239
0.0010199343
0.0010185681
0.0010171348
0.0010156281
0.0010140408
0.0010123649
0.0010105906
0.0010087057
0.0010070742
0.0010056858
0.0010045111
0.0010035266
0.0010027099
0.0010020382
0.001001506
0.0010011205
0.0010008304
0.0010005878
0.0010006111
0.0010008219
6.5219597e-07
4.8105697e-06
3.740996e-06
2.6293139e-06
2.680377e-06
2.1932e-06
2.1379459e-06
2.0199793e-06
2.0217156e-06
2.0434327e-06
2.1170443e-06
2.2132739e-06
2.3458475e-06
2.5080338e-06
2.6995815e-06
2.9197458e-06
3.1698176e-06
3.4514834e-06
3.7672483e-06
4.1201174e-06
4.5108789e-06
4.9482653e-06
5.435332e-06
5.9779397e-06
6.5830913e-06
7.2592571e-06
8.0167703e-06
8.8683296e-06
9.8296277e-06
1.0920125e-05
1.2163996e-05
1.3591287e-05
1.5239316e-05
1.7154364e-05
1.9393712e-05
2.2028103e-05
2.514474e-05
2.8850927e-05
3.3278548e-05
3.8587202e-05
4.5283478e-05
5.3045998e-05
6.2424735e-05
7.3773622e-05
8.7522373e-05
0.0001041923
0.00012441548
0.00014895778
0.00018034659
0.00021677353
0.00026098423
0.00031464546
0.00038343624
0.00046307375
0.00055972577
0.00067705247
0.00081951928
0.00099257573
0.001021717
0.0010204731
0.0010191754
0.0010178193
0.0010164
0.0010149122
0.0010133501
0.0010117073
0.0010099771
0.0010081756
0.0010066389
0.001005333
0.0010042298
0.0010033058
0.0010025383
0.0010019066
0.0010014063
0.0010010343
0.0010007371
0.0010004897
0.0010004692
0.0010005849
5.0553633e-07
2.6991895e-06
2.9489346e-06
2.1199892e-06
2.0550716e-06
1.7607548e-06
1.7208683e-06
1.6685504e-06
1.6953984e-06
1.7496514e-06
1.8442857e-06
1.961047e-06
2.110918e-06
2.2877751e-06
2.4917263e-06
2.7231532e-06
2.9836726e-06
3.2753256e-06
3.6007384e-06
3.9629916e-06
4.3657087e-06
4.810535e-06
5.3065174e-06
5.8577086e-06
6.4710647e-06
7.1550198e-06
7.9198967e-06
8.7784219e-06
9.7463703e-06
1.0843354e-05
1.2093787e-05
1.3528054e-05
1.5183919e-05
1.7108228e-05
1.9358923e-05
2.2007479e-05
2.5141799e-05
2.9028237e-05
3.3517872e-05
3.8902233e-05
4.5379694e-05
5.3191652e-05
6.2631347e-05
7.4054427e-05
8.7892861e-05
0.00010467084
0.00012502472
0.00015103843
0.0001812315
0.00021787039
0.00026233623
0.00031630631
0.00038541539
0.00046550271
0.0005627095
0.00068072603
0.00082405775
0.00099820662
0.0010209956
0.0010197593
0.0010184716
0.0010171287
0.001015726
0.0010142589
0.0010127223
0.0010111106
0.0010094178
0.0010077142
0.0010062633
0.0010050325
0.0010039944
0.0010031254
0.0010024026
0.0010018076
0.0010013349
0.0010009741
0.0010006774
0.0010004387
0.0010003859
0.0010004358
4.0529771e-07
2.0789726e-06
2.2367888e-06
1.6622499e-06
1.5898469e-06
1.4205102e-06
1.3994682e-06
1.3938775e-06
1.44413e-06
1.5241464e-06
1.6371966e-06
1.7727898e-06
1.9368884e-06
2.1261043e-06
2.3409885e-06
2.5825896e-06
2.852738e-06
3.1536558e-06
3.4880188e-06
3.8589238e-06
4.2699658e-06
4.7253241e-06
5.2299037e-06
5.7895284e-06
6.4111991e-06
7.1034271e-06
7.876655e-06
8.7437856e-06
9.7208367e-06
1.0827744e-05
1.2089335e-05
1.3536513e-05
1.5207679e-05
1.7150446e-05
1.9423677e-05
2.2099956e-05
2.526849e-05
2.903873e-05
3.3544563e-05
3.8949466e-05
4.5452678e-05
5.3296709e-05
6.2776492e-05
7.4247916e-05
8.8143663e-05
0.00010587543
0.00012645853
0.00015142475
0.00018171465
0.0002184691
0.00026307377
0.00032020807
0.00038639437
0.00046672053
0.00056422986
0.00068263375
0.00082646666
0.001001269
0.0010203331
0.0010191077
0.0010178336
0.0010165071
0.0010151244
0.0010136813
0.0010121734
0.0010105959
0.0010089436
0.0010073253
0.0010059493
0.001004784
0.0010038025
0.0010029813
0.0010022981
0.0010017358
0.0010012872
0.0010009363
0.0010006439
0.0010004153
0.0010003369
0.0010003288
3.081018e-07
1.6021177e-06
1.6654509e-06
1.3099594e-06
1.2374398e-06
1.1508789e-06
1.1503572e-06
1.1792912e-06
1.25056e-06
1.3510066e-06
1.4793117e-06
1.6304209e-06
1.8056548e-06
2.0046715e-06
2.2283836e-06
2.4782181e-06
2.7561271e-06
3.0644224e-06
3.4057949e-06
3.7833363e-06
4.2006175e-06
4.6617896e-06
5.1717149e-06
5.7361593e-06
6.362062e-06
7.0578774e-06
7.834002e-06
8.7033122e-06
9.6818242e-06
1.0789502e-05
1.2051239e-05
1.3498036e-05
1.5168428e-05
1.7110193e-05
1.9382423e-05
2.205803e-05
2.5226305e-05
2.8996854e-05
3.3503653e-05
3.8910107e-05
4.5415096e-05
5.3653716e-05
6.3207681e-05
7.4765069e-05
8.8760213e-05
0.00010572
0.00012628339
0.00015122549
0.00018148699
0.00021820651
0.00026516484
0.00031963272
0.00038573236
0.00046596485
0.00056337755
0.00068168887
0.00082544387
0.0010001988
0.0010197403
0.0010185291
0.0010172717
0.0010159647
0.0010146049
0.0010131885
0.0010117117
0.0010101704
0.0010085603
0.001007013
0.0010056993
0.0010045884
0.0010036541
0.0010028725
0.0010022223
0.0010016876
0.0010012586
0.0010009168
0.0010006319
0.0010004139
0.0010003163
0.0010002651
1.9205071e-07
1.2627818e-06
1.2013268e-06
1.0414982e-06
9.7765157e-07
9.4652214e-07
9.6855881e-07
1.0253932e-06
1.1165381e-06
1.2345656e-06
1.37658e-06
1.5405325e-06
1.7263291e-06
1.9346934e-06
2.1669594e-06
2.4242971e-06
2.7096669e-06
3.0250206e-06
3.3730483e-06
3.7568403e-06
4.1799758e-06
4.6466165e-06
5.1615913e-06
5.7305848e-06
6.360467e-06
7.059625e-06
7.838388e-06
8.7095745e-06
9.689147e-06
1.0797026e-05
1.2058059e-05
1.3503196e-05
1.5170889e-05
1.7108769e-05
1.9449394e-05
2.2136147e-05
2.5317224e-05
2.9102392e-05
3.3625728e-05
3.905071e-05
4.5576258e-05
5.3444137e-05
6.2947945e-05
7.4444042e-05
8.8363202e-05
0.00010522859
0.00012567459
0.0001518142
0.00018211522
0.00021886915
0.00026345906
0.00031756599
0.00038323499
0.00046295629
0.00055976547
0.00067736802
0.00082029529
0.00099408816
0.0010192292
0.0010180351
0.001016797
0.0010155122
0.0010141775
0.0010127897
0.0010113456
0.0010098414
0.0010082736
0.0010067808
0.0010055151
0.0010044461
0.0010035478
0.0010027966
0.0010021719
0.0010016584
0.0010012441
0.0010009095
0.0010006318
0.0010004208
0.0010003052
0.0010002195
2.7215273e-07
1.0052724e-06
8.7975271e-07
8.2986944e-07
7.9711879e-07
7.9836576e-07
8.3926894e-07
9.1437609e-07
1.0181403e-06
1.1456068e-06
1.294135e-06
1.4628913e-06
1.6522272e-06
1.8631737e-06
2.0971941e-06
2.3560753e-06
2.6418798e-06
2.9569965e-06
3.3041562e-06
3.6864884e-06
4.1075671e-06
4.5714537e-06
5.0826703e-06
5.6466144e-06
6.2702411e-06
6.9618962e-06
7.731856e-06
8.5928452e-06
9.5607046e-06
1.0655193e-05
1.1900956e-05
1.3328684e-05
1.4976516e-05
1.6891711e-05
1.9132575e-05
2.1770618e-05
2.4893668e-05
2.8609574e-05
3.3050042e-05
3.8375548e-05
4.47814e-05
5.250488e-05
6.2314311e-05
7.368649e-05
8.7453123e-05
0.00010413143
0.0001243489
0.00014886698
0.0001786101
0.00021470114
0.00025850484
0.00031168123
0.00037625113
0.00045467678
0.00054996147
0.00066577343
0.00080660008
0.00097793113
0.001018811
0.0010176368
0.0010164207
0.0010151602
0.0010138526
0.0010124951
0.001011085
0.0010096191
0.0010080943
0.0010066372
0.0010054029
0.0010043612
0.0010034861
0.0010027544
0.0010021462
0.0010016461
0.0010012403
0.0010009101