/*--------------------------------*- C++ -*----------------------------------*\
  =========                 |
  \\      /  F ield         | OpenFOAM: The Open Source CFD Toolbox
   \\    /   O peration     | Website:  https://openfoam.org
    \\  /    A nd           | Version:  6
     \\/     M anipulation  |
\*---------------------------------------------------------------------------*/
FoamFile
{
    version     2.0;
    format      ascii;
    class       volScalarField;
    location    "900";
    object      omega;
}
// * * * * * * * * * * * * * * * * * * * * * * * * * * * * * * * * * * * * * //

dimensions      [0 0 -1 0 0 0 0];

internalField   nonuniform List<scalar> 
16000
(
1434.4459
1493.2706
763.92092
495.33296
332.59725
256.99864
192.39596
159.7386
129.17333
110.56289
93.66566
81.599775
71.042364
62.747306
55.625379
49.749669
44.744221
40.512203
36.870469
33.734231
31.00766
28.629315
26.541898
24.703032
23.076242
21.632538
20.347373
19.200534
18.174973
17.256413
16.432814
15.693996
15.03123
14.436967
13.904637
13.428471
13.003336
12.624625
12.288154
11.990071
11.726824
11.495179
11.292108
11.11477
10.960517
10.826893
10.711609
10.612557
10.527834
10.45575
10.394872
10.3441
10.30288
10.271874
10.250501
10.236809
10.22822
10.221795
10.215408
10.208128
10.198956
10.188201
10.175358
10.159859
10.141307
10.119889
10.096557
10.07362
10.052603
10.034924
10.019031
10.007691
9.9957802
9.990263
9.9818063
9.9897606
9.9837542
10.025741
9.9935291
10.037223
1339.209
1534.0804
765.90475
502.82251
334.57426
260.85453
194.08559
161.89589
130.42842
111.76479
94.470854
82.242711
71.486598
63.044494
55.843297
49.92835
44.887574
40.62956
36.966484
33.813522
31.073626
28.684808
26.589147
24.743773
23.111864
21.664137
20.375823
19.226514
18.198998
17.278849
16.453911
15.713926
15.050114
14.454875
13.921613
13.444539
13.01851
12.638915
12.301576
12.002641
11.738541
11.506051
11.302154
11.124011
10.968976
10.834603
10.718603
10.618865
10.533475
10.460721
10.399123
10.347475
10.304937
10.271322
10.247626
10.232358
10.223002
10.216368
10.210003
10.202981
10.195024
10.185408
10.173672
10.159208
10.141554
10.120705
10.097558
10.074376
10.05323
10.035163
10.019441
10.007453
9.9964836
9.9910796
9.9826249
9.9875048
9.9828387
10.020671
9.9938304
10.037819
1087.9825
1573.6002
765.81207
509.50721
335.88721
264.22044
195.43988
163.72495
131.46222
112.71151
95.084421
82.666733
71.748337
63.217156
55.968775
50.022513
44.955327
40.678062
37.000284
33.836144
31.088055
28.693273
26.593493
24.745316
23.111654
21.662967
20.374307
19.225096
18.197992
17.278442
16.454189
15.714907
15.051783
14.457178
13.924474
13.447875
13.022233
12.642938
12.305822
12.007046
11.743022
11.510534
11.30658
11.128332
10.973144
10.838585
10.722374
10.622401
10.536751
10.463698
10.401742
10.349623
10.306374
10.271469
10.245268
10.228218
10.217944
10.211026
10.204605
10.197585
10.189784
10.180976
10.170583
10.157377
10.140833
10.120786
10.09798
10.074708
10.053448
10.035197
10.019544
10.007246
9.9967596
9.9914951
9.9834631
9.9864204
9.9827615
10.01653
9.9940054
10.0346
1114.1382
1607.4177
764.18697
515.32944
336.63772
267.02085
196.51406
165.15713
132.27911
113.34618
95.485864
82.826955
71.845098
63.27784
55.997231
50.02779
44.943938
40.654594
36.969256
33.799873
31.049073
28.653156
26.553633
24.706594
23.074755
21.62835
20.342295
19.195881
18.171668
17.255001
16.433533
15.696891
15.036241
14.443919
13.913298
13.438577
13.014617
12.63681
12.301008
12.003399
11.74037
11.50872
11.305468
11.127801
10.973076
10.83888
10.72295
10.62318
10.537661
10.464664
10.402678
10.350415
10.306842
10.271252
10.243469
10.224416
10.213056
10.205784
10.199276
10.192206
10.184398
10.175698
10.165829
10.154146
10.138971
10.11999
10.097737
10.074523
10.053226
10.034913
10.019346
10.006892
9.9967691
9.9909154
9.9842558
9.9864161
9.9829564
10.011958
9.9943101
10.032741
1138.0521
1632.8471
761.40473
520.17592
336.84778
269.17236
197.31149
166.13007
132.8645
113.6189
95.648328
82.840877
71.821091
63.225505
55.927319
49.94323
44.852379
40.558367
36.872653
33.704116
30.956157
28.564014
26.469208
24.627321
23.000931
21.560103
20.279651
19.138775
18.119967
17.208499
16.391947
15.659905
15.003538
14.415167
13.888162
13.416737
12.995761
12.620637
12.287243
11.99181
11.730695
11.500717
11.298922
11.122517
10.968862
10.835573
10.720405
10.621266
10.536259
10.463658
10.401949
10.349834
10.306246
10.270389
10.24186
10.220969
10.208324
10.200619
10.194
10.186857
10.179003
10.170308
10.160566
10.149395
10.135874
10.118251
10.096799
10.073801
10.052558
10.034297
10.018854
10.006385
9.9965557
9.9903562
9.9848105
9.9863764
9.9833811
10.007901
9.9946456
10.029141
1159.6824
1645.9331
757.95586
523.90474
336.55461
270.5668
197.84293
166.56093
133.19831
113.54242
95.544039
82.705499
71.673224
63.057736
55.756644
49.766988
44.678934
40.387991
36.709254
33.547858
30.80844
28.425141
26.339629
24.507013
22.889801
21.457928
20.186155
19.053616
18.042782
17.138874
16.329412
15.603961
14.953712
14.370982
13.849149
13.382446
12.965768
12.59453
12.264634
11.972387
11.714105
11.486629
11.287038
11.112571
10.96059
10.828741
10.71481
10.616721
10.532598
10.460723
10.399587
10.34789
10.304549
10.26872
10.239866
10.217923
10.203751
10.195517
10.188768
10.181534
10.173613
10.164887
10.155185
10.144227
10.131464
10.11553
10.095163
10.072548
10.051459
10.033352
10.018088
10.005716
9.9961417
9.9897648
9.9850903
9.9861834
9.9839184
10.004773
9.9950652
10.026704
1179.0591
1644.4258
754.04496
526.32141
335.81666
271.07877
198.12431
166.35758
133.2482
113.2667
95.289904
82.421649
71.40097
62.774784
55.484899
49.499108
44.423462
40.143453
36.479043
33.331185
30.606034
28.236706
26.165101
24.345936
22.741665
21.322163
20.06217
18.940796
17.94052
17.046549
16.246361
15.529499
14.887203
14.311799
13.796681
13.336114
12.92503
12.558862
12.233528
11.945453
11.690899
11.466729
11.270063
11.098186
10.948456
10.818558
10.706316
10.609674
10.526786
10.455947
10.39566
10.344629
10.301768
10.266209
10.237341
10.214916
10.199343
10.190459
10.183563
10.176225
10.168223
10.159446
10.149744
10.138889
10.12649
10.111759
10.09281
10.070767
10.049934
10.032081
10.017061
10.004877
9.9955442
9.989153
9.9851138
9.985471
9.9844762
10.002233
9.9954267
10.02393
1196.2774
1641.1443
749.03719
527.25097
334.71547
270.58895
198.17365
165.74978
132.94877
112.79814
94.887344
81.992246
71.004868
62.377842
55.112348
49.140122
44.086182
39.825052
36.182263
33.05438
30.349249
27.99905
25.946009
24.144508
22.556977
21.153296
19.908213
18.80085
17.81373
16.932083
16.14336
15.437082
14.804567
14.238162
13.731287
13.278248
12.874031
12.514092
12.194348
11.911399
11.661436
11.441347
11.248291
11.079626
10.932695
10.805228
10.695102
10.600277
10.518951
10.449438
10.390255
10.340119
10.297947
10.26286
10.234206
10.211614
10.195123
10.185433
10.178372
10.170922
10.162828
10.153988
10.144265
10.133463
10.121269
10.107113
10.089742
10.06848
10.048008
10.030502
10.015799
10.003882
9.9947969
9.9885131
9.9849584
9.9847533
9.9849818
9.9998565
9.9956526
10.021397
1211.4661
1638.9825
743.05708
526.54223
333.33233
268.95743
197.96796
164.87756
132.33935
112.14502
94.337793
81.421028
70.485944
61.868787
54.639861
48.691122
43.667895
39.433578
35.819677
32.718226
30.038872
27.712983
25.683173
23.903583
22.336613
20.952216
19.725185
18.634681
17.663312
16.796367
16.021292
15.327571
14.706639
14.150877
13.653737
13.209576
12.813451
12.460865
12.147676
11.87076
11.626204
11.410921
11.222111
11.057238
10.913612
10.789017
10.681395
10.588725
10.509259
10.441333
10.383484
10.334447
10.293149
10.25871
10.230457
10.207961
10.191128
10.180424
10.173181
10.165613
10.157422
10.148511
10.138756
10.127983
10.115935
10.102185
10.085954
10.065717
10.045708
10.028638
10.01433
10.00275
9.9939377
9.987856
9.9846667
9.9841628
9.985415
9.9976864
9.9957759
10.018723
1224.7928
1637.5772
736.21882
523.94281
331.74222
266.87897
197.43781
163.77105
131.57243
111.31504
93.641926
80.711586
69.845162
61.249375
54.068376
48.15327
43.169546
38.969987
35.392248
32.323734
29.675944
27.379581
25.377701
23.624297
22.08173
20.720098
19.514268
18.44347
17.490427
16.640542
15.881278
15.202054
14.594467
14.050945
13.564982
13.130988
12.744118
12.399963
12.094213
11.824171
11.58578
11.375973
11.19198
11.031424
10.891564
10.770231
10.665462
10.575244
10.497898
10.431788
10.375477
10.327719
10.287455
10.253813
10.22611
10.203871
10.186895
10.175423
10.16798
10.160293
10.152003
10.143019
10.133226
10.12247
10.110531
10.097059
10.081444
10.062522
10.043073
10.026526
10.012686
10.001507
9.9930042
9.9871903
9.9842811
9.9836948
9.9857714
9.995795
9.9958255
10.015975
1236.4497
1636.4528
728.65453
519.11767
329.96891
264.45312
196.46516
162.4488
130.64878
110.31679
92.801022
79.867849
69.083939
60.521622
53.399196
47.527999
42.592438
38.435518
34.901299
31.872272
29.261884
27.000287
25.031069
23.308174
21.793867
20.458489
19.277011
18.228751
17.296574
16.466061
15.72474
15.061896
14.46935
13.939599
13.466186
13.04357
12.667022
12.33233
12.034791
11.772385
11.540838
11.337114
11.158425
11.002653
10.866959
10.749221
10.647604
10.560086
10.48508
10.420981
10.366378
10.320051
10.28096
10.248242
10.221213
10.19937
10.182427
10.170427
10.162761
10.154957
10.14657
10.137514
10.127683
10.11694
10.105094
10.091863
10.076771
10.058952
10.040151
10.024204
10.010904
10.000184
9.9920357
9.9865341
9.9838464
9.9833338
9.9860552
9.9942798
9.9958947
10.013578
1246.7162
1634.9905
720.54416
511.62149
328.00556
261.742
194.98996
160.93113
129.569
109.15928
91.816845
78.89373
68.203976
59.687538
52.63376
46.816863
41.938133
37.831625
34.341692
31.358501
28.791583
26.570385
24.639028
22.951483
21.469785
20.164603
19.011036
17.988503
17.080034
16.271453
15.55046
14.906073
14.330433
13.816128
13.356767
12.946848
12.581742
12.257696
11.970363
11.716253
11.49214
11.295037
11.122036
10.971441
10.840256
10.726373
10.628157
10.543534
10.47104
10.409105
10.356348
10.311575
10.273767
10.242075
10.215822
10.19449
10.177736
10.165442
10.157518
10.149603
10.141125
10.132003
10.122138
10.111408
10.099649
10.086628
10.07198
10.055072
10.036998
10.021723
10.009026
9.9988148
9.9910687
9.9859065
9.9834068
9.983062
9.9862539
9.9931771
9.9959592
10.011607
1255.8629
1632.3045
712.07525
503.52793
325.77758
258.81129
193.4122
159.2345
128.33071
107.84881
90.689795
77.791379
67.206081
58.748188
51.76094
46.005801
41.192191
37.146084
33.714381
30.785234
28.269009
26.094468
24.206478
22.559287
21.114536
19.843388
18.721138
17.727329
16.845162
16.060789
15.362292
14.738174
14.181035
13.683587
13.239535
12.843399
12.490512
12.177678
11.900421
11.655351
11.439329
11.249504
11.083449
10.938344
10.811954
10.702101
10.607484
10.525889
10.456029
10.396368
10.345556
10.30243
10.265989
10.235402
10.210001
10.189268
10.172832
10.160489
10.152252
10.144234
10.135674
10.126495
10.116606
10.105895
10.09422
10.081389
10.067121
10.050959
10.033677
10.019133
10.007094
9.997438
9.9901377
9.9853274
9.9829979
9.9828632
9.9863288
9.9923873
9.9960343
10.009941
1264.188
1627.2345
703.39737
494.97183
323.12047
255.69971
191.72258
157.37687
126.93327
106.39177
89.4214
76.563026
66.064682
57.674558
50.773615
45.095633
40.35973
36.385309
33.021555
30.154901
27.696875
25.575372
23.736272
22.134538
20.731064
19.497746
18.410158
17.447992
16.594596
15.836472
15.162572
14.560377
14.02317
13.543826
13.116196
12.734865
12.394832
12.093866
11.827232
11.591667
11.384099
11.201661
11.042297
10.903063
10.781854
10.676843
10.585974
10.507476
10.440314
10.382989
10.334182
10.29276
10.257744
10.228318
10.203823
10.183749
10.167714
10.155476
10.146966
10.138858
10.130228
10.121004
10.111103
10.100422
10.088835
10.076184
10.062248
10.046698
10.030259
10.016492
10.005153
9.9960916
9.9892758
9.9848205
9.9826549
9.9827439
9.9862655
9.9913959
9.9960858
10.008591
1271.9965
1618.0511
694.65228
485.99195
319.70265
252.44319
189.90335
155.37357
125.37593
104.79188
87.966887
75.15043
64.768225
56.469065
49.671672
44.087179
39.442476
35.551565
32.266037
29.470576
27.078626
25.016698
23.231929
21.680872
20.322959
19.131162
18.081462
17.153748
16.331448
15.601204
14.951543
14.372819
13.856881
13.396799
12.986633
12.621259
12.29622
12.007615
11.751998
11.52627
11.327484
11.152537
11.00006
10.866828
10.750757
10.650312
10.563445
10.488639
10.424175
10.369196
10.32241
10.282716
10.249155
10.220922
10.197366
10.177989
10.162403
10.15034
10.14167
10.133485
10.1248
10.115549
10.105651
10.095014
10.083527
10.071052
10.057416
10.042376
10.026817
10.01386
10.003248
9.994812
9.9885116
9.9844135
9.9824155
9.9827054
9.986155
9.9906023
9.9960473
10.007429
1279.5654
1602.1582
685.9541
476.62364
316.08281
249.07173
187.92437
153.23374
123.65841
102.95261
86.293857
73.555888
63.312828
55.129946
48.455209
42.98174
38.442919
34.647968
31.451697
28.736286
26.41877
24.423133
22.697793
21.198749
19.890365
18.743549
17.73483
16.844367
16.055628
15.355751
14.733533
14.179581
13.685975
13.245996
12.853899
12.504728
12.194172
11.918456
11.674268
11.458717
11.269211
11.102934
10.957454
10.83034
10.719357
10.623475
10.540491
10.469173
10.407909
10.35523
10.310433
10.272451
10.240345
10.213317
10.190716
10.172056
10.156952
10.145117
10.13638
10.128134
10.119412
10.110149
10.100274
10.089701
10.078328
10.066038
10.052685
10.038086
10.023427
10.011293
10.001422
9.9936308
9.9878648
9.984128
9.9823161
9.9827617
9.9860059
9.9899447
9.9958434
10.006375
1287.1232
1575.5691
677.38927
466.84082
312.60413
245.61163
185.75282
150.88652
121.60577
100.85656
84.389644
71.771507
61.694341
53.655648
47.125223
41.781748
37.365063
33.679031
30.584087
27.957322
25.716783
23.793984
22.134551
20.695063
19.440519
18.342113
17.377233
16.526542
15.773276
15.105308
14.511768
13.983567
13.513063
13.09379
12.72023
12.38763
12.091845
11.829227
11.596554
11.391049
11.210573
11.052283
10.913976
10.793293
10.688193
10.596858
10.517585
10.449583
10.391307
10.341347
10.298451
10.262121
10.231439
10.205607
10.183958
10.166022
10.151417
10.139849
10.131116
10.122829
10.114087
10.104833
10.095001
10.084513
10.073276
10.061184
10.048113
10.033918
10.020163
10.008849
9.9997152
9.9925739
9.9873461
9.9839731
9.9823735
9.9829359
9.985875
9.9893921
9.9955114
10.005409
1294.8292
1531.9172
668.83984
456.54376
309.16443
242.04635
184.16563
148.21137
119.19216
98.481282
82.23948
69.786721
59.908076
52.045251
45.684306
40.491376
36.215338
32.651058
29.660677
27.133189
24.982011
23.13939
21.551766
20.176533
18.979762
17.932612
17.013752
16.205047
15.488691
14.853725
14.289679
13.787823
13.340837
12.942546
12.587699
12.271775
11.990836
11.741386
11.520262
11.324518
11.152916
11.002356
10.871015
10.756495
10.656796
10.570215
10.495186
10.430267
10.374781
10.327353
10.286686
10.251892
10.222559
10.197896
10.177182
10.159961
10.14586
10.134582
10.125908
10.117598
10.108856
10.099631
10.089864
10.079483
10.068405
10.056534
10.043759
10.029955
10.017093
10.00658
9.9981649
9.9916604
9.9869592
9.9839504
9.9825876
9.9832343
9.9858242
9.9890039
9.9952041
10.004442
1302.4767
1474.4638
659.62615
445.53054
305.59639
240.10014
181.72036
145.0611
116.39238
95.78359
79.821631
67.588937
57.949467
50.299722
44.138422
39.117342
34.987657
31.561444
28.694692
26.277358
24.224134
22.468471
20.957947
19.650782
18.515349
17.521572
16.649661
15.881759
15.203194
14.601863
14.067748
13.592519
13.169216
12.791986
12.455867
12.156605
11.890503
11.654302
11.445085
11.260212
11.097265
10.953958
10.829291
10.720725
10.626211
10.544141
10.47305
10.41161
10.358632
10.31359
10.274969
10.241951
10.213828
10.19029
10.170476
10.153949
10.140345
10.12937
10.120792
10.112478
10.103756
10.09458
10.084897
10.074646
10.063752
10.052129
10.039674
10.026272
10.01428
10.004535
9.9968026
9.9909015
9.986699
9.9840492
9.9829298
9.9836255
9.9858925
9.9888479
9.9948563
10.003405
1309.9929
1429.1618
649.58485
440.56703
303.98584
236.13098
178.30861
141.39328
113.15303
92.738931
77.119184
65.174004
55.821788
48.426665
42.479535
37.655359
33.701373
30.430241
27.700024
25.402696
23.45494
21.791972
20.36311
19.12595
18.050949
17.112315
16.289109
15.564252
14.92375
14.356093
13.851778
13.402926
13.002973
12.646413
12.328592
12.045529
11.793769
11.570267
11.372284
11.197338
11.043212
10.907868
10.789378
10.686491
10.596905
10.5191
10.451685
10.393399
10.343113
10.300313
10.263588
10.232163
10.205363
10.18289
10.16393
10.148064
10.13494
10.124267
10.11581
10.107512
10.098829
10.08972
10.08014
10.070036
10.059347
10.047996
10.035894
10.022928
10.01177
10.002754
9.9956569
9.9903079
9.9865592
9.9842496
9.9833592
9.9840761
9.9861013
9.988903
9.9944034
10.002208
1316.9385
1408.1234
641.6881
443.14696
304.01217
230.75856
174.27194
137.10889
109.41433
89.321882
74.123666
62.547271
53.539271
46.421839
40.732716
36.134564
32.377281
29.276495
26.693832
24.524477
22.687901
21.121433
19.773492
18.609046
17.597578
16.714536
15.940046
15.257939
14.654999
14.120386
13.645167
13.221956
12.844608
12.507982
12.20774
11.940179
11.702098
11.490675
11.303359
11.137741
10.991739
10.863491
10.751791
10.654239
10.569278
10.495475
10.431512
10.376192
10.328443
10.287734
10.252779
10.222842
10.197279
10.175796
10.157632
10.142385
10.129714
10.119334
10.111011
10.102749
10.094124
10.085099
10.075636
10.065691
10.055216
10.044153
10.032432
10.019967
10.0096
10.001267
9.9947555
9.9899003
9.9865467
9.9845381
9.9838573
9.9845907
9.9863698
9.9888595
9.993822
10.000704
1321.8043
1417.4765
634.42425
436.68064
299.53559
224.83791
169.29496
132.26665
105.16093
85.537796
70.849995
59.732353
51.10113
44.32438
38.930661
34.584653
31.041941
28.123584
25.696397
23.660102
21.938203
20.467298
19.203732
18.112163
17.163788
16.335493
15.608619
14.968018
14.401335
13.898456
13.451061
13.052279
12.6964
12.37865
12.094996
11.842002
11.61671
11.416552
11.239296
11.082465
10.944014
10.823009
10.716989
10.624357
10.543654
10.473533
10.412756
10.360171
10.314808
10.276013
10.24268
10.214111
10.189689
10.169108
10.151671
10.136992
10.12474
10.114636
10.10645
10.098246
10.089698
10.080774
10.071441
10.061661
10.051397
10.040603
10.029232
10.017419
10.007787
10.000088
9.9941156
9.9897034
9.986691
9.9849356
9.9844236
9.9851559
9.9867399
9.9890107
9.9933963
9.9992315
1322.3326
1425.9168
625.24357
426.40583
293.53966
217.76956
163.31532
126.71865
100.36804
81.380596
67.313892
56.733711
48.564559
42.179283
37.113832
33.041236
29.726373
26.998206
24.730173
22.827394
21.217785
19.84594
18.665509
17.645076
16.757757
15.982032
15.300562
14.699293
14.166784
13.693678
13.27229
12.896278
12.560374
12.260163
11.991904
11.752381
11.538786
11.348626
11.180731
11.03225
10.901334
10.786258
10.685399
10.597219
10.520345
10.453521
10.395621
10.345433
10.302393
10.265304
10.233419
10.20608
10.182707
10.16293
10.146141
10.131969
10.120093
10.110243
10.10219
10.094067
10.085618
10.076815
10.067628
10.058025
10.04797
10.037426
10.026352
10.0153
10.006331
9.9992044
9.9937189
9.9897045
9.9869975
9.9854685
9.9850933
9.9858087
9.987264
9.989435
9.993353
9.9984017
1315.9457
1377.299
616.39184
415.05262
285.60576
209.4289
156.33326
120.50634
95.113454
76.944091
63.614882
53.650918
46.005616
40.049713
35.334838
31.548365
28.46783
25.932424
23.823578
22.052709
20.552709
19.272089
18.170873
17.217687
16.387668
15.660949
15.021543
14.456507
13.955315
13.509369
13.111615
12.756238
12.438413
12.154102
11.899882
11.672804
11.470277
11.29004
11.130052
10.988451
10.863519
10.753667
10.657427
10.573211
10.499696
10.435656
10.380464
10.332677
10.291384
10.255766
10.225113
10.198806
10.176451
10.157366
10.141135
10.1274
10.115852
10.106225
10.098294
10.090275
10.081948
10.073289
10.064272
10.054867
10.045044
10.034771
10.024013
10.013622
10.005228
9.998597
9.9935311
9.9898574
9.9874142
9.9860824
9.9858187
9.9865148
9.9878807
9.9899764
9.9935017
9.9978574
1299.8722
1324.5163
607.74263
401.42136
275.98652
200.01997
148.51998
113.80813
89.587272
72.407096
59.912526
50.618318
43.530353
38.019752
33.661052
30.160274
27.309702
24.961055
23.004782
21.359286
19.962907
18.768429
17.739236
16.846609
16.067783
15.384558
14.782275
14.24906
13.775244
13.352928
12.975627
12.637999
12.335613
12.06477
11.822345
11.605674
11.412225
11.239888
11.086749
10.951046
10.831135
10.725472
10.633324
10.552692
10.482316
10.421054
10.367861
10.32179
10.281992
10.24762
10.217983
10.19271
10.171045
10.152527
10.136754
10.123377
10.112098
10.102655
10.094829
10.086935
10.078751
10.070256
10.061427
10.052237
10.042662
10.032673
10.022242
10.012397
10.004478
9.9982558
9.9935333
9.9901367
9.9879084
9.9867359
9.9865548
9.9872332
9.988546
9.9905884
9.9937956
9.9976075
1268.0056
1271.1498
600.84596
385.30106
264.14986
189.23003
139.70835
106.57225
83.81453
67.820047
56.261838
47.68554
41.166032
36.104948
32.103007
28.88709
26.258553
24.087762
22.274968
20.746025
19.444979
18.329008
17.364904
16.526586
15.793349
15.148609
14.578984
14.07361
13.623625
13.221772
12.862082
12.539621
12.250285
11.990627
11.757714
11.54993
11.364242
11.19869
11.051491
10.921002
10.805691
10.704125
10.614956
10.536928
10.468756
10.409343
10.357675
10.312832
10.274326
10.241073
10.212414
10.187769
10.166625
10.148534
10.133104
10.119996
10.108917
10.099612
10.091864
10.084114
10.076092
10.067777
10.059149
10.050187
10.040868
10.031168
10.021061
10.011633
10.004076
9.9981625
9.9936973
9.9905065
9.9884375
9.9873798
9.9872496
9.987906
9.989179
9.9911593
9.9940843
9.9974549
1218.3563
1206.3949
588.55991
365.60747
248.79279
177.0727
130.5573
99.700835
78.704442
63.983738
53.334483
45.405267
39.35174
34.64288
30.913075
27.909277
25.454647
23.422831
21.72181
20.283379
19.056155
18.000824
17.086864
16.290247
15.591864
14.976413
14.431533
13.947173
13.515128
13.128668
12.782253
12.471304
12.192009
11.941169
11.716069
11.514274
11.333717
11.172541
11.029056
10.901697
10.788997
10.689572
10.602119
10.526007
10.459488
10.401504
10.351083
10.307338
10.269466
10.236745
10.208532
10.184258
10.16342
10.145578
10.130347
10.117392
10.106422
10.097185
10.089465
10.081876
10.07403
10.065908
10.057494
10.048769
10.039713
10.030307
10.020529
10.01137
10.004045
9.9983266
9.9940207
9.9909534
9.9889772
9.9879803
9.9878633
9.988488
9.9897352
9.9916828
9.994419
9.9974891
1161.5493
1127.1615
564.27124
343.09616
228.92922
161.24934
118.7895
90.960616
72.205732
59.109693
49.645672
42.597277
37.212138
32.994916
29.627543
26.895197
24.646706
22.773434
21.195777
19.854354
18.704127
17.710425
16.846054
16.089514
15.423853
14.835313
14.312712
13.846904
13.430377
13.056939
12.721471
12.419721
12.148139
11.903731
11.684766
11.488194
11.312069
11.154649
11.014351
10.889702
10.779312
10.681865
10.596116
10.520892
10.455091
10.397686
10.347733
10.304364
10.266795
10.234318
10.206302
10.182185
10.161473
10.143729
10.128573
10.115673
10.10474
10.095523
10.087807
10.080387
10.072719
10.064789
10.05658
10.048075
10.039258
10.030111
10.020615
10.011582
10.004361
9.9987272
9.9944815
9.9914513
9.9894906
9.9884815
9.9883135
9.9888647
9.9900529
9.9918988
9.9943664
9.9971427
1124.894
1170.1736
575.42947
346.38494
229.18953
160.33964
117.6685
90.123892
71.691077
58.842476
49.546398
42.601073
37.271053
33.087035
29.739526
27.017146
24.771548
22.896254
21.313284
19.964471
18.805678
17.802863
16.929529
16.164753
15.49157
14.896257
14.367594
13.896383
13.475051
13.097347
12.758094
12.452994
12.178453
11.931444
11.709389
11.510063
11.331501
11.171841
11.029462
10.902884
10.790715
10.691641
10.604415
10.527861
10.460873
10.402418
10.351543
10.307371
10.269106
10.236031
10.207503
10.18295
10.161868
10.143811
10.128391
10.115267
10.104143
10.094764
10.086905
10.079682
10.07222
10.064503
10.056516
10.048244
10.039669
10.030777
10.021548
10.012395
10.005075
9.9993649
9.995058
9.991976
9.9899681
9.9889065
9.9886744
9.989163
9.9902991
9.9920518
9.9943446
9.997007
1162.5028
1239.2198
596.73478
361.92004
238.75072
167.06639
122.36767
93.553355
74.254307
60.812508
51.089812
43.828042
38.256672
33.885915
30.391879
27.553374
25.21509
23.265444
21.622596
20.225419
19.027477
17.992952
17.0938
16.307738
15.616861
15.006702
14.465477
13.983541
13.552963
13.167203
12.820851
12.509417
12.229153
11.976912
11.750022
11.546186
11.363392
11.199928
11.054147
10.924512
10.809597
10.708058
10.618627
10.540108
10.471376
10.411382
10.359154
10.3138
10.274508
10.240544
10.211251
10.186042
10.164401
10.145869
10.130048
10.116588
10.105185
10.095574
10.087527
10.08053
10.073297
10.065814
10.058068
10.050042
10.041722
10.03309
10.024131
10.014827
10.007136
10.001107
9.9965272
9.99321
9.9909972
9.989752
9.9893538
9.9896989
9.9907071
9.9923134
9.9944403
9.9970076
30467.443
32883.409
18950.149
13125.899
9522.1042
6940.3338
5062.9466
3712.2278
2738.8327
2037.0726
1523.9624
1147.5667
866.56875
660.86903
501.49174
382.31867
289.64336
219.89784
168.28766
130.37029
102.21693
81.52493
66.234543
54.889367
46.432856
40.035794
35.145027
31.333178
28.306879
25.837262
23.771588
22.015629
20.502371
19.184546
18.02809
17.008028
16.105509
15.305878
14.597386
13.970345
13.4165
12.928652
12.500436
12.126105
11.800391
11.518414
11.275599
11.067473
10.890509
10.742087
10.620157
10.522281
10.444022
10.382287
10.334945
10.300005
10.2751
10.25795
10.245068
10.234632
10.223755
10.213465
10.199735
10.186866
10.166103
10.149299
10.119008
10.100968
10.056568
10.04004
10.008215
10.002714
9.9758138
9.9823347
9.9516174
9.9819256
9.950559
10.004042
9.9630397
10.002586
33331.641
28242.504
21495.92
16283.191
12076.864
8797.8505
6373.5833
4618.8978
3363.3806
2464.7528
1817.1819
1346.1631
1001.4767
747.44654
559.66232
420.44131
317.10841
240.5996
183.92289
142.01229
110.86271
87.872499
70.889284
58.317935
48.9844
41.943488
36.58247
32.429046
29.160561
26.520775
24.325262
22.46772
20.874386
19.49232
18.283584
17.220439
16.282086
15.452462
14.718766
14.070507
13.498792
12.995912
12.555076
12.170194
11.835701
11.546473
11.297746
11.084746
10.903696
10.751813
10.627034
10.526562
10.445845
10.382157
10.333286
10.297412
10.272547
10.255654
10.243122
10.233109
10.222583
10.212687
10.199227
10.186731
10.16613
10.149614
10.119362
10.101532
10.057652
10.041347
10.00914
10.00392
9.9766827
9.9834545
9.9527353
9.9827067
9.9518778
10.005018
9.964234
10.004035
36658.749
20080.591
12948.495
8333.0124
4654.1229
2267.118
1038.7768
498.35061
280.45392
188.93665
146.3923
121.02127
104.32466
91.059253
80.732307
72.140719
64.645217
58.73085
53.17031
48.727735
44.469717
41.000125
37.781504
34.944016
32.413048
30.059342
27.977639
26.090564
24.385306
22.820079
21.390411
20.100232
18.93864
17.892759
16.9517
16.105786
15.34651
14.66627
14.058263
13.516381
13.03498
12.608895
12.233388
11.904006
11.616556
11.367064
11.151748
10.966529
10.808746
10.676575
10.56863
10.481332
10.410573
10.354844
10.31235
10.282232
10.26198
10.248348
10.237674
10.228905
10.218713
10.209415
10.195623
10.183691
10.162137
10.146588
10.114935
10.098882
10.053443
10.040538
10.006844
10.004359
9.9754939
9.9845869
9.9520632
9.9844291
9.9518424
10.006879
9.964566
10.005572
33903.627
23417.106
13778.221
7748.7327
3595.6081
1419.2204
561.14372
281.30888
192.90598
152.71869
129.99084
111.55371
98.374542
86.550912
77.395932
69.489825
62.431925
57.045027
51.640098
47.517294
43.3258
40.099838
36.875096
34.227717
31.673584
29.476816
27.399764
25.596459
23.905359
22.379856
21.003389
19.762079
18.643907
17.636689
16.729814
15.914008
15.181206
14.5242
13.936554
13.412464
12.94658
12.534011
12.170241
11.851027
11.572348
11.330389
11.12151
10.941726
10.788601
10.660446
10.555734
10.470276
10.400933
10.346394
10.305282
10.2768
10.257819
10.245114
10.235075
10.226764
10.216875
10.207819
10.194191
10.182378
10.160913
10.145416
10.11388
10.097946
10.053321
10.041242
10.007119
10.00551
9.9760865
9.9859843
9.9529491
9.9859472
9.9528334
10.008672
9.9655361
10.0072
35904.22
23023.654
13333.056
7268.1087
3263.8119
1240.8846
492.34497
259.2807
184.42766
147.32788
125.79084
107.8276
95.23702
83.816263
75.250318
67.456209
61.080355
55.37261
50.532889
46.20916
42.452297
39.058546
36.079785
33.382122
30.977651
28.797298
26.83607
25.045959
23.426046
21.960869
20.638193
19.444965
18.368695
17.398041
16.523089
15.735193
15.02684
14.391267
13.822417
13.314792
12.863317
12.463341
12.110549
11.800872
11.530444
11.29559
11.092795
10.918158
10.769457
10.645123
10.543289
10.459491
10.391472
10.33806
10.298761
10.271832
10.254051
10.242174
10.232741
10.224797
10.21523
10.206313
10.192919
10.181081
10.159846
10.144189
10.11301
10.096837
10.053119
10.041056
10.007347
10.005135
9.9767103
9.9862725
9.9538181
9.9866898
9.9537974
10.01007
9.9664854
10.008644
36465.231
22700.807
12948.865
6713.7173
2741.4167
957.55814
390.47503
227.67697
173.95101
141.21286
121.72442
104.23357
92.319504
81.129036
73.018334
65.423721
59.321245
53.784635
49.144716
44.96949
41.343802
38.100246
35.220942
32.631236
30.306109
28.20606
26.306056
24.580704
23.014841
21.598158
20.319314
19.165031
18.123354
17.183409
16.335738
15.57208
14.885255
14.268783
13.71685
13.224167
12.785857
12.397455
12.054803
11.75397
11.49122
11.262998
11.065895
10.896081
10.75154
10.630805
10.531389
10.449083
10.382298
10.330492
10.292988
10.267489
10.250792
10.239655
10.230749
10.22312
10.213815
10.205007
10.191796
10.179922
10.158873
10.143059
10.112192
10.095918
10.053098
10.041324
10.007746
10.005874
9.9773486
9.9872064
9.9547223
9.987664
9.9547923
10.011558
9.9674483
10.010106
37402.03
22443.212
12517.444
6153.2201
2381.5811
801.33738
343.54146
214.67818
168.60277
137.88301
118.96459
101.768
90.175384
79.109616
71.260887
63.801145
57.91659
52.516348
48.029653
43.965064
40.453486
37.293961
34.500957
31.983053
29.727719
27.688468
25.845573
24.168972
22.648471
21.273381
20.032199
18.911825
17.900544
16.987791
16.164415
15.422452
14.754991
14.155777
13.619195
13.140129
12.713874
12.336114
12.002821
11.710181
11.454567
11.232523
11.040736
10.875435
10.734799
10.617446
10.519924
10.438976
10.373598
10.323784
10.287943
10.263737
10.248009
10.237516
10.229062
10.221684
10.212597
10.203852
10.1908
10.178852
10.157982
10.141977
10.111434
10.095058
10.053048
10.041252
10.008045
10.006305
9.9779691
9.9878482
9.955632
9.988508
9.9557901
10.012996
9.9684114
10.01154
38159.425
22089.113
12029.018