/*--------------------------------*- C++ -*----------------------------------*\
  =========                 |
  \\      /  F ield         | OpenFOAM: The Open Source CFD Toolbox
   \\    /   O peration     | Website:  https://openfoam.org
    \\  /    A nd           | Version:  6
     \\/     M anipulation  |
\*---------------------------------------------------------------------------*/
FoamFile
{
    version     2.0;
    format      ascii;
    class       volScalarField;
    location    "900";
    object      p;
}
// * * * * * * * * * * * * * * * * * * * * * * * * * * * * * * * * * * * * * //

dimensions      [1 -1 -2 0 0 0 0];

internalField   nonuniform List<scalar> 
16000
(
99125.264
99183.097
99187.064
99242.728
99254.837
99305.615
99326.846
99373.268
99402.255
99446.114
99480.936
99523.973
99562.99
99606.414
99648.466
99692.925
99737.238
99782.949
99828.975
99875.866
99923.15
99970.961
100019.06
100067.4
100115.82
100164.22
100212.43
100260.33
100307.76
100354.55
100400.56
100445.63
100489.59
100532.29
100573.57
100613.29
100651.3
100687.47
100721.69
100753.83
100783.82
100811.55
100836.97
100860.02
100880.66
100898.87
100914.64
100927.97
100938.87
100947.38
100953.53
100957.38
100958.96
100958.36
100955.63
100950.85
100944.1
100935.45
100924.97
100912.77
100898.89
100883.46
100866.47
100848.17
100828.26
100807.49
100784.6
100762.12
100735.44
100713.11
100679.54
100662.77
100613.68
100618.86
100525.73
100593.83
100389.67
100620.93
100189.83
100676.47
99178.068
99240.041
99243.974
99304.104
99316.551
99371.447
99393.731
99443.753
99474.482
99521.51
99558.558
99604.495
99646.002
99692.172
99736.806
99783.902
99830.768
99878.992
99927.449
99976.678
100026.19
100076.09
100126.13
100176.24
100226.23
100275.99
100325.33
100374.09
100422.12
100469.22
100515.25
100560.01
100603.35
100645.11
100685.13
100723.26
100759.37
100793.35
100825.08
100854.47
100881.45
100905.96
100927.97
100947.44
100964.37
100978.76
100990.65
101000.07
101007.05
101011.67
101013.98
101014.06
101011.99
101007.85
101001.72
100993.7
100983.87
100972.31
100959.12
100944.36
100928.13
100910.5
100891.53
100871.32
100849.83
100827.33
100803.41
100779.01
100752.36
100726.95
100695.96
100672.55
100631.33
100621.39
100549.76
100586.13
100422.95
100601.99
100221.79
100662.12
99252.187
99319.215
99323.172
99388.134
99401.329
99460.422
99484.276
99537.889
99570.835
99621.036
99660.685
99709.561
99753.823
99802.8
99850.184
99899.965
99949.466
100000.21
100051.1
100102.62
100154.27
100206.13
100257.93
100309.58
100360.87
100411.65
100461.73
100510.93
100559.06
100605.93
100651.37
100695.2
100737.23
100777.32
100815.31
100851.06
100884.46
100915.4
100943.79
100969.58
100992.71
101013.15
101030.91
101045.99
101058.43
101068.25
101075.53
101080.33
101082.74
101082.84
101080.72
101076.49
101070.24
101062.08
101052.12
101040.44
101027.14
101012.33
100996.08
100978.48
100959.61
100939.54
100918.33
100896.04
100872.71
100848.43
100823.09
100797.02
100769.57
100742.12
100711.74
100684.41
100647.5
100627.49
100569.39
100584.48
100450.33
100587.66
100249.38
100650.32
99349.039
99421.512
99425.527
99495.858
99509.912
99573.679
99599.328
99656.917
99692.388
99746.085
99788.659
99840.76
99888.071
99940.1
99990.472
100043.13
100095.43
100148.82
100202.21
100256.04
100309.8
100363.53
100416.95
100469.92
100522.22
100573.67
100624.06
100673.2
100720.87
100766.88
100811.03
100853.15
100893.06
100930.61
100965.66
100998.08
101027.78
101054.68
101078.73
101099.89
101118.15
101133.52
101146.05
101155.78
101162.78
101167.14
101168.95
101168.32
101165.37
101160.22
101152.99
101143.81
101132.8
101120.07
101105.75
101089.95
101072.78
101054.32
101034.67
101013.92
100992.13
100969.38
100945.72
100921.2
100895.86
100869.74
100842.81
100815.19
100786.63
100757.65
100727.03
100697.34
100662.56
100636.5
100586.65
100586.55
100474.95
100579.41
100277.45
100650.63
99468.254
99546.914
99551.202
99627.651
99642.895
99711.892
99739.776
99801.74
99840.195
99897.704
99943.61
99999.203
100049.88
100105.18
100158.76
100214.45
100269.66
100325.74
100381.64
100437.71
100493.46
100548.86
100603.61
100657.55
100710.44
100762.07
100812.19
100860.61
100907.09
100951.43
100993.43
101032.92
101069.73
101103.73
101134.78
101162.79
101187.71
101209.48
101228.08
101243.54
101255.89
101265.18
101271.5
101274.94
101275.63
101273.69
101269.26
101262.48
101253.51
101242.49
101229.59
101214.94
101198.7
101180.99
101161.94
101141.68
101120.31
101097.94
101074.65
101050.53
101025.64
101000.04
100973.78
100946.91
100919.44
100891.4
100862.78
100833.62
100803.81
100773.51
100742.22
100710.92
100676.95
100646.9
100602.72
100590.43
100497.38
100575.67
100303.99
100653.6
99612.919
99698.817
99703.413
99786.566
99803.12
99877.731
99908.151
99974.748
100016.55
100078.08
100127.65
100186.93
100241.24
100299.97
100356.93
100415.74
100473.93
100532.7
100591.04
100649.21
100706.72
100763.5
100819.21
100873.66
100926.57
100977.71
101026.83
101073.7
101118.08
101159.77
101198.57
101234.32
101266.88
101296.12
101321.95
101344.34
101363.23
101378.65
101390.63
101399.23
101404.54
101406.68
101405.78
101401.99
101395.48
101386.41
101374.98
101361.36
101345.75
101328.31
101309.22
101288.66
101266.78
101243.73
101219.64
101194.64
101168.84
101142.35
101115.24
101087.59
101059.46
101030.9
101001.96
100972.65
100943.01
100913.02
100882.69
100852
100820.9
100789.41
100757.31
100724.87
100691.09
100658.52
100618.25
100596.71
100518.83
100575.32
100330.59
100660.32
99783.984
99878.103
99882.802
99973.36
99991.437
100072.1
100105.47
100177.02
100222.62
100288.46
100342.09
100405.31
100463.55
100525.91
100586.42
100648.44
100709.64
100771.03
100831.68
100891.71
100950.66
101008.38
101064.5
101118.81
101170.99
101220.79
101267.94
101312.2
101353.34
101391.17
101425.49
101456.18
101483.12
101506.23
101525.47
101540.84
101552.37
101560.13
101564.21
101564.74
101561.88
101555.8
101546.7
101534.77
101520.23
101503.3
101484.2
101463.15
101440.37
101416.05
101390.39
101363.58
101335.78
101307.14
101277.81
101247.9
101217.54
101186.8
101155.78
101124.53
101093.11
101061.56
101029.9
100998.15
100966.32
100934.39
100902.36
100870.18
100837.82
100805.23
100772.29
100739.01
100705.07
100671
100633.51
100605.33
100539.89
100577.02
100357.38
100670.66
99981.12
100084.57
100089.54
100188.44
100208.5
100295.85
100332.8
100409.76
100459.78
100530.31
100588.51
100656
100718.51
100784.72
100848.96
100914.25
100978.42
101042.31
101105
101166.53
101226.42
101284.44
101340.23
101393.51
101443.95
101491.29
101535.24
101575.57
101612.06
101644.54
101672.86
101696.92
101716.66
101732.07
101743.16
101750.01
101752.72
101751.42
101746.3
101737.54
101725.38
101710.05
101691.8
101670.89
101647.58
101622.14
101594.82
101565.87
101535.51
101503.98
101471.48
101438.2
101404.3
101369.95
101335.28
101300.4
101265.43
101230.43
101195.49
101160.65
101125.96
101091.44
101057.1
101022.96
100988.99
100955.18
100921.5
100887.91
100854.35
100820.77
100787.05
100753.14
100718.93
100684.09
100648.37
100615.61
100560.84
100580.71
100385.81
100683.41
100205.55
100319.73
100325.17
100433.48
100456.08
100550.8
100592.08
100674.94
100730.09
100805.73
100869.02
100941.11
101008.22
101078.45
101146.5
101215.03
101282.03
101348.11
101412.4
101474.84
101534.92
101592.35
101646.75
101697.8
101745.17
101788.58
101827.77
101862.51
101892.62
101917.97
101938.48
101954.1
101964.85
101970.8
101972.05
101968.76
101961.12
101949.35
101933.71
101914.48
101891.95
101866.41
101838.2
101807.6
101774.93
101740.47
101704.52
101667.33
101629.16
101590.24
101550.76
101510.93
101470.91
101430.84
101390.86
101351.06
101311.54
101272.37
101233.59
101195.26
101157.39
101120
101083.09
101046.64
101010.64
100975.05
100939.84
100904.94
100870.29
100835.83
100801.45
100767.08
100732.61
100697.55
100662.96
100627.33
100581.59
100586.27
100415.95
100697.31
100459.03
100585.61
100591.74
100710.63
100736.44
100839.26
100885.7
100974.99
101036
101117.18
101186.09
101263.08
101335.04
101409.39
101481.23
101552.8
101622.25
101689.99
101755.17
101817.61
101876.78
101932.35
101983.92
102031.14
102073.69
102111.31
102143.76
102170.87
102192.51
102208.64
102219.24
102224.38
102224.16
102218.75
102208.37
102193.28
102173.76
102150.13
102122.75
102091.95
102058.11
102021.58
101982.73
101941.91
101899.45
101855.66
101810.85
101765.29
101719.22
101672.89
101626.48
101580.18
101534.13
101488.48
101443.33
101398.77
101354.88
101311.7
101269.27
101227.62
101186.75
101146.66
101107.33
101068.75
101030.87
100993.65
100957.04
100920.98
100885.39
100850.2
100815.3
100780.64
100746
100711.14
100677.23
100640.21
100601.96
100593.62
100447.36
100711.18
100743.76
100884.54
100891.58
101022.29
101052.1
101163.76
101216.34
101312.61
101380.29
101467.44
101542.47
101624.61
101701.58
101779.99
101855.38
101929.55
102000.79
102069.3
102134.25
102195.35
102252.06
102304.01
102350.8
102392.08
102427.57
102457.04
102480.33
102497.35
102508.08
102512.56
102510.92
102503.32
102490.01
102471.29
102447.48
102418.96
102386.12
102349.38
102309.17
102265.9
102220.02
102171.92
102122.01
102070.65
102018.2
101964.99
101911.31
101857.43
101803.6
101750.02
101696.87
101644.33
101592.52
101541.55
101491.51
101442.46
101394.47
101347.55
101301.73
101257.01
101213.38
101170.83
101129.31
101088.8
101049.24
101010.59
100972.77
100935.73
100899.37
100863.62
100828.38
100793.58
100758.96
100724.57
100691.09
100653.88
100621.57
100602.34
100478.93
100723.95
101060.96
101218.36
101226.81
101370.88
101405.79
101527.2
101587.11
101690.99
101766.2
101859.78
101941.36
102028.78
102110.7
102192.87
102271.23
102347.17
102419.08
102486.97
102550.02
102607.85
102659.93
102705.87
102745.29
102777.91
102803.51
102821.95
102833.19
102837.26
102834.28
102824.44
102808.03
102785.36
102756.82
102722.85
102683.92
102640.5
102593.1
102542.22
102488.37
102432.02
102373.65
102313.68
102252.55
102190.63
102128.27
102065.79
102003.46
101941.55
101880.26
101819.79
101760.29
101701.89
101644.7
101588.8
101534.26
101481.11
101429.38
101379.08
101330.2
101282.74
101236.66
101191.93
101148.5
101106.32
101065.33
101025.48
100986.67
100948.86
100911.93
100875.82
100840.43
100805.68
100771.28
100737.58
100704.42
100667.99
100640.2
100611.89
100510.3
100736.24
101414.31
101590.92
101601.35
101760.35
101801.64
101933.65
102002.14
102114.2
102197.74
102298.06
102386.37
102478.93
102565.39
102650.58
102730.84
102807.12
102877.93
102943.1
103001.81
103053.67
103098.15
103134.91
103163.66
103184.2
103196.46
103200.46
103196.3
103184.21
103164.5
103137.54
103103.79
103063.76
103017.99
102967.06
102911.55
102852.07
102789.21
102723.53
102655.58
102585.89
102514.94
102443.17
102371
102298.79
102226.87
102155.53
102085.03
102015.58
101947.37
101880.54
101815.21
101751.49
101689.44
101629.12
101570.56
101513.78
101458.76
101405.51
101353.98
101304.16
101255.99
101209.42
101164.39
101120.85
101078.71
101037.91
100998.38
100960.02
100922.76
100886.5
100851.17
100816.64
100782.72
100749.86
100717.09
100682.28
100657.99
100622.3
100540.97
100747.77
101807.2
102006.08
102019.27
102194.92
102244.15
102387.57
102466.02
102586.77
102679.23
102786.43
102881.34
102978.47
103068.49
103155.29
103235.59
103309.94
103376.96
103436.34
103487.32
103529.5
103562.48
103586.02
103599.97
103604.34
103599.24
103584.91
103561.71
103530.07
103490.55
103443.73
103390.27
103330.85
103266.17
103196.95
103123.88
103047.63
102968.86
102888.18
102806.14
102723.28
102640.07
102556.94
102474.25
102392.36
102311.53
102232.03
102154.05
102077.77
102003.32
101930.82
101860.35
101791.96
101725.69
101661.55
101599.55
101539.67
101481.88
101426.15
101372.44
101320.68
101270.82
101222.79
101176.52
101131.93
101088.96
101047.51
101007.51
100968.87
100931.5
100895.33
100860.28
100826.18
100792.99
100761.07
100728.89
100696.4
100674.54
100633.45
100570.76
100758.08
102243.45
102468.22
102485.25
102679.37
102738.37
102893.99
102984.05
103114.05
103215.66
103329.36
103430.13
103530.5
103622.2
103708.2
103785.57
103854.54
103913.85
103963.13
104001.76
104029.45
104045.98
104051.33
104045.61
104029.1
104002.19
103965.44
103919.47
103865
103802.82
103733.76
103658.65
103578.34
103493.66
103405.43
103314.39
103221.28
103126.75
103031.41
102935.8
102840.43
102745.71
102652.04
102559.72
102469.04
102380.23
102293.47
102208.92
102126.69
102046.87
101969.53
101894.69
101822.38
101752.59
101685.31
101620.5
101558.12
101498.12
101440.45
101385.03
101331.8
101280.67
101231.58
101184.44
101139.16
101095.67
101053.87
101013.69
100975.04
100937.82
100901.98
100867.41
100833.96
100801.72
100770.83
100739.52
100709.76
100689.22
100645.02
100599.41
100766.23
102728.35
102983.16
103005.41
103219.49
103290.26
103458.69
103561.82
103701.57
103812.12
103930.98
104035.83
104136.97
104227.16
104308.55
104378.53
104437.13
104483.28
104516.69
104537
104544.17
104538.3
104519.71
104488.88
104446.47
104393.25
104330.09
104257.96
104177.85
104090.78
103997.79
103899.86
103797.95
103692.98
103585.78
103477.14
103367.75
103258.24
103149.18
103041.06
102934.29
102829.23
102726.2
102625.43
102527.14
102431.48
102338.57
102248.51
102161.35
102077.13
101995.85
101917.52
101842.1
101769.56
101699.84
101632.89
101568.64
101507.02
101447.94
101391.33
101337.1
101285.15
101235.41
101187.77
101142.16
101098.48
101056.65
101016.58
100978.17
100941.36
100906.07
100872.2
100839.63
100808.54
100778.74
100748.69
100721.87
100701.9
100656.81
100626.55
100771.77
103267.62
103557.53
103587.62
103823.67
103909.79
104092.11
104207.12
104353.31
104472.23
104594.3
104700.05
104797.95
104881.63
104952.63
105008.78
105050.06
105075.77
105085.92
105080.57
105060.11
105025.13
104976.43
104914.97
104841.85
104758.24
104665.38
104564.52
104456.91
104343.75
104226.19
104105.32
103982.12
103857.51
103732.29
103607.19
103482.84
103359.79
103238.5
103119.38
103002.75
102888.86
102777.95
102670.16
102565.62
102464.42
102366.6
102272.19
102181.2
102093.61
102009.37
101928.43
101850.75
101776.24
101704.82
101636.41
101570.92
101508.25
101448.32
101391.02
101336.25
101283.92
101233.93
101186.19
101140.59
101097.06
101055.49
101015.81
100977.92
100941.76
100907.25
100874.28
100842.8
100813
100784.38
100755.97
100732.07
100711.92
100667.93
100651.46
100774.69
103868.2
104199.59
104242.1
104500.83
104604.08
104797.25
104925.09
105078.53
105201.17
105321.97
105422.73
105510.51
105579.87
105631.98
105665.3
105680.06
105676.17
105654.19
105614.82
105559.08
105488.19
105403.52
105306.56
105198.85
105081.95
104957.38
104826.61
104691.05
104551.96
104410.53
104267.81
104124.74
103982.14
103840.73
103701.1
103563.77
103429.16
103297.61
103169.4
103044.74
102923.79
102806.67
102693.44
102584.14
102478.78
102377.36
102279.82
102186.12
102096.2
102009.96
101927.33
101848.22
101772.51
101700.1
101630.9
101564.78
101501.65
101441.38
101383.88
101329.04
101276.75
101226.91
101179.41
101134.17
101091.09
101050.08
101011.05
100973.93
100938.64
100905.12
100873.24
100843.04
100814.62
100787.3
100760.88
100739.6
100718.72
100677.73
100672.93
100774.68
104556.47
104931.55
104987.22
105264.55
105381.28
105583.55
105721.86
105877.98
105999.14
106110.74
106197.41
106264.7
106308.62
106330.35
106329.32
106306.41
106262.44
106198.79
106116.98
106018.8
105906.16
105781
105645.28
105500.91
105349.69
105193.29
105033.27
104871.01
104707.74
104544.53
104382.31
104221.86
104063.86
103908.83
103757.23
103609.4
103465.61
103326.08
103190.93
103060.27
102934.15
102812.57
102695.54
102583
102474.9
102371.15
102271.68
102176.38
102085.15
101997.86
101914.4
101834.64
101758.47
101685.76
101616.39
101550.23
101487.16
101427.06
101369.82
101315.33
101263.47
101214.14
101167.23
101122.66
101080.32
101040.13
101002.01
100965.88
100931.67
100899.31
100868.7
100839.92
100812.95
100787.07
100762.8
100743.6
100722.18
100686
100690
100771.36
105331.04
105748.42
105813.14
106103.9
106249.28
106470.41
106607.19
106754.02
106861.51
106950.33
107008.64
107040.81
107044.62
107021.81
106973.14
106900.55
106806.01
106691.9
106560.65
106414.82
106256.87
106089.2
105914.06
105733.48
105549.32
105363.21
105176.58
104990.65
104806.44
104624.82
104446.5
104272.03
104101.86
103936.34
103775.72
103620.17
103469.81
103324.7
103184.85
103050.26
102920.86
102796.58
102677.34
102563.03
102453.53
102348.71
102248.43
102152.56
102060.96
101973.49
101890
101810.35
101734.39
101662
101593.03
101527.36
101464.84
101405.37
101348.81
101295.05
101243.98
101195.49
101149.48
101105.85
101064.52
101025.39
100988.39
100953.44
100920.49
100889.45
100860.26
100833.02
100807.58
100783.29
100761.17
100743.85
100723.1
100691.61
100701.29
100764.34
106191.88
106652.42
106747.85
107076.23
107223.85
107429.78
107563.01
107686
107764.76
107813.85
107825.94
107805.38
107752.32
107669.82
107560.38
107427.29
107273.8
107103.24
106918.83
106723.6
106520.34
106311.58
106099.52
105886.09
105672.93
105461.39
105252.62
105047.53
104846.84
104651.12
104460.79
104276.17
104097.47
103924.81
103758.27
103597.85
103443.53
103295.23
103152.86
103016.31
102885.44
102760.11
102640.16
102525.43
102415.77
102310.99
102210.94
102115.44
102024.34
101937.47
101854.67
101775.77
101700.64
101629.13
101561.08
101496.36
101434.83
101376.38
101320.87
101268.18
101218.22
101170.86
101126.01
101083.57
101043.46
101005.59
100969.89
100936.3
100904.74
100875.15
100847.5
100821.86
100798.01
100775.42
100755.53
100740.07
100720.13
100692.13
100706.66
100754.7
107183.83
107700.31
107819.95
108139.29
108291.69
108473.69
108577.4
108654.09
108678.39
108663.52
108606.38
108512.82
108385.64
108229.7
108049.27
107848.87
107632.69
107404.64
107168.23
106926.54
106682.23
106437.53
106194.29
105954.03
105717.95
105486.98
105261.84
105043.07
104831.03
104625.97
104428.03
104237.27
104053.69
103877.22
103707.77
103545.21
103389.38
103240.11
103097.23
102960.53
102829.82
102704.9
102585.58
102471.64
102362.91
102259.17
102160.24
102065.94
101976.09
101890.5
101809.01
101731.45
101657.66
101587.5
101520.81
101457.45
101397.29
101340.2
101286.06
101234.74
101186.15
101140.16
101096.7
101055.65
101016.95
100980.5
100946.25
100914.13
100884.07
100856.01
100829.95
100805.94
100783.67
100762.86
100745.08
100730.97
100712.04
100688.86
100705.44
100740.36
108346.68
108886.92
109015.88
109311.57
109435.45
109561.66
109602.31
109600.51
109540.38
109435.34
109287.14
109103.66
108890.4
108653.76
108399.22
108131.92
107856.28
107576.08
107294.49
107014.08
106736.91
106464.59
106198.34
105939.09
105687.47
105443.93
105208.75
104982.05
104763.88
104554.19
104352.88
104159.78
103974.72
103797.49
103627.85
103465.58
103310.42
103162.13
103020.47
102885.19
102756.04
102632.81
102515.24
102403.13
102296.25
102194.4
102097.36
102004.95
101916.97
101833.24
101753.59
101677.85
101605.85
101537.45
101472.5
101410.85
101352.37
101296.93
101244.42
101194.71
101147.71
101103.3
101061.4
101021.91
100984.75
100949.86
100917.16
100886.6
100858.11
100831.64
100807.21
100784.81
100764.13
100745.13
100729.28
100716.27
100698.9
100680.67
100696.72
100720
109658.83
110180.94
110288.64
110522.1
110581.5
110612.88
110553.01
110439.39
110266.89
110050.68
109797.27
109516.39
109215.28
108900.89
108578.78
108253.64
107929.16
107608.26
107293.15
106985.45
106686.33
106396.6
106116.75
105847.06
105587.64
105338.47
105099.42
104870.31
104650.89
104440.9
104240.05
104048.01
103864.48
103689.15
103521.69
103361.81
103209.2
103063.56
102924.61
102792.08
102665.71
102545.22
102430.39
102320.98
102216.75
102117.49
102023
101933.06
101847.51
101766.13
101688.78
101615.27
101545.44
101479.15
101416.25
101356.6
101300.07
101246.53
101195.88
101147.99
101102.76
101060.09
101019.9
100982.1
100946.6
100913.35
100882.28
100853.33
100826.44
100801.58
100778.77
100757.94
100738.83
100721.6
100707.44
100695.37
100679.89
100666.21
100680.25
100694.19
110987.74
111504.61
111569.97
111689.81
111634.55
111521.84
111320.27
111064.82
110761.08
110425.54
110067.5
109696.67
109319.97
108943.1
108570.25
108204.55
107848.18
107502.65
107168.9
106847.47
106538.6
106242.31
105958.46
105686.79
105426.98
105178.67
104941.44
104714.87
104498.56
104292.08
104095.01
103906.95
103727.52
103556.35
103393.06
103237.33
103088.81
102947.2
102812.19
102683.51
102560.86
102444.01
102332.69
102226.67
102125.73
102029.65
101938.21
101851.23
101768.52
101689.9
101615.19
101544.24
101476.88
101412.97
101352.37
101294.95
101240.57
101189.12
101140.49
101094.56
101051.24
101010.43
100972.05
100936.02
100902.26
100870.7
100841.29
100813.97
100788.68
100765.41
100744.15
100724.82
100707.22
100691.65
100678.91
100667.69
100654.25
100644.38
100655.64
100662.33
112495.74
112830.88
112781.02
112689.59
112452.11
112150.14
111783.03
111380.43
110953.39
110515.88
110076.02
109640.72
109214.32
108799.95
108399.53
108014.19
107644.47
107290.48
106952.08
106628.92
106320.54
106026.43
105746.01
105478.69
105223.9
104981.04
104749.55
104528.89
104318.55
104118.03
103926.86
103744.61
103570.86
103405.22
103247.3
103096.76
102953.26
102816.49
102686.15
102561.95
102443.63
102330.92
102223.6
102121.41
102024.15
101931.6
101843.56
101759.84
101680.26
101604.64
101532.83
101464.66
101399.98
101338.65
101280.53
101225.5
101173.44
101124.22
101077.74
101033.9
100992.59
100953.74
100917.25
100883.06
100851.08
100821.25
100793.52
100767.84
100744.14
100722.43
100702.67
100684.78
100668.63
100654.57
100643.03
100632.66
100621.25
100614.33
100622.57
100624.32
113810.79
113772.45
113519.13
113171.69
112735.97
112258.88
111755.64
111246.03
110739.54
110244.26
109764.46
109303
108861.03
108439
108036.84
107654.11
107290.14
106944.15
106615.28
106302.66
106005.47
105722.88
105454.07
105198.27
104954.76
104722.89
104502.04
104291.64
104091.15
103900.09
103717.97
103544.38
103378.89
103221.14
103070.74
102927.38
102790.71
102660.45
102536.29
102417.98
102305.26
102197.88
102095.63
101998.27
101905.61
101817.45
101733.59
101653.87
101578.1
101506.12
101437.79
101372.94
101311.44
101253.16
101197.96
101145.72
101096.33
101049.68
101005.67
100964.19
100925.16
100888.48
100854.09
100821.9
100791.85
100763.87
100737.92
100713.93
100691.87
100671.71
100653.43
100636.93
100622.17
100609.44
100598.9
100589.29
100579.63
100575.09
100581.3
100578.52
114196.28
113871.45
113429.16
112909.63
112359.1
111801.44
111250.72
110716.15
110201.99
109710.7
109242.85
108798.34
108376.55
107976.54
107597.09
107237.01
106895.12
106570.31
106261.55
105967.86
105688.34
105422.17
105168.66
104927.16
104697
104477.59
104268.38
104068.85
103878.52
103696.95
103523.71
103358.42
103200.7
103050.2
102906.6
102769.59
102638.86
102514.18
102395.3
102281.97
102173.97
102071.08
101973.08
101879.77
101790.96
101706.46
101626.11
101549.72
101477.13
101408.21
101342.78
101280.73
101221.91
101166.19
101113.45
101063.58
101016.46
100971.99
100930.07
100890.61
100853.51
100818.7
100786.09
100755.62
100727.21
100700.81
100676.36
100653.81
100633.12
100614.26
100597.19
100581.84
100568.21
100556.47
100546.62
100537.89
100530.01
100525.94
100528.06
100525.77
112762.44
112509.71
112134.79
111670.34
111186.72
110695.78
110213.75
109745.73
109295.24
108863.55
108450.97
108057.24
107681.71
107323.73
106982.54
106657.37
106347.42
106051.92
105770.14
105501.37
105244.94
105000.18
104766.51
104543.44
104330.49
104127.19
103933.12
103747.83
103570.93
103402.05
103240.83
103086.93
102940.03
102799.85
102666.08
102538.48
102416.79
102300.76
102190.14
102084.69
101984.2
101888.47
101797.31
101710.53
101627.95
101549.4
101474.73
101403.79
101336.41
101272.47
101211.82
101154.34
101099.9
101048.37
100999.66
100953.64
100910.21
100869.27
100830.74
100794.51
100760.5
100728.64
100698.85
100671.05
100645.19
100621.2
100599.03
100578.63
100559.95
100542.96
100527.63
100513.9
100501.77
100491.32
100482.48
100474.95
100468.74
100465.01
100464.46
100463.27
108023.12
109096.06
109271.28
109339.41
109209.22
109006.39
108744.74
108455.97
108150.92
107840.28
107529.32
107222.17
106921.16
106627.91
106343.36
106068.09
105802.38
105546.33
105299.91
105062.99
104835.41
104616.96
104407.35
104206.25
104013.38
103828.45
103651.18
103481.3
103318.55
103162.67
103013.41
102870.55
102733.84
102603.07
102478.04
102358.55
102244.37
102135.29
102031.11
101931.66
101836.76
101746.24
101659.95
101577.73
101499.43
101424.9
101354.01
101286.62
101222.6
101161.83
101104.17
101049.53
100997.77
100948.79
100902.49
100858.76
100817.51
100778.64
100742.07
100707.71
100675.48
100645.29
100617.09
100590.79
100566.33
100543.66
100522.71
100503.44
100485.81
100469.76
100455.26
100442.27
100430.78
100420.79
100412.25
100405.09
100399.35
100395.22
100392.81
100391.74
110360.92
110402.83
110282.46
110037.42
109679.47
109252.7
108784.84
108295.01
107795.67
107293.15
106800.94
106318.95
105857.08
105411.67
104985.6
104592.51
104228.7
103902.3
103608.51
103345.72
103112.6
102905.68
102722.89
102561.21
102418.31
102290.74
102174.91
102068.95
101972.77
101889.87
101815.6
101746.78
101682.76
101622.62
101565.72
101511.58
101459.9
101410.45
101363.08
101317.69
101274.21
101232.56
101192.69
101154.57
101118.14
101083.34
101050.13
101018.44
100988.22
100959.41
100931.93
100905.73
100880.68
100856.81
100833.86
100812.01
100790.72
100770.64
100750.45
100731.96
100712.09
100695.34
100674.51
100660.29
100636.36
100626.66
100595.89
100594.91
100550.86
100566.19
100496.89
100543.36
100431.02
100530.14
100347.81
100532.07
100241.53
100554.89
100105.62
100610.15
97196.722
97393.411
97771.419
98178.548
98619.364
99093.561
99499.826
99847.909
100173.44
100465.69
100717.84
100937.77
101127.39
101288.88
101425.64
101539.34
101633.92
101708.53
101765.09
101805.05
101831.86
101845.51
101848.54
101841.16
101825.56
101802.34
101773.89
101741.74
101705.71
101667.7
101627.95
101586.78
101543.94
101500.44
101456.98
101413.95
101371.69
101330.45
101290.37
101251.57
101214.09
101177.96
101143.19
101109.77
101077.69
101046.92
101017.43
100989.2
100962.16
100936.3
100911.53
100887.85
100865.11
100843.36
100822.35
100802.29
100782.62
100764
100745.17
100727.84
100709.14
100693.21
100673.5
100659.64
100636.97
100627.04
100597.92
100595.77
100554.13
100567.51
100502.47
100544.62
100437.91
100531.76
100354.16
100534.47
100245.73
100560.8
100106.28
100618.62
104084.41
104118.09
104117.36
104090.72
104035.86
103959.02
103866.54
103761.95
103648.84
103531.67
103411.14
103290.04
103168.83
103049.24
102931.37
102817.77
102706.11
102602.95
102502.14
102410.61
102317.35
102235.07
102150.02
102076.16
102004.6
101939.66
101881.79
101826.44
101775.58
101714.55
101657.03
101602.87
101551.11
101501.78
101454.62
101409.45
101366.09
101324.44
101284.38
101245.85
101208.81
101173.21
101139.02
101106.22
101074.76
101044.63
101015.79
100988.2
100961.8
100936.57
100912.42
100889.34
100867.18
100846
100825.5
100805.94
100786.71
100768.5
100750.02
100733.02
100714.55
100698.84
100679.27
100665.5
100642.92
100632.86
100603.82
100601.33
100559.44
100572.35
100507.94
100548.34
100443.68
100534.26
100360.23
100536.06
100251.29
100562.46
100110.24
100621.48
101649.4
101651.56
101659.4
101674.35
101693.43
101712.99
101733.16
101754.79
101776.19
101797.86
101818.07
101837.23
101853.93
101868.07
101878.4
101885.19
101887.07
101885.14
101878.56
101868.35
101854.32
101837.19
101816.87
101791.64
101761.88
101728.36
101692.62
101654.7
101616.56
101578.52
101539.79
101501.09
101462.46
101424.06
101386.06
101348.61
101311.85
101275.9
101240.85
101206.77
101173.73
101141.75
101110.88
101081.11
101052.46
101024.93
100998.49
100973.13
100948.8
100925.5
100903.13
100881.71
100861.07
100841.3
100822.1
100803.72
100785.57
100768.35
100750.73
100734.53
100716.71
100701.65
100682.5
100669.28
100646.89
100637.31
100608.23
100606.24
100564.23
100577.46
100512.57
100553.52
100447.45
100539.27
100363.93
100540.98
100254.36
100566.92
100112.47
100625.47
102030.63
102038.17
102039.22
102037.84
102034.85
102029.68
102022.91
102015.46
102006.71
101997.11
101985.76
101974.22
101960.04
101945.4
101928.64
101910.1
101890.82
101867.66
101844.87
101817.63
101791.37
101760.41
101730.5
101697.44
101665.4
101631.4
101598.44
101563.83
101529.58
101495.12
101460.71
101426.47
101392.5
101358.89
101325.72
101293.05
101260.95
101229.48
101198.69
101168.65
101139.38
101110.94
101083.35
101056.65
101030.85
101005.96
100981.98
100958.9
100936.7
100915.36
100894.82
100875.07
100855.99
100837.64
100819.74
100802.54
100785.46
100769.19
100752.42
100736.96
100719.78
100705.26
100686.58
100673.69
100651.62
100642.19
100613.31
100611.32
100569.36
100582.34
100517.66
100558.12
100452.64
100543.46
100368.67
100544.56
100258.48
100570.43
100115.32
100628.71
101512.77
101517.9
101522.8
101529.65
101536.63
101543.65
101548.79
101554.99
101558.96
101563.23
101564.89
101566.62
101565.85
101565.14
101562.16
101558.77
101553.49
101547.48
101539.69
101531.06
101520.63
101509.5
101496.4
101482.23
101466.17
101448.87
101429.89
101409.78
101388.41
101366.12
101342.95
101319.08
101294.63
101269.76
101244.6
101219.29
101193.95
101168.7
101143.66
101118.91
101094.55
101070.65
101047.28
101024.48
101002.3
100980.78
100959.91
100939.72
100920.19
100901.31
100883.04
100865.39
100848.22
100831.62
100815.32
100799.56
100783.78
100768.67
100752.93
100738.36
100721.99
100708.1
100690.02
100677.54
100655.89
100646.66
100618.09
100616.07
100574.45
100587.13
100522.53
100562.71
100457.23
100547.69
100373.01
100548.49
100262.17
100573.96
100117.98
100631.79
101328.85
101335.57
101340.52
101346.19
101352.16
101357.85
101362.54
101367.43
101370.14
101374.25
101375.53
101378.76
101379.1
101380.7
101379.94
101379.12
101376.31
101373.41
101368.87
101363.72
101357.19
101349.73
101341.06
101331.34
101320.51
101308.63
101295.74
101281.86
101267.06
101251.39
101234.94
101217.78
101200
101181.69
101162.94
101143.86
101124.53
101105.04
101085.49
101065.97
101046.56
101027.33
101008.34
100989.66
100971.33
100953.4
100935.88
100918.8
100902.16
100885.96
100870.15
100854.76
100839.68
100824.97
100810.4
100796.19
100781.81
100767.93
100753.31
100739.66
100724.15
100710.92
100693.49
100681.39
100660.24
100651.13
100622.98
100620.8
100579.59
100591.81
100527.6
100567.15
100462.46
100551.73
100377.66
100552.19
100266.11
100577.26
100120.72
100634.58
101070.9
101077.69
101083.14
101089.67