/*--------------------------------*- C++ -*----------------------------------*\
  =========                 |
  \\      /  F ield         | OpenFOAM: The Open Source CFD Toolbox
   \\    /   O peration     | Website:  https://openfoam.org
    \\  /    A nd           | Version:  6
     \\/     M anipulation  |
\*---------------------------------------------------------------------------*/
FoamFile
{
    version     2.0;
    format      ascii;
    class       surfaceScalarField;
    location    "900";
    object      phi;
}
// * * * * * * * * * * * * * * * * * * * * * * * * * * * * * * * * * * * * * //

dimensions      [1 0 -1 0 0 0 0];

internalField   nonuniform List<scalar> 
31760
(
-0.00058010941
-0.038283353
0.038863461
-0.0012903382
-0.042426105
0.043136332
-0.002017094
-0.043540601
0.044267356
-0.0027984588
-0.046076166
0.04685753
-0.003600019
-0.047907425
0.048708985
-0.0044561713
-0.050348945
0.051205097
-0.0053411122
-0.052565869
0.05345081
-0.0062784429
-0.055110186
0.056047516
-0.0072532355
-0.057624421
0.058599214
-0.0082803408
-0.060353887
0.061380991
-0.0093525918
-0.063144684
0.064216935
-0.010479046
-0.066107015
0.067233469
-0.011656868
-0.069178853
0.070356675
-0.012892037
-0.072410335
0.073645504
-0.014184556
-0.075779717
0.077072236
-0.015538672
-0.079311735
0.08066585
-0.016955644
-0.083002769
0.084419741
-0.018438758
-0.086866813
0.088349927
-0.019990053
-0.090908321
0.092459616
-0.021612595
-0.095137631
0.096760172
-0.023308653
-0.099562625
0.10125868
-0.025081308
-0.10419321
0.10596586
-0.02693256
-0.1090391
0.11089036
-0.028865297
-0.11411083
0.11604357
-0.030881852
-0.1194192
0.12143576
-0.032984302
-0.1249764
0.12707885
-0.035174973
-0.13079407
0.13298474
-0.037456148
-0.13688569
0.13916687
-0.039829437
-0.14326486
0.14563815
-0.042296205
-0.14994633
0.1524131
-0.04485814
-0.15694517
0.1595071
-0.047516009
-0.16427811
0.16693598
-0.050270891
-0.17196174
0.17471662
-0.053122663
-0.18001468
0.18286645
-0.056071255
-0.18845624
0.19140483
-0.059116247
-0.19730642
0.20035142
-0.06225671
-0.20658646
0.20972692
-0.065490501
-0.2163195
0.21955329
-0.068815734
-0.22652899
0.22985422
-0.072229328
-0.23724002
0.24065361
-0.075727919
-0.24847902
0.25197761
-0.079306857
-0.26027401
0.26385295
-0.082961231
-0.27265386
0.27630823
-0.086684539
-0.28565007
0.28937337
-0.09046993
-0.29929425
0.30307964
-0.094309362
-0.31362101
0.31746044
-0.098193079
-0.32866579
0.33254951
-0.10211072
-0.34446645
0.3483841
-0.10605028
-0.36106222
0.36500178
-0.10999762
-0.37849507
0.38244241
-0.11393769
-0.39680803
0.40074809
-0.11785262
-0.41604716
0.4199621
-0.12172274
-0.43626043
0.44013055
-0.12552547
-0.45749839
0.46130112
-0.12923618
-0.47981361
0.48352432
-0.13282637
-0.50326208
0.50685227
-0.13626453
-0.52790225
0.5313404
-0.13951445
-0.55379573
0.55704565
-0.1425363
-0.58100576
0.58402761
-0.14528473
-0.60959995
0.61234838
-0.14770893
-0.63964951
0.64207372
-0.14975174
-0.67122744
0.67327025
-0.1513504
-0.70441301
0.70601168
-0.15243105
-0.73928529
0.74036593
-0.15291793
-0.77593228
0.77641916
-0.15271262
-0.81443626
0.81423095
-0.15172977
-0.85489933
0.85391648
-0.14982638
-0.89738382
0.89548044
-0.1469351
-0.94203991
0.93914862
-0.14281381
-0.98884855
0.98472726
-0.13748813
-1.0381273
1.0328016
-0.13049374
-1.0895626
1.0825682
-0.12212783
-1.1440566
1.1356907
-0.11136618
-1.2002441
1.1894825
-0.099209425
-1.2609209
1.2487641
-0.083590601
-1.3210849
1.3054661
-0.066746747
-1.3893601
1.3725163
-0.045201202
-1.451583
1.4300375
-0.022128132
-1.5291367
1.5060636
-1.5943636
1.5656952
-0.00056088891
-0.037722465
-0.0012323482
-0.041754646
-0.0019215387
-0.042851411
-0.0026610944
-0.045336611
-0.0034231688
-0.047145351
-0.0042339452
-0.04953817
-0.0050752474
-0.051724567
-0.0059652833
-0.054220151
-0.0068934478
-0.056696257
-0.0078712071
-0.059376128
-0.0088937211
-0.06212217
-0.0099685129
-0.065032224
-0.011093909
-0.068053457
-0.012275464
-0.071228781
-0.013512934
-0.074542247
-0.014810765
-0.078013904
-0.016170208
-0.081643326
-0.017594756
-0.085442266
-0.019086415
-0.089416662
-0.020648147
-0.0935759
-0.022282329
-0.097928443
-0.023991566
-0.10248397
-0.02577879
-0.10725188
-0.027646128
-0.11224349
-0.029595894
-0.11746943
-0.031630719
-0.12294158
-0.033752641
-0.12867215
-0.0359637
-0.13467463
-0.038265331
-0.14096323
-0.040659511
-0.14755215
-0.043147354
-0.15445732
-0.045729838
-0.16169563
-0.048407576
-0.169284
-0.05118048
-0.17724177
-0.054048987
-0.18558773
-0.057012137
-0.19434327
-0.060068608
-0.20352999
-0.063217119
-0.21317099
-0.066455315
-0.22329079
-0.069780231
-0.2339151
-0.073188581
-0.24507067
-0.076676149
-0.25678644
-0.080237757
-0.26909225
-0.083867863
-0.28201996
-0.087559696
-0.29560242
-0.091305805
-0.3098749
-0.095097226
-0.32487437
-0.098924229
-0.34063945
-0.10277542
-0.35721103
-0.1066385
-0.37463198
-0.11049891
-0.39294762
-0.11434081
-0.41220526
-0.11814612
-0.43245512
-0.12189441
-0.45375009
-0.1255628
-0.47614523
-0.12912561
-0.49969927
-0.13255379
-0.52447407
-0.13581542
-0.5505341
-0.13887328
-0.57794789
-0.14168626
-0.60678698
-0.14420903
-0.63712674
-0.14638895
-0.66904751
-0.14816916
-0.70263281
-0.14948321
-0.73797123
-0.15025954
-0.77515595
-0.15041544
-0.81428036
-0.14986221
-0.85545256
-0.14848825
-0.89875778
-0.14620073
-0.94432743
-0.14282769
-0.99222159
-0.13831252
-1.0426424
-0.13235421
-1.0955209
-0.12504288
-1.151368
-0.11574002
-1.209547
-0.10493013
-1.2717307
-0.091240432
-1.3347746
-0.076088746
-1.4045118
-0.056973245
-1.4706985
-0.03634687
-1.5497631
-1.6199084
-0.00052954742
-0.037192918
-0.0011783134
-0.041105881
-0.0018288672
-0.042200857
-0.0025334178
-0.044632062
-0.0032558088
-0.046422961
-0.0040295135
-0.048764466
-0.0048304723
-0.050923608
-0.0056812
-0.053369424
-0.0065678664
-0.05580959
-0.0075046697
-0.058439326
-0.0084846523
-0.061142187
-0.0095165636
-0.064000313
-0.010598417
-0.066971604
-0.011735442
-0.070091756
-0.012928547
-0.073349142
-0.014181001
-0.07676145
-0.015495106
-0.08032922
-0.016873358
-0.084064015
-0.018318759
-0.08797126
-0.019833642
-0.092061017
-0.021420846
-0.096341239
-0.023083169
-0.10082165
-0.0248224
-0.10551265
-0.0266419
-0.11042399
-0.028543834
-0.1155675
-0.030530302
-0.12095511
-0.032603425
-0.12659903
-0.034765067
-0.13251299
-0.037017217
-0.13871108
-0.039361234
-0.14520813
-0.041797923
-0.15202064
-0.044328773
-0.15916478
-0.046953671
-0.1666591
-0.049673371
-0.17452207
-0.052487202
-0.1827739
-0.05539461
-0.19143587
-0.058394401
-0.2005302
-0.061484798
-0.21008059
-0.06466372
-0.22011187
-0.067928803
-0.23065002
-0.071275967
-0.24172351
-0.074701762
-0.25336065
-0.07820146
-0.26559255
-0.081769824
-0.2784516
-0.08540052
-0.29197172
-0.089086438
-0.30618899
-0.092819825
-0.32114099
-0.096591616
-0.33686766
-0.10039184
-0.3534108
-0.10420894
-0.37081489
-0.10803011
-0.38912645
-0.11184097
-0.4083944
-0.11562507
-0.42867102
-0.11936436
-0.4500108
-0.12303839
-0.4724712
-0.12662384
-0.49611381
-0.13009496
-0.52100295
-0.13342253
-0.54720653
-0.13657367
-0.57479675
-0.13951158
-0.60384906
-0.14219459
-0.63444373
-0.14457663
-0.66666548
-0.14660519
-0.70060425
-0.14822216
-0.73635426
-0.14936191
-0.7740162
-0.14994839
-0.81369388
-0.14990589
-0.85549506
-0.14913278
-0.89953089
-0.14753528
-0.94592493
-0.14498179
-0.99477509
-0.14138116
-1.0462431
-0.13652024
-1.1003818
-0.13038031
-1.1575079
-0.12255128
-1.217376
-0.11325144
-1.2810306
-0.1015082
-1.3465179
-0.088248401
-1.4177716
-0.071608465
-1.4873385
-0.053322627
-1.5680489
-1.6422551
-0.00050048705
-0.036692431
-0.0011313121
-0.040475056
-0.0017495489
-0.041582621
-0.002424815
-0.043956796
-0.003114317
-0.045733459
-0.0038568027
-0.04802198
-0.0046245136
-0.050155898
-0.0054425196
-0.052551419
-0.0062955171
-0.054956593
-0.0071986458
-0.057536198
-0.0081447587
-0.060196074
-0.0091426368
-0.063002436
-0.010190268
-0.065923972
-0.011293368
-0.068988657
-0.012452217
-0.072190293
-0.01367092
-0.075542748
-0.014951136
-0.079049004
-0.016296281
-0.08271887
-0.017708595
-0.086558945
-0.019191197
-0.090578416
-0.020746418
-0.094786018
-0.022376843
-0.099191223
-0.024085463
-0.10380403
-0.025874579
-0.10863488
-0.027746354
-0.11369573
-0.029703357
-0.11899811
-0.031747301
-0.12455508
-0.033880397
-0.1303799
-0.036104024
-0.13648745
-0.038419694
-0.14289246
-0.040828362
-0.14961197
-0.043330747
-0.15666239
-0.045927549
-0.1640623
-0.048618366
-0.17183126
-0.051402925
-0.17998934
-0.05428079
-0.188558
-0.057250552
-0.19756044
-0.06031055
-0.20702059
-0.063458762
-0.21696366
-0.066692495
-0.22741629
-0.070008833
-0.23840717
-0.073403925
-0.24996555
-0.076873518
-0.26212296
-0.080412839
-0.27491228
-0.084016309
-0.28836825
-0.087677696
-0.3025276
-0.091389982
-0.3174287
-0.095145235
-0.3331124
-0.09893446
-0.34962158
-0.10274757
-0.36700177
-0.10657365
-0.38530038
-0.11039932
-0.40456872
-0.1142109
-0.42485945
-0.11799225
-0.44622945
-0.12172478
-0.46873867
-0.12538863
-0.49244996
-0.12896118
-0.5174304
-0.13241606
-0.54375165
-0.13572453
-0.57148828
-0.13885404
-0.60071955
-0.14176778
-0.63152999
-0.14442452
-0.66400874
-0.14677821
-0.69825056
-0.14877643
-0.73435604
-0.15036129
-0.77243135
-0.15146711
-0.81258806
-0.15202016
-0.85494201
-0.15193581
-0.89961524
-0.15112712
-0.94673362
-0.14948227
-0.99641993
-0.1469005
-1.0488248
-0.14322656
-1.1040558
-0.13838617
-1.1623483
-0.1320946
-1.2236676
-0.12444419
-1.288681
-0.11470516
-1.3562569
-0.1034964
-1.4289804
-0.089395415
-1.5014395
-0.073730815
-1.5837135
-1.6614206
-0.00047385325
-0.036218578
-0.0010885072
-0.039860403
-0.0016792381
-0.04099189
-0.0023307935
-0.043305241
-0.0029933593
-0.045070893
-0.0037112179
-0.047304122
-0.0044528471
-0.049414269
-0.005245921
-0.051758346
-0.0060737376
-0.054128777
-0.0069519205
-0.056658015
-0.0078736965
-0.059274298
-0.0088478849
-0.062028248
-0.0098725437
-0.064899313
-0.010953004
-0.067908196
-0.012090241
-0.071053056
-0.01328832
-0.074344669
-0.014549037
-0.077788287
-0.015875814
-0.081392094
-0.017270943
-0.085163816
-0.018737291
-0.089112068
-0.020277907
-0.093245402
-0.021895248
-0.097573882
-0.023592063
-0.10210722
-0.025370383
-0.10685656
-0.027233209
-0.1118329
-0.029182294
-0.11704902
-0.031219877
-0.1225175
-0.033347359
-0.12825241
-0.035566751
-0.13426806
-0.037878615
-0.1405806
-0.040284514
-0.14720607
-0.042784703
-0.15416221
-0.04537956
-0.16146745
-0.048069045
-0.16914177
-0.050852749
-0.17720564
-0.053729488
-0.18568126
-0.056698473
-0.19459145
-0.059758198
-0.20396087
-0.062906362
-0.21381549
-0.066140533
-0.22418212
-0.06945826
-0.23508944
-0.072855958
-0.24656786
-0.07632993
-0.25864899
-0.079876143
-0.27136606
-0.083489582
-0.28475481
-0.087165152
-0.29885203
-0.090896523
-0.31369733
-0.094676953
-0.32933197
-0.098498994
-0.34579953
-0.10235418
-0.36314659
-0.10623247
-0.38142209
-0.11012367
-0.40067752
-0.11401521
-0.42096791
-0.11789344
-0.44235122
-0.12174316
-0.46488895
-0.1255466
-0.48864652
-0.12928399
-0.51369301
-0.13293339
-0.54010226
-0.13646963
-0.56795204
-0.13986439
-0.59732479
-0.14308548
-0.6283089
-0.1460973
-0.66099691
-0.14885934
-0.69548853
-0.15132616
-0.73188922
-0.15344676
-0.77031074
-0.15516331
-0.81087151
-0.15641094
-0.85369438
-0.15711741
-0.89890878
-0.15720261
-0.94664842
-0.15656809
-0.99705445
-0.15512516
-1.0502678
-0.15274319
-1.1064377
-0.14933429
-1.1657572
-0.14468606
-1.2283158
-0.13881378
-1.2945533
-0.1311926
-1.3638781
-0.12219381
-1.4379792
-0.11070749
-1.5129258
-0.097770079
-1.5966509
-1.6773148
-0.00045384891
-0.03576473
-0.001044401
-0.039269852
-0.0016151938
-0.040421098
-0.0022509352
-0.042669501
-0.002895069
-0.04442676
-0.003596874
-0.046602318
-0.0043217398
-0.048689403
-0.0050993375
-0.050980748
-0.0059120941
-0.05331602
-0.0067763991
-0.055793711
-0.0076850343
-0.058365663
-0.0086472023
-0.061066081
-0.0096614126
-0.063885103
-0.01073297
-0.06683664
-0.011863053
-0.069922974
-0.013055253
-0.073152469
-0.014312331
-0.076531209
-0.015637074
-0.080067351
-0.017032556
-0.083768334
-0.01850168
-0.087642944
-0.020046805
-0.091700278
-0.021671318
-0.095949369
-0.023377158
-0.10040138
-0.025167354
-0.10506636
-0.027043862
-0.10995639
-0.029008808
-0.11508407
-0.031064258
-0.12046205
-0.033211665
-0.12610501
-0.035452418
-0.1320273
-0.037787618
-0.1382454
-0.040218122
-0.14477557
-0.042744018
-0.15163631
-0.045365796
-0.15884567
-0.048083079
-0.16642449
-0.050895369
-0.17439335
-0.053801856
-0.18277477
-0.056801391
-0.19159192
-0.05989249
-0.20086977
-0.063073259
-0.21063472
-0.066341746
-0.22091363
-0.069695418
-0.23173577
-0.073131465
-0.24313181
-0.076647088
-0.25513337
-0.080238342
-0.26777481
-0.083901603
-0.28109155
-0.087632488
-0.29512114
-0.091426226
-0.30990359
-0.09527756
-0.32548064
-0.099179833
-0.34189726
-0.10312658
-0.35919984
-0.10711015
-0.37743853
-0.11112153
-0.39666614
-0.11515104
-0.4169384
-0.11918727
-0.43831499
-0.12321741
-0.4608588
-0.12722728
-0.48463666
-0.13120048
-0.5097198
-0.1351182
-0.53618453
-0.13895974
-0.56411051
-0.14270052
-0.593584
-0.14631439
-0.62469503
-0.14977008
-0.65754123
-0.15303362
-0.69222499
-0.15606606
-0.72885678
-0.15882355
-0.76755325
-0.16125645
-0.80843861
-0.16331
-0.85164083
-0.16492067
-0.89729811
-0.1660148
-0.94555429
-0.16651702
-0.99655223
-0.16633652
-1.0504483
-0.16537431
-1.1073999
-0.16353402
-1.1675975
-0.16066065
-1.2311892
-0.15672202
-1.2984919
-0.15133565
-1.3692645
-0.14472227
-1.4445925
-0.13598459
-1.5216635
-0.12597848
-1.606657
-1.6898464
-0.00044032581
-0.035324405
-0.001012301
-0.038697877
-0.0015697422
-0.039863657
-0.002196824
-0.04204242
-0.002830324
-0.04379326
-0.0035242223
-0.045908421
-0.0042414154
-0.04797221
-0.0050128973
-0.050209267
-0.0058211598
-0.052507758
-0.0066823868
-0.054932484
-0.0075901677
-0.057457882
-0.0085532402
-0.060103008
-0.0095705446
-0.062867799
-0.010647322
-0.065759862
-0.011785621
-0.068784675
-0.012988772
-0.071949318
-0.014259433
-0.075260548
-0.015601238
-0.078725547
-0.017016469
-0.082353103
-0.018508627
-0.086150786
-0.020080357
-0.090128547
-0.021734232
-0.094295495
-0.023473324
-0.098662283
-0.025299487
-0.1032402
-0.027214984
-0.10804089
-0.029222175
-0.11307688
-0.03132247
-0.11836176
-0.033517483
-0.12390999
-0.03580807
-0.12973672
-0.038195261
-0.13585821
-0.040679692
-0.14229114
-0.043261654
-0.14905435
-0.045940887
-0.15616643
-0.048717407
-0.16364797
-0.051590334
-0.17152042
-0.054559013
-0.1798061
-0.057622429
-0.1885285
-0.060778844
-0.19771335
-0.064027474
-0.20738609
-0.067366
-0.2175751
-0.07079282
-0.22830895
-0.07430586
-0.23961877
-0.077902493
-0.25153673
-0.081580541
-0.26409676
-0.085337091
-0.277335
-0.089168909
-0.29128933
-0.093072429
-0.30600007
-0.097043735
-0.32150933
-0.10107879
-0.33786221
-0.10517218
-0.35510645
-0.10931836
-0.37329234
-0.11351061
-0.39247389
-0.11774168
-0.41270733
-0.12200298
-0.43405369
-0.12628451
-0.45657727
-0.1305752
-0.48034597
-0.13486176
-0.50543324
-0.13912988
-0.53191641
-0.14336217
-0.55987822
-0.14753993
-0.58940624
-0.15164047
-0.62059449
-0.15563928
-0.65354243
-0.15950759
-0.68835668
-0.16321362
-0.72515074
-0.16672108
-0.7640458
-0.16998898
-0.8051707
-0.17296878
-0.84866103
-0.17560771
-0.89465918
-0.17784818
-0.94331382
-0.17962099
-0.99477942
-0.18085126
-1.049218
-0.18145302
-1.1067982
-0.18134229
-1.1677082
-0.18039549
-1.232136
-0.17855977
-1.3003276
-0.17555455
-1.3722697
-0.17150991
-1.4486372
-0.1656873
-1.5274861
-0.15879088
-1.6135534
-1.6988925
-0.00043189357
-0.034892512
-0.0010007984
-0.038128973
-0.0015515695
-0.039312886
-0.0021771416
-0.041416848
-0.0028083062
-0.043162096
-0.0035028508
-0.045213877
-0.0042221798
-0.047252881
-0.0049980388
-0.049433409
-0.005813216
-0.05169258
-0.0066835883
-0.054062112
-0.007603779
-0.056537692
-0.0085817933
-0.059124994
-0.0096178575
-0.061831734
-0.010716871
-0.064660849
-0.011880751
-0.067620795
-0.013113591
-0.070716478
-0.014418074
-0.073956065
-0.015797388
-0.077346234
-0.01725493
-0.080895561
-0.018793248
-0.084612468
-0.020415626
-0.088506169
-0.022124494
-0.092586627
-0.023922378
-0.096864399
-0.025811824
-0.10135076
-0.027794675
-0.10605804
-0.029872544
-0.11099902
-0.032047096
-0.11618721
-0.034319389
-0.1216377
-0.036690583
-0.12736552
-0.039161094
-0.1333877
-0.041731288
-0.13972094
-0.044401206
-0.14638443
-0.047170792
-0.15339685
-0.050039383
-0.16077938
-0.053006783
-0.16855302
-0.056072252
-0.17674063
-0.05923433
-0.18536642
-0.062492757
-0.19445493
-0.065846047
-0.2040328
-0.069293315
-0.21412784
-0.072832921
-0.22476934
-0.076464018
-0.23598767
-0.080185225
-0.24781553
-0.083995008
-0.26028698
-0.087891682
-0.27343833
-0.091873411
-0.2873076
-0.095938735
-0.30193475
-0.10008521
-0.31736286
-0.10430992
-0.3336375
-0.10861032
-0.35080605
-0.1129827
-0.36891997
-0.117423
-0.38803359
-0.12192634
-0.40820399
-0.12648678
-0.42949325
-0.13109803
-0.45196602
-0.13575135
-0.47569265
-0.14043813
-0.50074646
-0.14514721
-0.52720733
-0.14986627
-0.55515916
-0.15458028
-0.58469223
-0.15927296
-0.61590181
-0.1639245
-0.64889089
-0.16851294
-0.68376824
-0.17301297
-0.72065072
-0.17739567
-0.7596631
-0.1816284
-0.80093797
-0.18567286
-0.84461657
-0.18948715
-0.89084489
-0.19302019
-0.93978078
-0.19621895
-0.99158065
-0.19901854
-1.0464184
-0.20134876
-1.104468
-0.20314025
-1.1659167
-0.20429754
-1.2309787
-0.20475791
-1.2998673
-0.20431904
-1.3727085
-0.20304385
-1.4499124
-0.20032763
-1.5302023
-0.19675069
-1.6171304
-1.7042711
-0.00042945826
-0.034463054
-0.0010036593
-0.037554773
-0.0015562547
-0.038760291
-0.0021892329
-0.040783871
-0.0028281431
-0.042523186
-0.0035338168
-0.044508204
-0.0042671063
-0.046519592
-0.0050594683
-0.048641047
-0.0058952266
-0.050856822
-0.0067891857
-0.053168154
-0.0077373775
-0.0555895
-0.0087473181
-0.058115054
-0.0098198976
-0.060759155
-0.010959839
-0.063520908
-0.012169755
-0.066410879
-0.01345365
-0.069432583
-0.014814387
-0.072595327
-0.016255502
-0.075905119
-0.017779871
-0.079371192
-0.019390798
-0.083001541
-0.021090994
-0.086805974
-0.022883051
-0.09079457
-0.024769174
-0.094978277
-0.026751409
-0.099368521
-0.028831909
-0.10397754
-0.031011859
-0.10881907
-0.033292387
-0.11390668
-0.035674567
-0.11925552
-0.03815886
-0.12488123
-0.0407459
-0.13080066
-0.043435247
-0.1370316
-0.04622732
-0.14359236
-0.049121392
-0.15050278
-0.052117441
-0.15778333
-0.055214977
-0.16545549
-0.058412999
-0.1735426
-0.061711706
-0.18206772
-0.065110125
-0.19105651
-0.068607763
-0.20053517
-0.072204407
-0.21053119
-0.075900002
-0.22107375
-0.079693863
-0.23219381
-0.083585832
-0.24392356
-0.087575972
-0.25629684
-0.091664406
-0.26934989
-0.09585064
-0.28312136
-0.10013457
-0.29765082
-0.10451581
-0.31298162
-0.108994
-0.3291593
-0.11356815
-0.3462319
-0.11823729
-0.36425084
-0.12299992
-0.38327096
-0.1278537
-0.40335021
-0.13279611
-0.42455084
-0.1378232
-0.44693893
-0.14293115
-0.4705847
-0.14811386
-0.49556374
-0.15336505
-0.52195614
-0.15867644
-0.54984777
-0.16403842
-0.57933025
-0.16943925
-0.61050098
-0.17486574
-0.64346439
-0.18030223
-0.67833175
-0.18573004
-0.7152229
-0.19112853
-0.75426461
-0.19647286
-0.79559364
-0.20173572
-0.83935372
-0.2068815
-0.88569911
-0.21187618
-0.9347861
-0.21667223
-0.9867846
-0.22122213
-1.0418685
-0.22547198
-1.1002181
-0.22935895
-1.1620297
-0.23281694
-1.2275207
-0.23578791
-1.2968963
-0.2381242
-1.3703723
-0.23984416
-1.4481924
-0.24045789
-1.5295886
-0.24042684
-1.6171614
-1.7057511
-0.00043378857
-0.034029266
-0.0010221378
-0.036966424
-0.0015861229
-0.038196306
-0.0022367282
-0.040133266
-0.002894931
-0.041864983
-0.0036236773
-0.043779458
-0.0043843493
-0.04575892
-0.0052074653
-0.047817932
-0.0060792768
-0.049985011
-0.0070134832
-0.052233948
-0.0080075561
-0.054595427
-0.0090684814
-0.057054129
-0.010198083
-0.059629553
-0.011400872
-0.062318119
-0.012680184
-0.065131566
-0.014039477
-0.068073291
-0.015482377
-0.071152427
-0.017012088
-0.074375408
-0.018631981
-0.0777513
-0.020344732
-0.08128879
-0.022152861
-0.084997844
-0.024059022
-0.088888409
-0.026065243
-0.092972056
-0.028173352
-0.097260412
-0.030384378
-0.10176652
-0.032699847
-0.1065036
-0.035120536
-0.11148599
-0.037646889
-0.11672917
-0.040278833
-0.12224929
-0.043016854
-0.12806264
-0.045860695
-0.13418775
-0.048810124
-0.14064293
-0.051864759
-0.14744814
-0.055024687
-0.1546234
-0.058289148
-0.16219103
-0.061658606
-0.17017315
-0.06513263
-0.17859369
-0.068711441
-0.1874777
-0.072395937
-0.19685067
-0.076186236
-0.20674089
-0.080083022
-0.21717696
-0.084087894
-0.22818894
-0.088201706
-0.23980975
-0.09242607
-0.25207248
-0.09676218
-0.26501378
-0.10121232
-0.27867123
-0.10577764
-0.29308549
-0.1104604
-0.30829887
-0.11526201
-0.3243577
-0.12018408
-0.34130982
-0.12522825
-0.35920666
-0.13039546
-0.37810375
-0.13568678
-0.39805889
-0.14110224
-0.41913538
-0.14664235
-0.44139883
-0.1523058
-0.46492124
-0.15809126
-0.48977829
-0.16399646
-0.51605094
-0.17001788
-0.54382636
-0.17615081
-0.57319731
-0.18238981
-0.60426198
-0.1887271
-0.6371271
-0.19515331
-0.67190555
-0.20165798
-0.70871823
-0.20822751
-0.74769507
-0.21484643
-0.78897472
-0.22149476
-0.83270539
-0.22815297
-0.87904089
-0.23479086
-0.92814822
-0.2413803
-0.98019516
-0.24788423
-1.0353646
-0.25426083
-1.0938415
-0.26046371
-1.1558268
-0.26644875
-1.2215356
-0.27216199
-1.291183
-0.27751489
-1.3650194
-0.28248571
-1.4432216
-0.28668404
-1.5253902
-0.29047248
-1.613373
-1.7030556
-0.00044634783
-0.033582918
-0.0010591106
-0.036353662
-0.0016456582
-0.037609759
-0.0023253074
-0.039453617
-0.003015858
-0.041174433
-0.0037812734
-0.043014043
-0.0045845851
-0.044955608
-0.0054546884
-0.046947829
-0.0063803383
-0.049059361
-0.0073738098
-0.051240477
-0.0084344027
-0.053534834
-0.0095683564
-0.055920176
-0.010778496
-0.058419414
-0.012069265
-0.061027351
-0.013444072
-0.063756759
-0.014906856
-0.066610508
-0.016461164
-0.06959812
-0.018110076
-0.072726496
-0.019856672
-0.076004704
-0.021703607
-0.079441856
-0.023653526
-0.083047926
-0.02570807
-0.086833865
-0.027869077
-0.090811049
-0.030137629
-0.09499186
-0.032515014
-0.099389132
-0.035001751
-0.10401686
-0.037597998
-0.10888974
-0.040303901
-0.11402327
-0.043119651
-0.11943354
-0.04604458
-0.12513771
-0.04907901
-0.13115332
-0.052222218
-0.13749972
-0.055474609
-0.14419575
-0.05883583
-0.15126218
-0.062306467
-0.15872039
-0.065886616
-0.166593
-0.069577572
-0.17490274
-0.073380215
-0.18367505
-0.077296029
-0.19293486
-0.081326952
-0.20270997
-0.085475379
-0.21302853
-0.08974334
-0.22392098
-0.094134487
-0.2354186
-0.098651252
-0.24755571
-0.10329767
-0.26036737
-0.10807702
-0.27389188
-0.11299364
-0.28816886
-0.1180511
-0.30324141
-0.12325381
-0.31915499
-0.12860603
-0.3359576
-0.13411183
-0.35370086
-0.13977527
-0.37244032
-0.14560035
-0.3922338
-0.15159104
-0.41314469
-0.15775038
-0.43523949
-0.16408184
-0.45858978
-0.17058831
-0.48327182
-0.1772714
-0.50936785
-0.1841332
-0.53696456
-0.19117443
-0.56615608
-0.19839437
-0.59704204
-0.20579258
-0.6297289
-0.21336665
-0.66433147
-0.22111281
-0.70097207
-0.22902604
-0.73978184
-0.23709988
-0.78090088
-0.24532586
-0.82447942
-0.25369113
-0.87067561
-0.26218204
-0.91965732
-0.27077693
-0.97160026
-0.27945617
-1.0266853
-0.28819312
-1.0851046
-0.29695831
-1.1470617
-0.30572161
-1.2127723
-0.3144438
-1.2824608
-0.32307312
-1.35639
-0.33158285
-1.4347119
-0.33965629
-1.5173168
-0.34757013
-1.6054591
-1.6958609
-0.00046688617
-0.033116032
-0.0011144431
-0.035706106
-0.0017350939
-0.036989108
-0.002456305
-0.038732407
-0.0031937512
-0.040436986
-0.0040111539
-0.042196641
-0.0048745058
-0.044092256
-0.0058102262
-0.046012109
-0.006810161
-0.048059426
-0.0078849702
-0.050165668
-0.0090357743
-0.05238403
-0.010268302
-0.054687649
-0.011586122
-0.057101594
-0.012993571
-0.059619902
-0.014494539
-0.062255791
-0.01609259
-0.065012457
-0.017791297
-0.067899413
-0.01959356
-0.070924234
-0.021502119
-0.074096145
-0.023519297
-0.077424677
-0.025646943
-0.08092028
-0.02788652
-0.084594288
-0.030239298
-0.088458272
-0.032705742
-0.092525416
-0.035286183
-0.096808691
-0.037980708
-0.10132234
-0.04078923
-0.10608122
-0.043711418
-0.11110108
-0.046747067
-0.11639789
-0.04989588
-0.12198889
-0.053157385
-0.12789182
-0.056531976
-0.13412513
-0.060019858
-0.14070787
-0.063621431
-0.14766061
-0.067337992
-0.15500383
-0.071170963
-0.16276003
-0.075122246
-0.17095145
-0.079194413
-0.17960289
-0.083389884
-0.18873939
-0.087712575
-0.19838728
-0.092166084
-0.20857502
-0.09675516
-0.2193319
-0.10148386
-0.2306899
-0.10635803
-0.24268155
-0.11138292
-0.25534247
-0.11656455
-0.26871025
-0.12190913
-0.28282428
-0.12742308
-0.29772746
-0.13311331
-0.31346476
-0.13898671
-0.3300842
-0.14505016
-0.34763741
-0.15131133
-0.36617915
-0.15777713
-0.385768
-0.1644551
-0.40646671
-0.17135254
-0.42834205
-0.17847665
-0.45146567
-0.18583454
-0.47591393
-0.19343342
-0.50176897
-0.20127941
-0.52911857
-0.20937953
-0.55805595
-0.21773952
-0.58868205
-0.22636469
-0.62110373
-0.23526017
-0.655436
-0.24443018
-0.69180206
-0.25387831
-0.73033371
-0.26360671
-0.77117248
-0.27361703
-0.81446909
-0.28390903
-0.86038362
-0.2944788
-0.90908754
-0.30532117
-0.96075789
-0.31642686
-1.0155797
-0.327786
-1.0737454
-0.33938251
-1.1354652
-0.35120221
-1.2009526
-0.36322663
-1.2704364
-0.37543396
-1.3441827
-0.38779886
-1.4223469
-0.40008144
-1.5050342
-0.41247479
-1.5930658
-1.6838145
-0.00049773831
-0.032618294
-0.0011928635
-0.035010981
-0.0018620428
-0.036319929
-0.0026397061
-0.037954744
-0.0034413575
-0.039635335
-0.0043290303
-0.041308968
-0.0052728597
-0.043148427
-0.0062963465
-0.044988622
-0.0073945725
-0.0469612
-0.0085766885
-0.048983552
-0.0098455632
-0.051115155
-0.011206268
-0.053326945
-0.012663238
-0.055644623
-0.014220461
-0.05806268
-0.015881968
-0.060594284
-0.017651178
-0.063243247
-0.01953099
-0.066019601
-0.021524426
-0.068930798
-0.023633409
-0.071987162
-0.025859641
-0.075198445
-0.028204078
-0.078575844
-0.03066756
-0.082130806
-0.033250393
-0.085875439
-0.03595256
-0.089823249
-0.038773636
-0.093987615
-0.041713193
-0.098382779
-0.044770592
-0.10302382
-0.047945534
-0.10792614
-0.051237225
-0.1131062
-0.054645729
-0.11858039
-0.058171432
-0.12436612
-0.061814625
-0.13048194
-0.065576377
-0.13694612
-0.069458257
-0.14377873
-0.073462527
-0.15099956
-0.077592185
-0.15863037
-0.08184998
-0.16669366
-0.08624053
-0.17521234
-0.0907682
-0.18421172
-0.095438059
-0.19371742
-0.10025618
-0.2037569
-0.10522864
-0.21435944
-0.11036247
-0.22555607
-0.11566514
-0.23737888
-0.12114435
-0.24986327
-0.12680867
-0.26304593
-0.13266654
-0.27696641
-0.13872721
-0.29166679
-0.14500042
-0.30719155
-0.1514957
-0.32358892
-0.15822353
-0.34090958
-0.16519431
-0.35920837
-0.17241889
-0.37854342
-0.17990836
-0.39897724
-0.18767423
-0.42057618
-0.1957281
-0.4434118
-0.20408165
-0.46756039
-0.21274696
-0.49310365
-0.22173626
-0.52012927
-0.23106165
-0.54873057
-0.24073583
-0.57900787
-0.25077093
-0.61106863
-0.26117955
-0.64502739
-0.27197376
-0.68100784
-0.28316623
-0.71914125
-0.29476892
-0.75956978
-0.30679391
-0.80244411
-0.31925161
-0.84792591
-0.33215089
-0.89618826
-0.34550393
-0.94740486
-0.35931178
-1.0017718
-0.37357613
-1.0594811
-0.38830271
-1.1207386
-0.40349594
-1.1857594
-0.41914981
-1.2547826
-0.43526877
-1.3280638
-0.45183261
-1.4057831
-0.46869282
-1.488174
-0.48596779
-1.5757908
-1.6665192
-0.00053952362
-0.032078771
-0.0012964309
-0.034254074
-0.0020303349
-0.035586025
-0.002881515
-0.037103564
-0.0037672772
-0.038749573
-0.0047463713
-0.040329874
-0.0057945217
-0.042100276
-0.006931603
-0.043851541
-0.0081561811
-0.045736622
-0.0094758115
-0.047663922
-0.010894988
-0.049695979
-0.012418237
-0.051803695
-0.0140504
-0.05401246
-0.015795134
-0.056317946
-0.017656248
-0.05873317
-0.019636548
-0.061262947
-0.021738692
-0.063917456
-0.023964242
-0.066705248
-0.026314556
-0.069636848
-0.028790392
-0.072722609
-0.031391834
-0.075974401
-0.034118836
-0.079403805
-0.036970393
-0.083023882
-0.039946042
-0.086847599
-0.043044589
-0.090889069
-0.046265292
-0.095162075
-0.049607071
-0.099682041
-0.053069546
-0.10446366
-0.05665284
-0.1095229
-0.060357042
-0.11487619
-0.064183055
-0.1205401
-0.068132367
-0.12653262
-0.072207377
-0.13287111
-0.076411137
-0.13957497
-0.080747015
-0.14666368
-0.085219343
-0.15415804
-0.089833882
-0.16207912
-0.09459587
-0.17045035
-0.099512409
-0.17929518
-0.1045905
-0.18863934
-0.10983811
-0.19850929
-0.11526386
-0.20893369
-0.12087713
-0.2199428
-0.12668735
-0.23156866
-0.13270499
-0.24384563
-0.13894084
-0.25681008
-0.14540635
-0.27050089
-0.15211378
-0.28495937
-0.15907513
-0.30023019
-0.16630388
-0.31636018
-0.17381305
-0.33340041
-0.18161712
-0.35140429
-0.18973065
-0.3704299
-0.1981686
-0.3905393
-0.2069465
-0.41179827
-0.21608084
-0.43427746
-0.22558834
-0.45805289
-0.23548632
-0.48320566
-0.2457929
-0.50982269
-0.2565263
-0.53799718
-0.26770598
-0.56782818
-0.27935141
-0.5994232
-0.29148299
-0.6328958
-0.30412169
-0.66836915
-0.31728865
-0.70597428
-0.33100686
-0.74585158
-0.34529838
-0.78815259
-0.36018619
-0.8330381
-0.37569422
-0.88068024
-0.39184225
-0.93125683
-0.40865079
-0.98496326
-0.42614189
-1.04199
-0.44433051
-1.10255
-0.46323703
-1.1668529
-0.48287944
-1.2351401
-0.503285
-1.3076582
-0.52444434
-1.3846238
-0.54627927
-1.4663391
-0.56886817
-1.5532019
-1.6435164
-0.00059297658
-0.031485794
-0.0014272391
-0.033419812
-0.0022447277
-0.034768537
-0.0031892889
-0.036159003
-0.0041828519
-0.03775601
-0.0052789047
-0.039233822
-0.0064599464
-0.040919235
-0.0077410218
-0.042570466
-0.0091250047
-0.044352639
-0.010617706
-0.046171221
-0.012224975
-0.048088709
-0.013950602
-0.050078069
-0.015799368
-0.052163695
-0.017774289
-0.054343024
-0.019878458
-0.056629001
-0.022113792
-0.059027614
-0.024481724
-0.061549524
-0.026982831
-0.064204141
-0.029617211
-0.067002469
-0.032384131
-0.069955689
-0.035282807
-0.073075726
-0.038311515
-0.076375097
-0.041469121
-0.079866275
-0.044753829
-0.083562891
-0.048164567
-0.087478332
-0.051699901
-0.091626741
-0.055359551
-0.09602239
-0.059143416
-0.1006798
-0.063051682
-0.10561464
-0.067086268
-0.1108416
-0.071248717
-0.11637765
-0.075542707
-0.12223863
-0.079971562
-0.12844225
-0.084540277
-0.13500625
-0.089254244
-0.14194971
-0.094120322
-0.14929196
-0.099145374
-0.15705407
-0.10433765