/*--------------------------------*- C++ -*----------------------------------*\
  =========                 |
  \\      /  F ield         | OpenFOAM: The Open Source CFD Toolbox
   \\    /   O peration     | Website:  https://openfoam.org
    \\  /    A nd           | Version:  6
     \\/     M anipulation  |
\*---------------------------------------------------------------------------*/
FoamFile
{
    version     2.0;
    format      ascii;
    class       volScalarField;
    location    "900";
    object      rho;
}
// * * * * * * * * * * * * * * * * * * * * * * * * * * * * * * * * * * * * * //

dimensions      [1 -3 0 0 0 0 0];

internalField   nonuniform List<scalar> 
16000
(
1.1569118
1.1620623
1.1605091
1.1617832
1.1613704
1.1620781
1.1620575
1.1625576
1.1627169
1.1631299
1.1633857
1.1637644
1.1640762
1.164447
1.1647935
1.1651691
1.1655388
1.1659238
1.1663101
1.1667051
1.1671033
1.1675066
1.1679126
1.1683213
1.168731
1.169141
1.1695499
1.1699567
1.17036
1.1707586
1.1711512
1.1715364
1.1719129
1.1722794
1.1726347
1.1729775
1.1733066
1.1736211
1.1739197
1.1742018
1.1744664
1.1747129
1.1749407
1.1751494
1.1753386
1.1755082
1.175658
1.1757882
1.1758987
1.1759899
1.176062
1.1761153
1.1761504
1.1761677
1.1761677
1.176151
1.1761181
1.1760696
1.1760061
1.1759282
1.1758362
1.175731
1.1756123
1.1754821
1.1753373
1.1751842
1.1750106
1.1748387
1.1746258
1.1744495
1.1741654
1.1740306
1.1735932
1.1736485
1.1727794
1.1733835
1.1714058
1.1735325
1.1692279
1.1739645
1.1574238
1.1625831
1.1609622
1.1623004
1.1618709
1.1626266
1.1626062
1.1631418
1.1633124
1.1637537
1.1640273
1.1644306
1.1647633
1.1651571
1.1655254
1.165923
1.1663143
1.1667203
1.1671271
1.1675418
1.1679587
1.1683796
1.168802
1.1692255
1.1696485
1.1700699
1.1704883
1.1709024
1.1713108
1.1717121
1.1721048
1.1724875
1.1728588
1.1732175
1.1735622
1.1738917
1.1742049
1.1745008
1.1747786
1.1750375
1.1752768
1.1754962
1.1756952
1.1758737
1.1760316
1.1761691
1.1762862
1.1763833
1.1764607
1.176519
1.1765587
1.1765804
1.1765846
1.1765721
1.1765434
1.1764994
1.1764407
1.1763679
1.1762816
1.1761824
1.1760709
1.1759475
1.1758126
1.1756668
1.1755095
1.1753424
1.1751614
1.174974
1.1747635
1.1745607
1.1743024
1.1741085
1.1737429
1.1736639
1.172995
1.1733159
1.1717161
1.1733655
1.169515
1.1738884
1.1581014
1.1632614
1.1616025
1.1630031
1.1625657
1.1633634
1.1633518
1.1639189
1.1641071
1.1645746
1.1648699
1.165297
1.1656528
1.1660694
1.1664606
1.1668801
1.1672932
1.16772
1.1681468
1.1685802
1.1690148
1.1694518
1.1698887
1.1703248
1.1707584
1.1711883
1.1716128
1.1720304
1.1724396
1.1728389
1.1732267
1.1736016
1.1739621
1.174307
1.1746349
1.1749447
1.1752354
1.1755063
1.1757565
1.1759855
1.176193
1.1763788
1.1765427
1.1766849
1.1768057
1.1769053
1.1769843
1.1770433
1.1770829
1.1771038
1.1771069
1.1770929
1.1770627
1.177017
1.1769567
1.1768825
1.1767952
1.1766956
1.1765842
1.1764616
1.1763284
1.176185
1.1760318
1.1758691
1.1756968
1.1755154
1.1753231
1.1751222
1.174906
1.1746863
1.1744351
1.1742067
1.173882
1.1737088
1.1731693
1.1732981
1.1719682
1.1732284
1.1697672
1.1737618
1.1589665
1.1641129
1.1624378
1.1639026
1.1634597
1.1643027
1.1643022
1.1649039
1.1651123
1.1656087
1.1659287
1.166382
1.1667635
1.1672051
1.1676214
1.1680646
1.1685011
1.1689497
1.1693974
1.16985
1.1703021
1.1707547
1.171205
1.1716521
1.1720941
1.1725296
1.1729567
1.1733738
1.1737793
1.1741714
1.1745486
1.1749094
1.1752523
1.1755761
1.1758796
1.1761618
1.1764218
1.1766591
1.1768732
1.1770637
1.1772308
1.1773743
1.1774947
1.1775924
1.1776679
1.1777221
1.1777555
1.1777693
1.1777643
1.1777415
1.177702
1.1776468
1.1775768
1.1774931
1.1773966
1.1772881
1.1771685
1.1770386
1.176899
1.1767503
1.176593
1.1764276
1.1762542
1.1760733
1.1758846
1.1756883
1.1754835
1.1752704
1.1750459
1.174814
1.1745626
1.1743141
1.1740113
1.1737831
1.1733205
1.1733144
1.1721989
1.1731485
1.1700328
1.1737766
1.1600154
1.1651295
1.1634669
1.1649989
1.1645563
1.1654472
1.1654633
1.1661016
1.1663352
1.1668624
1.1672108
1.1676924
1.1681025
1.1685707
1.1690139
1.1694819
1.1699427
1.1704134
1.170882
1.171353
1.1718216
1.172288
1.1727493
1.1732045
1.1736514
1.1740883
1.1745132
1.1749244
1.1753199
1.1756983
1.1760577
1.1763967
1.1767139
1.1770082
1.1772786
1.1775242
1.1777446
1.1779394
1.1781083
1.1782517
1.1783696
1.1784627
1.1785316
1.1785771
1.1786002
1.178602
1.1785836
1.1785463
1.1784912
1.1784198
1.1783331
1.1782325
1.1781191
1.1779939
1.1778582
1.1777126
1.1775583
1.177396
1.1772262
1.1770497
1.1768667
1.1766777
1.1764831
1.1762828
1.1760768
1.175865
1.1756467
1.1754213
1.1751872
1.174945
1.1746891
1.1744274
1.1741339
1.1738691
1.1734611
1.1733437
1.1724084
1.1731114
1.1702853
1.1738019
1.1612766
1.166358
1.1647203
1.1663207
1.1658819
1.1668215
1.1668582
1.1675339
1.1677962
1.1683555
1.1687353
1.1692464
1.1696872
1.1701832
1.1706548
1.1711483
1.1716339
1.1721268
1.1726156
1.173104
1.1735872
1.174065
1.1745343
1.1749937
1.1754408
1.1758737
1.1762903
1.1766887
1.177067
1.1774233
1.1777563
1.1780643
1.1783463
1.1786013
1.1788285
1.1790274
1.1791979
1.17934
1.179454
1.1795404
1.1796
1.1796337
1.1796426
1.179628
1.1795913
1.1795339
1.1794573
1.1793631
1.1792527
1.1791278
1.1789897
1.1788399
1.1786796
1.17851
1.1783323
1.1781474
1.1779563
1.1777597
1.1775582
1.1773524
1.1771427
1.1769293
1.1767125
1.1764923
1.1762685
1.1760409
1.1758088
1.1755715
1.1753274
1.1750761
1.1748146
1.1745442
1.1742543
1.1739673
1.1735969
1.1733915
1.1726094
1.1731062
1.1705445
1.1738618
1.162755
1.1678455
1.1662015
1.1678721
1.1674419
1.1684314
1.1684936
1.1692083
1.1695038
1.1700969
1.1705117
1.1710542
1.1715282
1.1720536
1.1725549
1.1730747
1.1735853
1.1740998
1.1746076
1.1751115
1.1756066
1.1760921
1.1765649
1.1770232
1.1774643
1.1778861
1.1782865
1.1786634
1.1790149
1.1793393
1.1796353
1.1799014
1.1801369
1.1803412
1.1805137
1.1806546
1.180764
1.1808426
1.1808911
1.1809106
1.1809024
1.1808679
1.1808086
1.1807264
1.1806231
1.1805003
1.18036
1.180204
1.1800341
1.179852
1.1796592
1.1794574
1.1792478
1.1790318
1.1788105
1.1785849
1.1783558
1.1781239
1.17789
1.1776544
1.1774174
1.1771793
1.1769401
1.1766998
1.1764581
1.1762148
1.175969
1.1757199
1.1754661
1.1752065
1.174939
1.1746625
1.1743729
1.1740734
1.1737317
1.1734645
1.1728064
1.1731188
1.1708068
1.1739578
1.1644436
1.1695628
1.167911
1.1696556
1.1692407
1.1702834
1.1703779
1.1711343
1.1714689
1.1720985
1.1725526
1.1731291
1.1736393
1.1741959
1.1747283
1.1752749
1.1758102
1.1763452
1.1768701
1.1773863
1.1778893
1.1783774
1.1788475
1.1792973
1.1797241
1.1801256
1.1804997
1.1808441
1.1811572
1.1814375
1.1816838
1.1818952
1.1820712
1.1822117
1.1823168
1.1823871
1.1824234
1.1824269
1.1823991
1.1823416
1.1822561
1.1821448
1.1820097
1.1818529
1.1816767
1.1814832
1.1812746
1.1810528
1.18082
1.1805778
1.1803281
1.1800724
1.1798122
1.1795486
1.1792829
1.1790159
1.1787484
1.1784812
1.1782148
1.1779494
1.1776853
1.1774226
1.1771613
1.1769012
1.1766421
1.1763835
1.1761245
1.1758643
1.1756013
1.1753343
1.1750614
1.1747808
1.1744905
1.1741853
1.1738621
1.1735522
1.1730029
1.1731505
1.1710887
1.1740826
1.1663532
1.1715148
1.1698613
1.1716849
1.171293
1.1723923
1.1725267
1.173328
1.1737078
1.1743771
1.1748752
1.1754882
1.1760372
1.1766264
1.1771907
1.1777638
1.1783226
1.1788756
1.1794139
1.1799376
1.1804422
1.1809256
1.1813843
1.1818158
1.1822174
1.1825866
1.1829214
1.1832197
1.1834802
1.1837017
1.1838834
1.1840251
1.1841267
1.1841889
1.1842126
1.1841989
1.1841495
1.1840663
1.1839513
1.1838068
1.1836353
1.1834394
1.1832215
1.1829842
1.1827302
1.1824618
1.1821814
1.1818912
1.1815933
1.1812897
1.180982
1.1806718
1.1803605
1.1800494
1.1797394
1.1794315
1.1791262
1.1788242
1.1785259
1.1782315
1.1779411
1.1776547
1.1773721
1.1770931
1.1768174
1.1765443
1.176273
1.1760025
1.1757313
1.175458
1.1751806
1.1748976
1.1746064
1.1743009
1.1739901
1.1736539
1.1731977
1.1732004
1.1713911
1.1742164
1.1685045
1.1737175
1.1720694
1.1739777
1.173617
1.1747768
1.1749594
1.1758089
1.1762407
1.1769528
1.1774991
1.1781511
1.1787411
1.1793636
1.1799595
1.1805575
1.1811368
1.1817035
1.1822492
1.1827731
1.1832704
1.1837385
1.184174
1.1845741
1.1849361
1.1852576
1.1855369
1.1857724
1.185963
1.1861083
1.1862082
1.1862632
1.1862742
1.1862425
1.1861699
1.1860585
1.1859107
1.1857292
1.1855168
1.1852764
1.1850111
1.1847239
1.1844177
1.1840955
1.1837601
1.1834142
1.1830601
1.1827003
1.1823367
1.1819714
1.1816059
1.1812419
1.1808805
1.1805229
1.1801699
1.1798223
1.1794806
1.1791453
1.1788166
1.1784946
1.1781793
1.1778705
1.177568
1.1772714
1.1769803
1.176694
1.1764116
1.1761321
1.1758539
1.1755754
1.1752949
1.1750109
1.1747199
1.174418
1.1741153
1.1737672
1.1733891
1.1732684
1.1717099
1.1743547
1.1709339
1.1761902
1.1745539
1.1765532
1.176233
1.1774573
1.1776972
1.1785987
1.1790894
1.1798477
1.1804465
1.1811395
1.1817716
1.1824271
1.1830526
1.183672
1.1842663
1.1848395
1.1853834
1.1858965
1.1863738
1.1868123
1.1872086
1.1875599
1.1878638
1.1881183
1.1883222
1.1884745
1.1885751
1.1886243
1.1886231
1.1885729
1.1884756
1.1883337
1.18815
1.1879274
1.1876693
1.1873791
1.1870603
1.1867166
1.1863513
1.1859681
1.18557
1.1851603
1.184742
1.1843176
1.1838898
1.1834608
1.1830326
1.1826069
1.1821854
1.1817694
1.1813599
1.1809579
1.1805642
1.1801792
1.1798034
1.1794369
1.17908
1.1787325
1.1783943
1.1780651
1.1777445
1.1774321
1.1771273
1.1768293
1.1765374
1.1762503
1.1759666
1.1756845
1.1754025
1.1751188
1.1748296
1.1745341
1.174237
1.1738888
1.1735735
1.1733508
1.1720309
1.1744793
1.1736424
1.1789452
1.1773306
1.1794295
1.1791621
1.1804565
1.1807648
1.1817228
1.1822798
1.1830879
1.1837427
1.1844778
1.1851517
1.1858377
1.1864883
1.1871222
1.1877224
1.1882907
1.1888193
1.1893057
1.1897452
1.1901344
1.1904704
1.1907505
1.1909731
1.1911369
1.1912415
1.1912871
1.1912746
1.1912057
1.1910824
1.1909077
1.1906845
1.1904165
1.1901075
1.1897616
1.1893829
1.1889755
1.1885437
1.1880914
1.1876225
1.1871407
1.1866495
1.186152
1.1856513
1.1851498
1.1846501
1.1841542
1.183664
1.1831809
1.1827064
1.1822416
1.1817873
1.1813442
1.1809129
1.1804937
1.1800867
1.179692
1.1793097
1.1789394
1.1785808
1.1782335
1.1778971
1.177571
1.1772545
1.1769469
1.1766472
1.1763543
1.1760667
1.1757828
1.1755009
1.1752192
1.1749338
1.1746468
1.1743544
1.1740157
1.1737485
1.1734423
1.1723539
1.1746035
1.1766521
1.1820153
1.1804327
1.1826397
1.1824386
1.1838077
1.1841958
1.1852143
1.1858443
1.1867046
1.1874169
1.1881932
1.1889053
1.1896159
1.1902826
1.1909195
1.1915111
1.1920574
1.1925509
1.1929885
1.1933658
1.1936799
1.1939282
1.1941092
1.1942221
1.194267
1.1942448
1.1941572
1.1940067
1.1937964
1.19353
1.1932118
1.1928461
1.1924377
1.1919916
1.1915127
1.1910058
1.1904757
1.189927
1.189364
1.1887907
1.1882109
1.187628
1.1870451
1.1864648
1.1858898
1.185322
1.1847634
1.1842154
1.1836794
1.1831563
1.182647
1.1821522
1.1816722
1.1812074
1.1807577
1.1803233
1.179904
1.1794995
1.1791095
1.1787335
1.178371
1.1780215
1.1776841
1.1773582
1.1770431
1.1767377
1.1764409
1.1761514
1.1758675
1.1755877
1.1753095
1.1750303
1.1747532
1.1744662
1.1741458
1.1739163
1.1735427
1.172671
1.1747226
1.1799917
1.18543
1.1838918
1.1862168
1.1860979
1.1875465
1.1880265
1.1891091
1.1898172
1.1907309
1.1914997
1.1923125
1.193055
1.1937788
1.1944466
1.1950681
1.1956291
1.1961283
1.1965587
1.1969173
1.1972005
1.1974062
1.1975331
1.1975812
1.1975513
1.1974453
1.1972661
1.1970174
1.1967034
1.1963291
1.1958999
1.1954214
1.1948993
1.1943397
1.1937481
1.1931303
1.1924917
1.1918372
1.1911716
1.1904994
1.1898243
1.1891501
1.1884798
1.1878164
1.1871621
1.186519
1.185889
1.1852734
1.1846735
1.1840902
1.1835241
1.1829759
1.1824457
1.1819337
1.1814401
1.1809645
1.1805069
1.1800669
1.179644
1.1792379
1.1788478
1.1784732
1.1781133
1.1777674
1.1774347
1.1771144
1.1768056
1.1765071
1.1762177
1.1759357
1.1756597
1.1753871
1.1751163
1.1748501
1.1745706
1.1742757
1.1740741
1.1736524
1.1729809
1.1748321
1.1836928
1.1892233
1.1877455
1.1901986
1.1901804
1.1917127
1.1922992
1.1934505
1.1942387
1.1952027
1.1960221
1.1968606
1.1976182
1.1983357
1.1989804
1.1995583
1.2000567
1.2004736
1.2008033
1.2010433
1.2011917
1.2012482
1.2012136
1.20109
1.2008807
1.20059
1.2002232
1.1997861
1.1992852
1.1987271
1.198119
1.1974678
1.1967803
1.1960633
1.1953231
1.1945655
1.1937962
1.1930202
1.1922421
1.191466
1.1906954
1.1899336
1.1891833
1.1884468
1.187726
1.1870225
1.1863377
1.1856725
1.1850277
1.1844039
1.1838014
1.1832202
1.1826606
1.1821222
1.181605
1.1811084
1.1806322
1.1801758
1.1797386
1.1793201
1.1789194
1.1785359
1.1781688
1.1778173
1.1774805
1.1771575
1.1768476
1.1765495
1.1762622
1.1759842
1.1757139
1.1754487
1.1751886
1.1749338
1.1746649
1.1743993
1.1742141
1.1737669
1.173279
1.1749232
1.187801
1.193441
1.1920425
1.1946302
1.1947323
1.1963513
1.1970567
1.1982827
1.1991496
1.2001528
1.2010082
1.2018527
1.2025995
1.2032797
1.203865
1.2043586
1.20475
1.2050374
1.2052173
1.2052893
1.205254
1.205114
1.204873
1.2045364
1.2041104
1.2036022
1.2030197
1.202371
1.2016646
1.2009089
1.2001122
1.1992824
1.198427
1.1975531
1.196667
1.1957746
1.1948812
1.1939914
1.1931094
1.1922387
1.1913822
1.1905426
1.189722
1.188922
1.1881442
1.1873894
1.1866586
1.1859522
1.1852706
1.1846138
1.1839819
1.1833746
1.1827918
1.1822329
1.1816975
1.1811851
1.1806951
1.1802267
1.1797794
1.1793523
1.1789447
1.1785557
1.1781845
1.1778302
1.177492
1.177169
1.1768603
1.1765649
1.1762817
1.1760095
1.1757467
1.175491
1.1752433
1.1750007
1.174746
1.1745126
1.1743358
1.1738843
1.1735629
1.174992
1.1923659
1.1981317
1.1968445
1.1995784
1.1998373
1.2015518
1.2023596
1.2036342
1.2045764
1.2056043
1.2064701
1.2072885
1.2079839
1.2085801
1.2090534
1.2094061
1.2096309
1.2097282
1.209698
1.2095435
1.2092694
1.2088819
1.2083891
1.2077997
1.2071234
1.2063703
1.2055509
1.2046752
1.2037533
1.2027948
1.2018084
1.2008025
1.1997846
1.1987614
1.1977391
1.1967227
1.195717
1.1947258
1.1937525
1.1927998
1.1918699
1.1909647
1.1900856
1.1892336
1.1884094
1.1876136
1.1868464
1.1861078
1.1853978
1.184716
1.1840622
1.1834357
1.1828361
1.1822627
1.1817148
1.1811917
1.1806927
1.1802169
1.1797635
1.1793317
1.1789207
1.1785295
1.1781573
1.1778032
1.1774662
1.1771456
1.1768404
1.1765498
1.1762727
1.1760082
1.1757545
1.1755102
1.1752762
1.1750464
1.1748097
1.1746083
1.174433
1.173996
1.1738252
1.1750378
1.1974577
1.2033548
1.202235
1.2051124
1.205549
1.2073271
1.2082611
1.2095857
1.2105632
1.2115796
1.2124081
1.2131444
1.2137249
1.2141676
1.2144553
1.2145916
1.2145746
1.2144089
1.2140999
1.2136559
1.2130867
1.2124035
1.2116185
1.2107443
1.2097936
1.2087792
1.207713
1.2066066
1.2054706
1.2043148
1.2031478
1.2019776
1.2008109
1.1996537
1.1985109
1.197387
1.1962853
1.1952089
1.1941601
1.1931406
1.1921519
1.1911949
1.1902703
1.1893784
1.1885194
1.1876933
1.1868996
1.1861382
1.1854084
1.1847096
1.1840412
1.1834024
1.1827923
1.1822103
1.1816553
1.1811266
1.1806232
1.1801442
1.1796888
1.1792561
1.178845
1.1784548
1.1780845
1.1777333
1.1774001
1.1770843
1.1767848
1.1765009
1.1762318
1.1759764
1.1757333
1.1755019
1.1752824
1.1750665
1.1748513
1.1746787
1.1744993
1.174096
1.1740539
1.1750556
1.2033141
1.209302
1.208385
1.2113481
1.2119335
1.2137604
1.2147914
1.2161354
1.2171105
1.2180513
1.2187691
1.219339
1.2197135
1.2199087
1.2199163
1.2197447
1.2193996
1.2188923
1.2182351
1.2174425
1.2165301
1.2155138
1.2144098
1.2132336
1.2120001
1.2107232
1.2094157
1.208089
1.2067532
1.2054175
1.2040893
1.2027753
1.2014811
1.2002111
1.198969
1.1977579
1.1965801
1.1954372
1.1943306
1.193261
1.192229
1.1912347
1.1902781
1.189359
1.1884767
1.1876309
1.1868207
1.1860454
1.1853042
1.1845961
1.1839202
1.1832756
1.1826612
1.182076
1.1815191
1.1809894
1.180486
1.1800079
1.1795542
1.1791239
1.178716
1.1783297
1.177964
1.1776181
1.1772911
1.1769821
1.1766903
1.176415
1.1761554
1.1759105
1.1756792
1.1754617
1.175257
1.1750566
1.1748643
1.1747147
1.1745325
1.1741816
1.1742373
1.175042
1.2098935
1.2159105
1.2151687
1.2181733
1.2190796
1.221031
1.2220568
1.2233148
1.2241849
1.2249377
1.2254271
1.2257106
1.2257588
1.2255902
1.2252085
1.2246302
1.2238706
1.2229492
1.2218861
1.2207018
1.2194169
1.2180509
1.2166222
1.2151478
1.2136429
1.212121
1.210594
1.2090718
1.2075633
1.2060753
1.204614
1.2031839
1.2017889
1.2004318
1.1991148
1.1978395
1.1966068
1.1954173
1.1942713
1.1931687
1.192109
1.1910919
1.1901165
1.189182
1.1882876
1.1874322
1.1866147
1.1858341
1.1850892
1.184379
1.1837022
1.1830578
1.1824445
1.1818613
1.1813071
1.1807808
1.1802813
1.1798077
1.179359
1.1789342
1.1785323
1.1781525
1.1777938
1.1774555
1.1771365
1.1768363
1.1765539
1.1762887
1.1760399
1.1758066
1.1755882
1.1753851
1.1751955
1.1750117
1.1748427
1.1747143
1.1745409
1.1742398
1.1743619
1.1749916
1.2171626
1.2231956
1.2228953
1.2261301
1.2269969
1.2288437
1.229877
1.230935
1.2315825
1.2320128
1.232129
1.2319832
1.2315678
1.2309113
1.2300322
1.2289581
1.227715
1.2263304
1.2248304
1.2232403
1.2215828
1.2198786
1.2181462
1.2164012
1.2146573
1.2129258
1.2112161
1.2095357
1.2078909
1.2062863
1.2047255
1.2032112
1.2017452
1.2003287
1.1989623
1.1976462
1.1963802
1.1951638
1.1939963
1.1928769
1.1918045
1.1907779
1.1897959
1.1888574
1.1879609
1.1871051
1.1862888
1.1855106
1.1847691
1.1840631
1.1833912
1.1827523
1.1821451
1.1815683
1.1810209
1.1805018
1.1800097
1.1795438
1.179103
1.1786864
1.178293
1.1779219
1.1775722
1.1772432
1.1769341
1.1766441
1.1763724
1.1761184
1.1758815
1.1756607
1.1754558
1.1752673
1.1750926
1.1749259
1.1747804
1.1746732
1.1745113
1.1742489
1.1744228
1.1749143
1.225578
1.2316886
1.2316227
1.2347346
1.2357468
1.2373745
1.2381819
1.2388602
1.2390683
1.2389759
1.238528
1.2377849
1.2367633
1.2355053
1.2340445
1.2324183
1.2306609
1.2288044
1.2268775
1.2249056
1.2229105
1.2209108
1.2189218
1.2169558
1.215023
1.2131312
1.2112863
1.2094928
1.2077539
1.2060718
1.2044477
1.2028822
1.2013753
1.1999267
1.1985356
1.1972011
1.195922
1.1946969
1.1935244
1.192403
1.1913311
1.1903072
1.1893296
1.1883968
1.1875072
1.1866592
1.1858514
1.1850822
1.1843501
1.1836539
1.182992
1.1823632
1.1817662
1.1811998
1.1806628
1.180154
1.1796723
1.1792168
1.1787864
1.1783802
1.1779972
1.1776366
1.1772977
1.1769795
1.1766814
1.1764026
1.1761426
1.1759006
1.1756762
1.1754684
1.1752773
1.1751031
1.1749426
1.1747926
1.1746683
1.1745765
1.1744287
1.1742215
1.1744136
1.1747852
1.2354831
1.2412206
1.2414413
1.2442905
1.2451032
1.2462588
1.2465675
1.2466009
1.2461248
1.2452953
1.2441044
1.2426259
1.2409001
1.2389813
1.2369134
1.234739
1.2324939
1.2302095
1.2279117
1.2256217
1.2233565
1.2211295
1.2189509
1.2168283
1.2147672
1.2127713
1.210843
1.2089837
1.2071936
1.2054725
1.2038198
1.2022342
1.2007143
1.1992585
1.1978651
1.1965321
1.1952576
1.1940397
1.1928764
1.1917658
1.190706
1.189695
1.1887311
1.1878124
1.1869372
1.1861038
1.1853106
1.1845561
1.1838386
1.1831567
1.1825091
1.1818943
1.181311
1.1807581
1.1802344
1.1797386
1.1792697
1.1788268
1.1784087
1.1780147
1.1776438
1.1772952
1.1769682
1.1766619
1.1763756
1.1761089
1.175861
1.1756315
1.1754197
1.175225
1.1750477
1.1748874
1.1747409
1.1746074
1.1745015
1.1744204
1.1742897
1.1741383
1.1743282
1.1745901
1.2466586
1.2516317
1.2518367
1.2541124
1.2544594
1.254827
1.2543346
1.2534536
1.2520652
1.2503275
1.248278
1.2460032
1.2435591
1.2410039
1.2383828
1.2357343
1.2330889
1.2304705
1.2278972
1.2253828
1.2229369
1.2205662
1.218275
1.2160658
1.2139396
1.2118964
1.2099354
1.2080552
1.2062538
1.2045293
1.2028794
1.2013015
1.1997933
1.1983522
1.1969757
1.1956615
1.194407
1.19321
1.1920682
1.1909793
1.1899413
1.1889521
1.1880097
1.1871123
1.186258
1.1854451
1.1846718
1.1839367
1.1832381
1.1825746
1.1819447
1.1813472
1.1807807
1.1802441
1.179736
1.1792555
1.1788015
1.1783729
1.1779689
1.1775886
1.1772311
1.1768955
1.1765812
1.1762876
1.1760138
1.1757595
1.175524
1.1753068
1.1751074
1.1749255
1.1747611
1.1746138
1.1744805
1.1743628
1.1742724
1.1741999
1.1740884
1.1739866
1.174159
1.1743316
1.2577317
1.2622189
1.2622929
1.2635808
1.263055
1.2622285
1.2605925
1.2585483
1.2560908
1.2533775
1.2504742
1.2474647
1.2444034
1.241338
1.2383023
1.2353223
1.2324159
1.2295956
1.2268695
1.2242421
1.2217157
1.2192905
1.2169658
1.2147395
1.2126093
1.2105723
1.2086253
1.2067651
1.2049884
1.2032917
1.201672
1.200126
1.1986505
1.1972427
1.1958996
1.1946186
1.1933969
1.192232
1.1911217
1.1900634
1.1890552
1.1880948
1.1871803
1.1863098
1.1854814
1.1846935
1.1839443
1.1832323
1.182556
1.1819139
1.1813046
1.1807268
1.1801793
1.1796609
1.1791704
1.1787067
1.178269
1.1778561
1.1774672
1.1771015
1.176758
1.1764361
1.1761352
1.1758544
1.1755932
1.1753512
1.1751278
1.1749225
1.1747349
1.1745648
1.1744123
1.1742764
1.1741551
1.1740513
1.1739729
1.1739071
1.1738151
1.1737526
1.1738994
1.174003
1.2697269
1.2729695
1.2723108
1.271744
1.2697753
1.2673745
1.2643978
1.2611488
1.2576889
1.2541439
1.2505742
1.2470384
1.2435708
1.2401977
1.236935
1.2337922
1.2307739
1.2278817
1.2251145
1.2224697
1.2199442
1.2175337
1.215234
1.2130405
1.2109486
1.2089536
1.2070511
1.2052369
1.2035068
1.2018569
1.2002835
1.1987831
1.1973524
1.1959881
1.1946873
1.1934471
1.192265
1.1911383
1.1900647
1.1890418
1.1880675
1.1871397
1.1862565
1.185416
1.1846164
1.1838561
1.1831333
1.1824465
1.1817944
1.1811755
1.1805884
1.1800318
1.1795047
1.1790058
1.178534
1.1780883
1.1776677
1.1772713
1.1768983
1.1765477
1.1762189
1.1759111
1.1756236
1.1753558
1.1751072
1.1748773
1.1746655
1.1744716
1.174295
1.1741357
1.1739936
1.1738677
1.1737569
1.1736645
1.173595
1.1735348
1.1734611
1.1734279
1.173545
1.1735988
1.2811553
1.2805179
1.2783751
1.2755959
1.272048
1.2681974
1.2641193
1.2599945
1.2558885
1.2518715
1.2479758
1.2442258
1.2406304
1.2371934
1.2339149
1.2307919
1.2278194
1.2249913
1.2223012
1.2197422
1.2173078
1.2149916
1.212787
1.2106879
1.2086886
1.206784
1.204969
1.2032392
1.2015903
1.2000183
1.1985195
1.1970905
1.1957279
1.1944288
1.1931901
1.1920091
1.1908833
1.1898102
1.1887874
1.1878129
1.1868844
1.1860002
1.1851584
1.1843572
1.1835949
1.18287
1.1821809
1.1815262
1.1809045
1.1803145
1.179755
1.1792246
1.1787224
1.1782471
1.1777979
1.1773736
1.1769733
1.1765963
1.1762417
1.1759086
1.1755964
1.1753043
1.1750318
1.1747782
1.1745431
1.1743258
1.1741261
1.1739435
1.1737776
1.1736283
1.1734955
1.1733782
1.1732761
1.1731921
1.1731279
1.1730709
1.1730109
1.1729988
1.1730941
1.1731044
1.2847843
1.2814841
1.2778685
1.2736592
1.2691988
1.2646834
1.2602187
1.2558816
1.251704
1.2477074
1.2438963
1.2402711
1.2368274
1.2335587
1.2304552
1.2275077
1.2247067
1.2220437
1.2195104
1.2170991
1.2148025
1.2126143
1.2105292
1.2085417
1.2066467
1.2048392
1.2031149
1.2014695
1.1998994
1.1984008
1.1969703
1.195605
1.1943017
1.1930577
1.1918704
1.1907373
1.189656
1.1886246
1.187641
1.1867034
1.18581
1.1849588
1.1841482
1.1833765
1.1826423
1.181944
1.1812801
1.1806493
1.1800504
1.1794819
1.1789429
1.178432
1.1779483
1.1774907
1.1770582
1.1766499
1.1762648
1.1759021
1.1755611
1.1752409
1.174941
1.1746604
1.1743988
1.1741554
1.1739299
1.1737216
1.1735302
1.1733552
1.1731964
1.1730535
1.1729263
1.1728142
1.1727171
1.1726368
1.1725734
1.1725194
1.1724716
1.1724594
1.1725084
1.1725157
1.2736687
1.2704987
1.2675783
1.2636244
1.259658
1.2556173
1.2516701
1.2478377
1.2441513
1.2406191
1.2372433
1.2340215
1.2309484
1.2280187
1.225226
1.2225638
1.2200257
1.2176051
1.2152962
1.213093
1.21099
1.2089817
1.2070633
1.2052311
1.2034812
1.2018097
1.2002133
1.1986885
1.197232
1.195841
1.1945125
1.1932439
1.1920326
1.1908763
1.1897725
1.1887194
1.1877149
1.1867569
1.1858434
1.1849726
1.1841428
1.1833522
1.1825994
1.1818828
1.181201
1.1805527
1.1799366
1.1793513
1.1787958
1.1782688
1.1777692
1.177296
1.1768482
1.1764247
1.1760248
1.1756474
1.1752917
1.174957
1.1746424
1.1743473
1.174071
1.1738128
1.173572
1.1733483
1.1731409
1.1729495
1.1727736
1.1726129
1.1724669
1.1723355
1.1722184
1.1721151
1.1720257
1.1719509
1.1718902
1.1718408
1.1718023
1.1717865
1.1718011
1.1718091
1.233479
1.2431494
1.2444359
1.2449508
1.243832
1.2421389
1.2399681
1.237586
1.2350751
1.2325242
1.2299735
1.2274561
1.2249897
1.222587
1.2202548
1.2179976
1.2158173
1.2137147
1.2116895
1.2097407
1.207867
1.2060668
1.2043378
1.2026775
1.2010836
1.1995541
1.1980868
1.1966795
1.1953304
1.1940373
1.1927984
1.1916119
1.1904759
1.1893887
1.1883487
1.1873543
1.1864037
1.185495
1.1846269
1.1837977
1.1830062
1.182251
1.1815308
1.1808443
1.1801904
1.1795678
1.1789755
1.1784124
1.1778773
1.1773693
1.1768873
1.1764304
1.1759977
1.1755883
1.1752013
1.1748359
1.1744912
1.1741666
1.1738613
1.1735746
1.1733058
1.1730542
1.1728194
1.1726007
1.1723976
1.1722096
1.1720363
1.1718772
1.171732
1.1716003
1.1714819
1.1713764
1.1712837
1.1712038
1.1711365
1.1710809
1.1710375
1.1710082
1.1709942
1.1709921
1.2455362
1.2457199
1.2459293
1.2460333
1.2453695
1.2438405
1.2413947
1.2382356
1.2345831
1.2305906
1.226586
1.2225001
1.2184862
1.2145356
1.2107363
1.2072291
1.2039882
1.2010909
1.1985062
1.1961987
1.1941804
1.1923864
1.1908246
1.1894479
1.1882478
1.1871693
1.1861934
1.1852919
1.1844824
1.1837946
1.1831784
1.182606
1.1820737
1.1815739
1.1811016
1.1806526
1.1802247
1.1798161
1.1794259
1.1790529
1.1786965
1.1783566
1.1780324
1.1777237
1.1774302
1.1771514
1.1768867
1.1766358
1.1763979
1.1761727
1.1759593
1.1757575
1.175566
1.1753852
1.1752123
1.1750498
1.1748916
1.1747451
1.1745964
1.1744646
1.1743174
1.1742021
1.1740438
1.1739528
1.1737616
1.1737141
1.1734519
1.173488
1.1730956
1.173286
1.1726236
1.173119
1.1720199
1.1730232
1.1712052
1.1730383
1.170052
1.1732075
1.1683834
1.1736946
1.1030873
1.107666
1.1141996
1.1216641
1.1298415
1.1380684
1.1449407
1.1505728
1.1555026
1.1597821
1.163432
1.166606
1.1693627
1.1717537
1.1738387
1.1756209
1.1771803
1.1784562
1.1795344
1.1803685
1.1810583
1.1815432
1.1819091
1.1821103
1.1822129
1.182197
1.1821172
1.1819663
1.1817664
1.1815319
1.1812652
1.1809733
1.180656
1.1803256
1.1799903
1.1796551
1.1793238
1.1789994
1.1786841
1.1783786
1.1780837
1.1778002
1.177528
1.1772672
1.1770178
1.1767796
1.1765525
1.1763361
1.1761301
1.1759343
1.1757479
1.175571
1.1754022
1.1752423
1.1750885
1.1749434
1.1748011
1.1746689
1.1745335
1.174413
1.1742774
1.1741699
1.1740229
1.1739352
1.1737572
1.1737067
1.173462
1.1734852
1.1731189
1.1732878
1.1726711
1.1731202
1.172082
1.173028
1.1712645
1.173051
1.1700888
1.1732527
1.1683899
1.1737618
1.2036497
1.204215
1.2062471
1.2089409
1.2101007
1.2095098
1.2082653
1.2067343
1.2050473
1.2033176
1.2015843
1.1998927
1.1982498
1.1966794
1.1951826
1.1937636
1.1924352
1.1912192
1.1901348
1.1891261
1.1881704
1.1873026
1.1864627
1.1857222
1.1850453
1.1844268
1.1839057
1.1834038
1.1829646
1.1824109
1.181897
1.1814211
1.1809734
1.1805527
1.180155
1.1797775
1.179418
1.1790749
1.1787469
1.1784324
1.1781317
1.1778443
1.1775691
1.1773067
1.1770565
1.1768181
1.1765912
1.1763756
1.1761707
1.1759763
1.1757916
1.1756166
1.1754498
1.1752918
1.17514
1.1749967
1.1748562
1.1747255
1.1745914
1.1744717
1.174337
1.1742293
1.1740831
1.1739934
1.1738169
1.1737612
1.1735199
1.1735347
1.1731707
1.1733261
1.1727261
1.1731442
1.1721431
1.1730357
1.1713272
1.1730456
1.1701498
1.1732481
1.1684337
1.1737721
1.1661841
1.1660665
1.1682213
1.1731563
1.1768854
1.1780049
1.1785515
1.1789946
1.1794014
1.1799024
1.1803705
1.1808288
1.181245
1.1816333
1.1818781
1.1822369
1.1822413
1.182595
1.1825057
1.182743
1.1825748
1.1827102
1.1825294
1.1825105
1.1822733
1.1821037
1.1817834
1.181548
1.1812635
1.1809789
1.1806847
1.1803864
1.1800853
1.1797832
1.1794824
1.1791848
1.1788921
1.1786057
1.1783263
1.1780551
1.1777929
1.17754
1.1772968
1.1770632
1.1768394
1.1766254
1.1764211
1.1762263
1.1760408
1.1758643
1.1756961
1.1755364
1.1753837
1.1752388
1.1750989
1.1749666
1.1748361
1.1747144
1.1745884
1.1744762
1.1743476
1.174246
1.1741039
1.1740194
1.173845
1.1737941
1.1735529
1.1735724
1.173207
1.1733665
1.1727604
1.1731859
1.1721684
1.1730764
1.1713566
1.1730864
1.1701735
1.1732816
1.1684531
1.1738001
1.1736866
1.175128
1.178569
1.183264
1.1852521
1.1857237
1.1855588
1.1854392
1.1853173
1.1852156
1.185072
1.1849415
1.1847778
1.1846212
1.1844419
1.1842529
1.1840591
1.1838323
1.1836138
1.1833375
1.1831099
1.1827757
1.1825092
1.182179
1.1818984
1.1815859
1.1813143
1.1810088
1.1807164
1.1804244
1.1801353
1.1798499
1.1795688
1.1792927
1.1790217
1.1787563
1.1784968
1.1782434
1.1779963
1.1777561
1.1775234
1.1772982
1.1770808
1.1768714
1.1766701
1.1764771
1.1762923
1.1761158
1.1759471
1.1757863
1.1756327
1.1754864
1.1753461
1.1752126
1.1750831
1.1749603
1.1748383
1.1747242
1.174605
1.1744985
1.1743753
1.1742775
1.1741396
1.174057
1.1738859
1.1738348
1.1735967
1.173614
1.1732518
1.1734048
1.1728074
1.1732204
1.1722191
1.1731056
1.1714017
1.1731082
1.1702148
1.1733019
1.1684822
1.173819
1.1674094
1.1687708
1.1724776
1.1772657
1.1798235
1.1804206
1.1803302
1.1804097
1.1804654
1.180549
1.180568
1.1806058
1.1806092
1.1806247
1.1806129
1.1806054
1.1805761
1.1805476
1.180499
1.1804534
1.1803808
1.1803212
1.180231
1.1801413
1.1800252
1.1799026
1.1797572
1.1796069
1.1794436
1.1792718
1.1790918
1.1789053
1.1787136
1.178518
1.1783197
1.17812
1.1779201
1.1777212
1.1775238
1.1773294
1.1771388
1.1769526
1.1767712
1.1765952
1.1764248
1.1762604
1.1761022
1.1759502
1.1758042
1.1756643
1.1755301
1.1754015
1.1752776
1.1751589
1.175043
1.1749324
1.1748215
1.1747172
1.1746069
1.1745078
1.1743916
1.1742991
1.1741666
1.1740872
1.1739203
1.1738702
1.1736359
1.1736517
1.1732936
1.1734423
1.1728475
1.1732553
1.1722561
1.1731367
1.1714401
1.1731357
1.1702483
1.1733237
1.1685081
1.1738376
1.1665711
1.1682731
1.1724097
1.1770711
1.1790715
1.1794611
1.1794119
1.1794365
1.1794115
1.1794477
1.1794332
1.1794623
1.1794489
1.1794616
1.1794452
1.1794355
1.1794042
1.1793766
1.1793335
1.1792861
1.1792289
1.1791613
1.1790866
1.1790023
1.1789116
1.1788124
1.1787076
1.1785944
1.1784749
1.178349
1.1782172
1.1780805
1.1779394
1.1777947
1.177647
1.1774971
1.1773458
1.1771938
1.1770414
1.17689
1.1767402
1.1765925
1.1764475
1.1763055
1.1761671
1.1760325
1.1759021
1.1757759
1.1756539
1.1755363
1.1754225
1.1753128
1.1752062
1.1751032
1.1750017
1.1749039
1.1748048
1.1747106
1.1746097
1.1745182
1.1744093
1.1743221
1.1741953
1.1741186
1.1739565
1.1739065
1.1736768
1.1736896
1.1733369
1.1734788
1.1728921
1.173289
1.1723029
1.1731658
1.1714825
1.1731604
1.1702858
1.1733433
1.1685352
1.1738537
1.1641362
1.1661021