/*--------------------------------*- C++ -*----------------------------------*\
  =========                 |
  \\      /  F ield         | OpenFOAM: The Open Source CFD Toolbox
   \\    /   O peration     | Website:  https://openfoam.org
    \\  /    A nd           | Version:  6
     \\/     M anipulation  |
\*---------------------------------------------------------------------------*/
FoamFile
{
    version     2.0;
    format      ascii;
    class       volScalarField;
    location    "900";
    object      T;
}
// * * * * * * * * * * * * * * * * * * * * * * * * * * * * * * * * * * * * * //

dimensions      [0 0 0 1 0 0 0];

internalField   nonuniform List<scalar> 
16000
(
297.78745
296.6484
297.05426
296.89705
297.03783
297.00945
297.0778
297.08909
297.13478
297.16047
297.19902
297.23092
297.26773
297.3027
297.33971
297.37652
297.41434
297.45243
297.49112
297.53015
297.56953
297.60914
297.64891
297.68874
297.72852
297.76813
297.80747
297.8464
297.88479
297.92251
297.95942
297.99539
298.03029
298.06396
298.0963
298.12716
298.15642
298.18399
298.20975
298.2336
298.25547
298.2753
298.29301
298.30856
298.32193
298.33309
298.34203
298.34877
298.3533
298.35567
298.3559
298.35405
298.35016
298.34432
298.33658
298.32701
298.31568
298.30268
298.28811
298.27208
298.25467
298.23599
298.2161
298.19522
298.1733
298.15093
298.1275
298.10476
298.08008
298.05886
298.03181
298.01643
297.98252
297.9836
297.92921
297.97666
297.87614
298.01846
297.83921
298.07217
297.81234
296.68396
297.10671
296.9466
297.09257
297.0643
297.13566
297.14868
297.19665
297.22457
297.26521
297.29946
297.33835
297.37563
297.41476
297.45379
297.4937
297.53389
297.57458
297.61554
297.65674
297.69807
297.73943
297.7807
297.82176
297.86247
297.9027
297.94232
297.98117
298.01912
298.05602
298.09172
298.12607
298.15895
298.19023
298.21977
298.24747
298.27322
298.29693
298.31853
298.33795
298.35515
298.37008
298.38273
298.39309
298.40116
298.40697
298.41054
298.41192
298.41114
298.40828
298.40339
298.39655
298.38783
298.37734
298.36513
298.35129
298.33591
298.31909
298.30093
298.28153
298.26097
298.23936
298.21682
298.19343
298.16949
298.1449
298.12046
298.09522
298.07164
298.04571
298.02571
297.9969
297.98733
297.94552
297.97122
297.89567
298.00516
297.8608
298.04917
297.85857
296.74577
297.17793
297.01637
297.16653
297.14006
297.21384
297.22951
297.27961
297.31028
297.3531
297.39001
297.43119
297.47099
297.51243
297.55384
297.59599
297.63838
297.68114
297.72407
297.76711
297.81012
297.85299
297.89556
297.93772
297.9793
298.02015
298.06011
298.09904
298.13677
298.17315
298.20802
298.24124
298.27267
298.30219
298.32969
298.35505
298.37819
298.39905
298.41756
298.43369
298.44741
298.45872
298.46763
298.47416
298.47834
298.48022
298.47987
298.47734
298.47273
298.46609
298.45753
298.44713
298.43499
298.42121
298.40588
298.38907
298.3709
298.35145
298.33084
298.30914
298.28647
298.26289
298.23853
298.21349
298.18795
298.16201
298.13607
298.10992
298.08462
298.05864
298.03589
298.00926
297.99398
297.95933
297.97091
297.91257
297.99789
297.87845
298.04706
297.92482
296.83244
297.26847
297.10664
297.26066
297.23657
297.3128
297.33149
297.38388
297.41757
297.46278
297.50254
297.54619
297.58866
297.63255
297.67642
297.72088
297.76551
297.81035
297.8552
297.89998
297.94454
297.98872
298.03236
298.07532
298.11741
298.15848
298.19833
298.23682
298.27376
298.309
298.34239
298.37377
298.40303
298.43003
298.45469
298.47691
298.49664
298.51382
298.52843
298.54047
298.54993
298.55685
298.56128
298.56326
298.56287
298.56019
298.55531
298.54832
298.53933
298.52843
298.51574
298.50137
298.48541
298.46799
298.44921
298.42915
298.40791
298.38559
298.3623
298.33813
298.31315
298.28746
298.26114
298.23431
298.2071
298.17966
298.15225
298.12492
298.09821
298.0716
298.04695
298.02105
298.0019
297.97208
297.97291
297.92674
297.99403
297.89389
298.04427
298.01071
296.94579
297.37894
297.21826
297.37563
297.35491
297.43346
297.45581
297.51061
297.54772
297.59553
297.63843
297.68477
297.73012
297.77662
297.8231
297.86997
297.91687
297.96378
298.01051
298.05692
298.10284
298.1481
298.19253
298.23592
298.2781
298.31888
298.35806
298.39548
298.43096
298.46432
298.49543
298.52415
298.55035
298.57394
298.59484
298.613
298.62837
298.64096
298.65075
298.65779
298.66213
298.66383
298.66297
298.65964
298.65396
298.64604
298.636
298.62396
298.61005
298.59439
298.57712
298.55835
298.53821
298.51681
298.49426
298.47067
298.44613
298.42072
298.39456
298.36773
298.34031
298.31238
298.28401
298.2553
298.22637
298.19738
298.16852
298.13993
298.11193
298.08447
298.05841
298.03255
298.0109
297.98402
297.97725
297.93987
297.99258
297.9082
298.04684
298.11782
297.08347
297.51079
297.35276
297.51292
297.4965
297.57728
297.60383
297.66119
297.70206
297.75269
297.79896
297.84819
297.89656
297.94581
297.99496
298.04427
298.09343
298.14233
298.19079
298.23863
298.28564
298.33164
298.3764
298.41973
298.46142
298.50126
298.53906
298.57463
298.60779
298.63838
298.66627
298.69134
298.71349
298.73264
298.74876
298.76183
298.77184
298.77884
298.78286
298.78399
298.78233
298.77797
298.77105
298.7617
298.75007
298.7363
298.72054
298.70295
298.68367
298.66286
298.64064
298.61717
298.59256
298.56693
298.54042
298.51311
298.48509
298.45646
298.42731
298.39773
298.36778
298.33754
298.30706
298.27643
298.24576
298.21518
298.18487
298.155
298.12579
298.09736
298.07017
298.04392
298.02048
297.99551
297.98381
297.95232
297.993
297.92107
298.05162
298.24792
297.23611
297.6653
297.51149
297.67386
297.66265
297.74561
297.77686
297.83697
297.88192
297.93562
297.98549
298.03781
298.08936
298.14147
298.19335
298.2451
298.29643
298.34719
298.39715
298.4461
298.49381
298.54005
298.58459
298.6272
298.66765
298.70573
298.74124
298.77398
298.8038
298.83054
298.8541
298.87438
298.89131
298.90488
298.91508
298.92193
298.92549
298.92584
298.9231
298.91738
298.90883
298.89761
298.88388
298.86783
298.84962
298.82945
298.80749
298.78392
298.7589
298.7326
298.70517
298.67675
298.64747
298.61746
298.58683
298.55568
298.5241
298.49217
298.45998
298.4276
298.39509
298.36251
298.32992
298.29737
298.26497
298.23282
298.20109
298.16996
298.13961
298.11021
298.08206
298.05527
298.0306
298.00645
297.99084
297.96461
297.99495
297.93355
298.05779
298.40184
297.41078
297.8427
297.69484
297.85901
297.85404
297.93928
297.97583
298.03902
298.08844
298.14554
298.19927
298.25493
298.3098
298.36489
298.4195
298.47363
298.52698
298.57934
298.63045
298.68006
298.72791
298.77373
298.81728
298.85829
298.89654
298.93181
298.96389
298.99262
299.01784
299.03946
299.05737
299.07155
299.08197
299.08866
299.09169
299.09112
299.08709
299.07974
299.06922
299.05573
299.03946
299.02061
298.9994
298.97604
298.95075
298.92373
298.89519
298.86531
298.83429
298.80229
298.76947
298.73597
298.70192
298.66745
298.63266
298.59765
298.5625
298.52727
298.49204
298.45688
298.42184
298.38697
298.3523
298.31788
298.28379
298.25013
298.21705
298.1847
298.15328
298.12296
298.09396
298.06657
298.04106
298.01747
297.9992
297.97673
297.99796
297.94596
298.06398
298.57989
297.61074
298.04392
297.90389
298.06958
298.07194
298.15971
298.20219
298.26888
298.32318
298.38406
298.44193
298.50115
298.55947
298.61758
298.67485
298.73119
298.78627
298.83982
298.89155
298.94115
298.98834
299.03283
299.07435
299.11263
299.14743
299.17856
299.20583
299.22909
299.24824
299.26322
299.274
299.28059
299.28306
299.28149
299.27601
299.26679
299.25402
299.23789
299.21864
299.19651
299.17175
299.14461
299.11534
299.08419
299.05141
299.01722
298.98183
298.94546
298.90829
298.8705
298.83223
298.79363
298.75482
298.71592
298.67702
298.63821
298.59955
298.5611
298.52293
298.48508
298.44759
298.4105
298.37385
298.33765
298.30196
298.26688
298.23253
298.19906
298.16665
298.13548
298.10576
298.07777
298.05169
298.02826
298.00819
297.98876
298.00185
297.95818
298.0712
298.78182
297.83723
298.2706
298.14036
298.30738
298.31816
298.4088
298.45783
298.52851
298.58808
298.65311
298.71534
298.77831
298.8401
298.90115
298.96089
299.01908
299.07539
299.12948
299.18101
299.22966
299.27509
299.31701
299.35513
299.3892
299.41899
299.44433
299.46508
299.48114
299.49249
299.49911
299.50107
299.49846
299.49143
299.48015
299.46483
299.44572
299.42308
299.39718
299.36833
299.33681
299.30293
299.26697
299.22922
299.18996
299.14944
299.1079
299.06557
299.02266
298.97934
298.93579
298.89214
298.84854
298.80509
298.76189
298.71902
298.67656
298.63455
298.59303
298.55206
298.51166
298.47188
298.43272
298.39421
298.35636
298.31922
298.28283
298.24733
298.21285
298.17956
298.14764
298.11731
298.08879
298.06233
298.03888
298.01772
298.00056
298.00644
297.97021
298.0774
299.00423
298.09214
298.52456
298.40615
298.57442
298.59472
298.68872
298.7449
298.82011
298.88532
298.95486
299.02161
299.0884
299.15355
299.2173
299.27904
299.33848
299.39522
299.44886
299.49903
299.54538
299.58755
299.62525
299.65819
299.68617
299.70899
299.72654
299.73875
299.74561
299.74717
299.74353
299.73486
299.72134
299.70321
299.68077
299.65431
299.62415
299.59064
299.55413
299.51496
299.47348
299.43003
299.38491
299.33846
299.29093
299.24261
299.19374
299.14453
299.09517
299.04586
298.99673
298.94791
298.89953
298.85166
298.8044
298.75779
298.71191
298.66678
298.62242
298.57886
298.53614
298.49425
298.45321
298.41303
298.37371
298.33526
298.29774
298.26123
298.22588
298.19184
298.1593
298.12845
298.0995
298.07282
298.0492
298.02751
298.01199
298.0115
297.98214
298.08372
299.25123
298.37731
298.80777
298.70336
298.873
298.90399
299.00197
299.06592
299.14623
299.21742
299.29174
299.36304
299.43354
299.50172
299.56761
299.63059
299.69028
299.74621
299.79796
299.84512
299.88731
299.92421
299.95553
299.98104
300.00058
300.01406
300.02145
300.02279
300.01819
300.00781
299.99188
299.97069
299.94454
299.9138
299.87885
299.84008
299.7979
299.75273
299.70496
299.655
299.60321
299.54997
299.4956
299.44043
299.38472
299.32875
299.27273
299.21688
299.16137
299.10636
299.05197
298.99831
298.94548
298.89353
298.84253
298.79252
298.74353
298.69558
298.64867
298.60281
298.55801
298.51427
298.47158
298.42995
298.38936
298.34981
298.31133
298.274
298.23794
298.2033
298.17026
298.13903
298.10977
298.08296
298.05909
298.03729
298.02291
298.01679
297.99303
298.08871
299.52707
298.69543
299.12293
299.03485
299.20614
299.24896
299.35167
299.42396
299.5099
299.58728
299.66647
299.74211
299.81589
299.88637
299.95342
300.01637
300.07475
300.12806
300.17585
300.21771
300.25328
300.28227
300.30448
300.31976
300.32807
300.32943
300.32397
300.31186
300.29336
300.26881
300.23856
300.20303
300.16268
300.11797
300.06938
300.01739
299.96249
299.90514
299.84579
299.78485
299.72271
299.65975
299.5963
299.53265
299.46907
299.4058
299.34305
299.28098
299.21976
299.1595
299.1003
299.04225
298.9854
298.9298
298.87548
298.82246
298.77075
298.72034
298.67122
298.62338
298.57682
298.53151
298.48746
298.44462
298.403
298.36257
298.32336
298.2854
298.24881
298.21373
298.18036
298.14886
298.11943
298.09258
298.06846
298.04681
298.03314
298.02238
298.00336
298.09283
299.83414
299.04986
299.47342
299.40407
299.57746
299.63319
299.74146
299.82253
299.91448
299.99803
300.08186
300.16122
300.23736
300.30885
300.37544
300.43637
300.49115
300.53925
300.58023
300.61372
300.63945
300.65722
300.66697
300.6687
300.66254
300.6487
300.62746
300.59922
300.5644
300.5235
300.47706
300.42562
300.36976
300.31006
300.24707
300.18134
300.1134
300.04375
299.97283
299.90109
299.82889
299.75659
299.6845
299.61289
299.54198
299.47199
299.40308
299.3354
299.26904
299.20412
299.14068
299.07878
299.01846
298.95971
298.90256
298.84699
298.79299
298.74054
298.6896
298.64015
298.59216
298.54562
298.50048
298.45673
298.41434
298.37328
298.33356
298.2952
298.25828
298.22295
298.18939
298.15777
298.12831
298.10148
298.07718
298.05591
298.04228
298.02785
298.01293
298.09585
300.17516
299.44429
299.86302
299.81488
299.99098
300.06063
300.17544
300.26555
300.36357
300.45286
300.54057
300.6224
300.69923
300.76961
300.83318
300.88916
300.93706
300.97637
301.00674
301.02792
301.0398
301.04237
301.03575
301.02019
300.99604
300.96374
300.92381
300.87686
300.8235
300.76442
300.70029
300.63179
300.5596
300.48436
300.4067
300.32718
300.24635
300.16471
300.08268
300.00068
299.91906
299.83811
299.75811
299.67929
299.60182
299.52587
299.45157
299.37899
299.30823
299.23933
299.17231
299.1072
299.04399
298.98267
298.92322
298.86561
298.8098
298.75575
298.70341
298.65274
298.60371
298.55626
298.51037
298.46599
298.42311
298.38168
298.3417
298.30317
298.26614
298.23075
298.19717
298.16556
298.13621
298.10946
298.08509
298.06437
298.05053
298.03332
298.0222
298.09722
300.55339
299.88343
300.29647
300.27202
300.45161
300.53601
300.65831
300.75709
300.86079
300.95462
301.04461
301.12668
301.20144
301.26742
301.32421
301.37108
301.4076
301.43341
301.44834
301.45238
301.44566
301.42846
301.4012
301.36441
301.31874
301.2649
301.20365
301.13582
301.06222
300.98367
300.90098
300.81491
300.72619
300.63551
300.54349
300.4507
300.35764
300.26478
300.17252
300.08119
299.9911
299.90249
299.81556
299.73049
299.64741
299.56642
299.4876
299.41099
299.33662
299.2645
299.19463
299.12699
299.06155
298.99826
298.93708
298.87795
298.82083
298.76565
298.71235
298.66087
298.61116
298.56317
298.51686
298.47217
298.42908
298.38754
298.34755
298.30908
298.27217
298.23693
298.20349
298.17205
298.14294
298.11633
298.09202
298.07184
298.05752
298.03876
298.03069
298.09656
300.97196
300.37316
300.77986
300.78161
300.96573
301.0654
301.19619
301.30086
301.40903
301.50524
301.59461
301.67333
301.74173
301.79846
301.84316
301.87524
301.89452
301.90093
301.89461
301.87591
301.84534
301.80357
301.75138
301.68965
301.61933
301.54142
301.45691
301.36681
301.27207
301.17362
301.07231
300.96896
300.86428
300.75894
300.65352
300.54853
300.44442
300.34158
300.24033
300.14093
300.04361
299.94854
299.85587
299.76569
299.67807
299.59307
299.5107
299.43096
299.35385
299.27933
299.20736
299.1379
299.07088
299.00624
298.9439
298.88381
298.82588
298.77005
298.71622
298.66434
298.61435
298.56617
298.51976
298.47506
298.43205
298.39067
298.35091
298.31274
298.27618
298.24129
298.20819
298.17707
298.14828
298.12189
298.09784
298.07814
298.06292
298.04373
298.03811
298.09411
301.43313
300.92184
301.32098
301.35123
301.53966
301.65397
301.78896
301.90098
302.01047
302.10519
302.18903
302.2587
302.31437
302.35497
302.38037
302.39038
302.38522
302.36529
302.33123
302.28388
302.22423
302.15339
302.07255
301.98294
301.88579
301.78232
301.6737
301.56103
301.44534
301.32757
301.20858
301.0891
300.96982
300.8513
300.73405
300.61848
300.50493
300.3937
300.28501
300.17905
300.07595
299.9758
299.87868
299.78461
299.69361
299.60567
299.52076
299.43885
299.35987
299.28376
299.21046
299.13988
299.07194
299.00655
298.94364
298.88311
298.82487
298.76883
298.71492
298.66304
298.61313
298.56511
298.51893
298.47454
298.43188
298.39091
298.35162
298.31398
298.27798
298.24366
298.21109
298.18046
298.15207
298.12595
298.10234
298.08305
298.06665
298.04784
298.04401
298.09014
301.95107
301.54371
301.92914
301.9903
302.17877
302.30534
302.44564
302.55944
302.66457
302.75111
302.82175
302.87392
302.90796
302.92333
302.92043
302.8997
302.862
302.80839
302.74016
302.65871
302.56557
302.46226
302.35035
302.23133
302.10662
301.97757
301.8454
301.71121
301.57599
301.4406
301.3058
301.17221
301.0404
300.91079
300.78377
300.65962
300.53857
300.4208
300.30644
300.19557
300.08823
299.98446
299.88423
299.78754
299.69432
299.60452
299.51808
299.4349
299.35491
299.27801
299.2041
299.13309
299.06486
298.99932
298.93637
298.8759
298.81782
298.76203
298.70843
298.65693
298.60747
298.55995
298.51431
298.4705
298.42846
298.38816
298.34957
298.31266
298.27743
298.24387
298.21204
298.18207
298.15419
298.1284
298.10529
298.08632
298.06902
298.0511
298.04843
298.08444
302.53174
302.2378
302.60476
302.69211
302.88152
303.02962
303.16569
303.27333
303.36491
303.43267
303.47904
303.50228
303.50334
303.48256
303.44119
303.38056
303.30238
303.20849
303.10083
302.98139
302.85212
302.71489
302.57146
302.42346
302.27234
302.11941
301.9658
301.8125
301.66034
301.51002
301.36212
301.21712
301.07538
300.93719
300.80278
300.67231
300.54587
300.42353
300.30532
300.19123
300.08123
299.97527
299.87327
299.77517
299.68085
299.59023
299.5032
299.41964
299.33945
299.26249
299.18867
299.11785
299.04992
298.98478
298.92229
298.86236
298.80487
298.74973
298.69682
298.64607
298.59738
298.55067
298.50587
298.46291
298.42176
298.38235
298.34467
298.30869
298.27439
298.24178
298.21087
298.18177
298.15457
298.12925
298.10658
298.08779
298.07029
298.05355
298.05081
298.07711
303.18304
303.00639
303.34764
303.48332
303.68822
303.81714
303.94047
304.02917
304.09403
304.12889
304.13681
304.11734
304.07257
304.00413
303.91439
303.80577
303.68087
303.54226
303.39244
303.23378
303.06846
302.89847
302.72554
302.5512
302.37677
302.20333
302.03182
301.86298
301.69741
301.53558
301.37787
301.22455
301.07579
300.93174
300.79246
300.65798
300.52828
300.40333
300.28306
300.16738
300.05621
299.94942
299.84689
299.74851
299.65414
299.56365
299.4769
299.39376
299.31409
299.23777
299.16464
299.0946
299.02751
298.96324
298.90168
298.8427
298.78621
298.73208
298.68022
298.63053
298.58292
298.53731
298.49361
298.45178
298.41174
298.37345
298.33687
298.302
298.2688
298.23728
298.20746
298.1794
298.1531
298.1285
298.10641
298.0877
298.06972
298.05356
298.05202
298.06897
303.9134
303.87385
304.22472
304.36198
304.54297
304.65719
304.7523
304.80378
304.8236
304.80753
304.7602
304.68308
304.57986
304.45366
304.30808
304.14649
303.97218
303.78815
303.59714
303.40157
303.20352
303.00476
302.80679
302.61081
302.41782
302.2286
302.04373
301.86369
301.68879
301.51927
301.35526
301.19685
301.04404
300.89682
300.75511
300.61885
300.48791
300.36216
300.24149
300.12573
300.01473
299.90835
299.80641
299.70878
299.61528
299.52576
299.44007
299.35805
299.27956
299.20446
299.13259
299.06383
298.99804
298.93509
298.87485
298.81722
298.76207
298.7093
298.65879
298.61045
298.5642
298.51994
298.4776
298.43711
298.3984
298.36143
298.32616
298.29256
298.26062
298.23032
298.2017
298.1748
298.14956
298.12597
298.10476
298.0862
298.06761
298.05153
298.05147
298.06028
304.74651
304.86413
305.16911
305.30209
305.45128
305.52422
305.56515
305.55547
305.50763
305.42103
305.30216
305.15483
304.98428
304.79494
304.59124
304.37704
304.15579
303.93044
303.70347
303.47694
303.25249
303.03144
302.8148
302.60334
302.39763
302.19804
302.00486
301.81822
301.63819
301.46476
301.29789
301.13748
300.98339
300.83549
300.6936
300.55756
300.42718
300.30227
300.18264
300.06811
299.95848
299.85357
299.7532
299.65719
299.56536
299.47755
299.39358
299.3133
299.23655
299.16318
299.09305
299.02601
298.96193
298.90068
298.84214
298.78617
298.73268
298.68155
298.63267
298.58595
298.5413
298.49863
298.45786
298.41892
298.38175
298.3463
298.31251
298.28036
298.24982
298.22089
298.19358
298.16792
298.14382
298.12138
298.10122
298.08317
298.06481
298.04916
298.04829
298.05055
305.67667
305.92614
306.17456
306.27253
306.35558
306.35723
306.3151
306.21891
306.0827
305.90997
305.70919
305.48614
305.247
304.99678
304.73989
304.47994
304.21985
303.96194
303.70799
303.45935
303.217
302.98164
302.75373
302.53356
302.32125
302.11684
301.92029
301.73148
301.55026
301.37644
301.20982
301.05017
300.89727
300.75088
300.61076
300.47668
300.34841
300.22572
300.10839
299.99621
299.88896
299.78644
299.68845
299.59481
299.50534
299.41985
299.33818
299.26016
299.18564
299.11446
299.04647
298.98154
298.91953
298.86032
298.80377
298.74977
298.69821
298.64898
298.60198
298.55711
298.51428
298.4734
298.43441
298.39722
298.36177
298.32801
298.29589
298.26536
298.23639
298.20897
298.18312
298.15881
298.13599
298.11478
298.09569
298.07825
298.06058
298.0458
298.04352
298.04083
306.67345
307.01578
307.17617
307.19982
307.17891
307.07426
306.92034
306.71665
306.47893
306.21431
305.9321
305.6387
305.3399
305.03999
304.74237
304.44954
304.16332
303.88498
303.61536
303.35498
303.10411
302.86284
302.63112
302.40883
302.19575
301.99164
301.79622
301.60918
301.43023
301.25906
301.09537
300.93885
300.78921
300.64616
300.50944
300.37877
300.2539
300.13457
300.02057
299.91165
299.80761
299.70823
299.61331
299.52267
299.43611
299.35347
299.27457
299.19925
299.12736
299.05874
298.99325
298.93076
298.87113
298.81423
298.75996
298.70818
298.6588
298.6117
298.56679
298.52398
298.48317
298.44428
298.40724
298.37198
298.33843
298.30652
298.27622
298.24748
298.22024
298.19451
298.17026
298.14747
298.12608
298.10626
298.08832
298.07168
298.0551
298.04163
298.03763
298.03103
307.9059
308.05865
308.07946
307.97429
307.80492
307.56372
307.28126
306.96564
306.63171
306.28738
305.94032
305.59544
305.25653
304.92608
304.60575
304.29656
303.99906
303.71343
303.43967
303.17758
302.92688
302.68721
302.45818
302.23936
302.03034
301.8307
301.64001
301.45788
301.28392
301.11776
300.95905
300.80746
300.66266
300.52435
300.39225
300.26608
300.14558
300.0305
299.9206
299.81566
299.71546
299.6198
299.52849
299.44133
299.35814
299.27876
299.20302
299.13077
299.06184
298.9961
298.93341
298.87364
298.81666
298.76235
298.71059
298.66127
298.61429
298.56954
298.52693
298.48637
298.44777
298.41106
298.37616
298.343
298.31151
298.28163
298.25332
298.22653
298.20121
298.17733
298.15488
298.1338
298.11406
298.09581
298.0792
298.06363
298.04842
298.03627
298.03091
298.02227
308.74291
308.81324
308.64824
308.37697
308.04866
307.6781
307.28802
306.88893
306.49096
306.0996
305.71898
305.35136
304.99804
304.65963
304.3362
304.02753
303.73318
303.45263
303.18526
302.93049
302.68769
302.45629
302.23568
302.0253
301.82463
301.63316
301.45044
301.27605
301.10956
300.95061
300.79884
300.65391
300.51551
300.38334
300.25711
300.13658
300.02147
299.91156
299.80662
299.70643
299.6108
299.51952
299.43241
299.3493
299.27001
299.19438
299.12226
299.05349
298.98794
298.92547
298.86594
298.80924
298.75523
298.70382
298.65487
298.6083
298.56399
298.52186
298.4818
298.44374
298.40759
298.37328
298.34073
298.30988
298.28066
298.25301
298.22689
298.20223
298.17901
298.1572
298.13675
298.11761
298.09977
298.08334
298.06834
298.05423
298.04078
298.03031
298.02439
298.01341
308.95318
308.87948
308.55489
308.15521
307.72937
307.29404
306.86244
306.44137
306.03516
305.6457
305.27382
304.91951
304.58239
304.26168
303.95658
303.66626
303.38989
303.12668
302.87589
302.63681
302.40878
302.19122
301.98358
301.78538
301.59615
301.41545
301.24287
301.07803
300.92056
300.77014
300.62642
300.48912
300.35793
300.2326
300.11286
299.99846
299.88917
299.78478
299.6851
299.58994
299.4991
299.41242
299.32971
299.25083
299.1756
299.10388
299.03553
298.9704
298.90836
298.84929
298.79306
298.73956
298.68866
298.64026
298.59427
298.55057
298.50907
298.46968
298.43231
298.39689
298.36332
298.33155
298.30149
298.27309
298.24627
298.22099
298.19719
298.17483
298.15386
298.13424
298.11595
298.09892
298.08316
298.06873
298.05557
298.04336
298.03209
298.02306
298.0168
298.00807
307.79012
307.87245
307.54185
307.22127
306.84816
306.47189
306.09558
305.72854
305.37281
305.03022
304.70116
304.38568
304.08347
303.79419
303.51741
303.25267
302.99949
302.75738
302.52587
302.3045
302.0928
301.89033
301.6967
301.51156
301.33455
301.16533
301.00355
300.8489
300.70107
300.55976
300.42471
300.29564
300.17231
300.05448
299.94193
299.83445
299.73184
299.63387
299.54035
299.45108
299.36591
299.28465
299.20716
299.13329
299.06289
298.99582
298.93195
298.87116
298.81331
298.7583
298.706
298.65632
298.60913
298.56435
298.52188
298.48161
298.44347
298.40736
298.37321
298.34093
298.31045
298.2817
298.25461
298.22913
298.20518
298.18272
298.1617
298.14206
298.12377
298.10678
298.09107
298.07659
298.06333
298.0513
298.04046
298.03067
298.02198
298.01489
298.00953
298.00389
304.55857
305.15035
305.30541
305.35316
305.25246
305.09161
304.88486
304.65464
304.4105
304.16029
303.90876
303.65919
303.41382
303.17409
302.94097
302.71506
302.4967
302.28606
302.08317
301.88801
301.70045
301.52034
301.34747
301.1816
301.02247
300.86987
300.72355
300.5833
300.44889
300.32011
300.19676
300.07864
299.96557
299.85737
299.75387
299.6549
299.56029
299.46988
299.38351
299.30104
299.22232
299.14721
299.07559
299.00731
298.94227
298.88034
298.8214
298.76535
298.71208
298.66147
298.61343
298.56787
298.52468
298.48378
298.44508
298.40849
298.37393
298.34132
298.31058
298.28165
298.25446
298.22893
298.20501
298.18263
298.16175
298.14231
298.12425
298.10754
298.09213
298.07799
298.06508
298.05337
298.04284
298.03348
298.02525
298.01812
298.0121
298.00729
298.00371
298.00109
308.03812
308.11132
307.72698
307.01027
306.17586
305.35857
304.6481
304.04809
303.53961
303.10222
302.69449
302.33274
302.00861
301.7136
301.43493
301.17607
300.93308
300.71201
300.50604
300.31994
300.14735
299.99387
299.85237
299.72535
299.60895
299.50678
299.41288
299.32863
299.25026
299.18009
299.1171
299.05898
299.00483
298.9538
298.90538
298.85916
298.81482
298.77214
298.73096
298.69123
298.65284
298.61571
298.57985
298.54519
298.51166
298.47925
298.44791
298.41762
298.38832
298.35998
298.33257
298.30601
298.28025
298.25526
298.23095
298.20731
298.18419
298.16166
298.13943
298.11789
298.0962
298.07563
298.05395
298.03463
298.01213
297.99512
297.9705
297.95791
297.92703
297.92343
297.88679
297.89746
297.84489
297.88155
297.80518
297.88215
297.78343
297.90574
297.80591
297.94362
306.21325
305.56821
304.97137
304.21186
303.3754
302.63756
302.05895
301.63547
301.33099
301.0977
300.90859
300.74713
300.60331
300.47029
300.34273
300.2243
300.10637
300.00193
299.89475
299.80081
299.7047
299.62198
299.53851
299.46551
299.39313
299.32866
299.26527
299.20815
299.15219
299.09925
299.04931
299.00154
298.95523
298.91027
298.86664
298.8243
298.7832
298.74332
298.7046
298.66713
298.63082
298.59564
298.5616
298.52866
298.49677
298.46591
298.43604
298.40714
298.37917
298.35208
298.32584
298.30038
298.27566
298.25164
298.22824
298.20543
298.18308
298.16126
298.13967
298.1187
298.09754
298.0774
298.05615
298.03711
298.015
297.99806
297.97381
297.96117
297.93078
297.92681
297.89119
297.90088
297.84922
297.8851
297.80888
297.88612
297.78651
297.91167
297.80619
297.95156
300.61081
300.57056
300.06511
299.32054
298.87151
298.79374
298.83262
298.90813
298.99814
299.08736
299.16815
299.23724
299.29408
299.33779
299.36821
299.39172
299.3983
299.40093
299.37789
299.36314
299.32996
299.30685
299.2683
299.23777
299.19843
299.16348
299.12475
299.08905
299.05037
299.01072
298.97123
298.93194
298.89256
298.85348
298.81497
298.77714
298.7401
298.7039
298.66858
298.63428
298.60087
298.56838
298.53691
298.50629
298.47658
298.44776
298.41982
298.39271
298.36642
298.34091
298.31614
298.29207
298.26863
298.24581
298.2235
298.20175
298.18031
298.15941
298.13853
298.11839
298.09773
298.07835
298.05736
298.03911
298.01692
298.00095
297.97615
297.96469
297.93295
297.93111
297.89289
297.90562
297.85066
297.89036
297.81059
297.89205
297.78728
297.91774
297.80666
297.95738
302.97172
303.01186
302.48609
301.2611
300.35618
300.12869
300.04848
299.99935
299.95891
299.89485
299.83559
299.77584
299.7194
299.66258
299.62993
299.55972
299.56444
299.46934
299.47244
299.38233
299.38335
299.29861
299.28166
299.21416
299.18736
299.1311
299.10378
299.05341
299.0135
298.9732
298.9333
298.89449
298.8566
298.81959
298.78342
298.74804
298.71345
298.67964
298.64668
298.61451
298.58311
298.5525
298.5227
298.49373
298.46557
298.43822
298.41164
298.38582
298.36074
298.33637
298.31266
298.28959
298.26708
298.24513
298.22362
298.20261
298.18181
298.16153
298.14117
298.12152
298.10122
298.08224
298.06144
298.04351
298.02135
298.00562
297.98068
297.9695
297.93778
297.93583
297.89757
297.9103
297.85569
297.89476
297.81396
297.89627
297.79033
297.92242
297.80829
297.96206
302.17152
301.82939
300.96115
299.75901
299.24423
299.1076
299.12891
299.13721
299.14192
299.13931
299.14182
299.14049
299.13981
299.13609
299.13182
299.12469
299.11662
299.10554
299.09338
299.08284
299.06284
299.0559
299.0358
299.02106
298.99706
298.97569
298.94791
298.92234
298.89482
298.86678
298.83822
298.80921
298.77991
298.75044
298.72093
298.69151
298.66229
298.63334
298.6048
298.57669
298.54902
298.52185
298.49525
298.46922
298.44378
298.41895
298.39471
298.37106
298.34799
298.32548
298.30349
298.28201
298.26096
298.24036
298.22008
298.20019
298.1804
298.16105
298.14148
298.12259
298.10287
298.08451
298.06408
298.04667
298.02464
298.00944
297.98433
297.97371
297.94135
297.94041
297.901
297.91496
297.85767
297.89968
297.81646
297.90124
297.79194
297.92762
297.80929
297.96682
302.25027
301.91937
300.98844
299.78394
299.14975
299.0162
299.05434
299.0526
299.04979
299.04155
299.04136
299.03663
299.03319
299.02689
299.02076
299.01233
299.00381
298.99299
298.98196
298.96776
298.95503
298.93703
298.92075
298.90152
298.88331
298.86309
298.84346
298.82203
298.80014
298.77764
298.7546
298.73112
298.70729
298.68319
298.65891
298.63453
298.61011
298.58571
298.56149
298.53742
298.51353
298.48991
298.4666
298.44366
298.42109
298.39893
298.37718
298.35584
298.3349
298.31438
298.29422
298.27442
298.25492
298.23574
298.21675
298.19803
298.1793
298.16089
298.14215
298.124
298.10491
298.08711
298.0671
298.05012
298.0283
298.01343
297.98833
297.97801
297.94564
297.94493
297.90551
297.91942
297.86157
297.90431
297.81945
297.90574
297.79429
297.93248
297.81052
297.97114
301.91914
301.50576
300.46574
299.2894
298.79486
298.71251
298.73838
298.74648
298.76043
298.76299
298.76998
298.77188
298.7758
298.77703
298.77865
298.77836
298.77759
298.7757
298.77287
298.76933
298.76424
298.75902
298.75208
298.74441
298.73509
298.72485
298.7131
298.70049
298.68677
298.67214
298.65665
298.64035
298.62333
298.60568
298.5875
298.56887
298.54988
298.53062
298.51123
298.49169
298.47207
298.45246
298.43293
298.4135
298.39423
298.37514
298.35625
298.33757
298.31911
298.30087
298.28282
298.26497
298.24725
298.2297
298.21219
298.19481
298.17728
298.15995
298.14216
298.12484
298.10646
298.08929
298.06977
298.05325
298.03172
298.0172
297.99219
297.98214
297.94962
297.9493
297.90869
297.92379
297.86492
297.90883
297.82234
297.91021
297.79634
297.93724
297.81166
297.97533
301.77887
301.29712