/*--------------------------------*- C++ -*----------------------------------*\
  =========                 |
  \\      /  F ield         | OpenFOAM: The Open Source CFD Toolbox
   \\    /   O peration     | Website:  https://openfoam.org
    \\  /    A nd           | Version:  6
     \\/     M anipulation  |
\*---------------------------------------------------------------------------*/
FoamFile
{
    version     2.0;
    format      ascii;
    class       volVectorField;
    location    "900";
    object      U;
}
// * * * * * * * * * * * * * * * * * * * * * * * * * * * * * * * * * * * * * //

dimensions      [0 1 -1 0 0 0 0];

internalField   nonuniform List<vector> 
16000
(
(150.22719 1.289161e-15 -17.305601)
(158.3435 -1.1507811e-15 -11.28828)
(155.2528 4.4501938e-18 -16.340082)
(156.68104 4.024953e-18 -12.263862)
(155.48733 0 -15.256605)
(155.8928 -9.194248e-16 -12.938014)
(155.30852 8.7023021e-16 -14.493493)
(155.3475 0 -13.281141)
(154.98769 -1.8978487e-19 -13.991306)
(154.87623 1.7949566e-19 -13.381665)
(154.6024 3.4001808e-19 -13.647633)
(154.42333 -6.5951626e-16 -13.330095)
(154.17944 6.2521579e-16 -13.380299)
(153.9684 4.9235959e-18 -13.188246)
(153.73132 5.6231938e-16 -13.13766)
(153.50348 -5.3365133e-16 -12.990464)
(153.26449 -1.013982e-15 -12.89128)
(153.02657 9.6207814e-16 -12.752996)
(152.78326 0 -12.626661)
(152.53879 8.6884852e-16 -12.482255)
(152.29153 -8.2599942e-16 -12.336675)
(152.04312 -7.8624594e-16 -12.180123)
(151.79355 -7.2505434e-19 -12.017854)
(151.54376 -3.4381195e-19 -11.846841)
(151.29425 6.6604815e-16 -11.668654)
(151.04585 0 -11.48246)
(150.79927 6.1426149e-16 -11.288789)
(150.55535 -5.7506461e-16 -11.087547)
(150.3149 -5.4339913e-19 -10.879061)
(150.07879 -5.177859e-19 -10.663545)
(149.8479 -5.056593e-16 -10.441378)
(149.62311 4.813393e-16 -10.212966)
(149.4053 -1.4367303e-17 -9.9788117)
(149.19536 -1.2845633e-17 -9.739477)
(148.99412 8.3605094e-16 -9.4956017)
(148.80242 -1.595621e-15 -9.2478859)
(148.62103 7.6072581e-16 -8.9970915)
(148.45069 1.1351726e-17 -8.7440315)
(148.29208 1.0834975e-17 -8.4895616)
(148.14579 0 -8.2345708)
(148.01238 -1.2334059e-18 -7.9799694)
(147.8923 1.1778831e-18 -7.7266768)
(147.78594 -5.7517542e-16 -7.4756094)
(147.6936 5.5148304e-16 -7.2276674)
(147.6155 5.2496775e-16 -6.9837218)
(147.55176 -5.0255257e-16 -6.7446026)
(147.50246 -9.3791988e-19 -6.511087)
(147.46756 0 -6.2838884)
(147.44697 4.3904486e-16 -6.0636484)
(147.44052 -4.1979898e-16 -5.8509274)
(147.44798 0 -5.6462003)
(147.46904 0 -5.4498483)
(147.50332 2.2973583e-17 -5.2621679)
(147.55037 -1.3734957e-18 -5.0833642)
(147.60977 2.1046529e-17 -4.9135391)
(147.68103 0 -4.7527058)
(147.76365 0 -4.6007959)
(147.85697 0 -4.4576653)
(147.96032 0 -4.3230855)
(148.07296 -3.6071595e-17 -4.1967818)
(148.19428 -3.2546193e-17 -4.0783807)
(148.32338 0 -3.9675581)
(148.45986 2.9935961e-17 -3.8637417)
(148.60219 0 -3.7667535)
(148.75091 -3.1016392e-17 -3.675532)
(148.90195 -4.2680203e-16 -3.5906916)
(149.05941 4.0689192e-16 -3.5095534)
(149.21096 -3.0544159e-18 -3.4357042)
(149.37387 3.758688e-16 -3.3609104)
(149.5104 -3.8147581e-16 -3.2992565)
(149.68304 0 -3.2227158)
(149.77417 -3.3521388e-16 -3.1810317)
(149.98869 6.4593793e-16 -3.0765397)
(149.96171 -3.1175099e-16 -3.097024)
(150.30947 4.6937103e-18 -2.8893515)
(149.96963 0 -3.1329598)
(150.62869 -1.4025137e-16 -2.5207024)
(149.63377 1.7198702e-17 -3.5150991)
(150.83985 1.3152771e-16 -1.6191523)
(149.15967 -3.2076562e-17 -4.7030597)
(149.86908 -1.2993296e-15 -18.978888)
(158.00045 1.1618886e-15 -12.694844)
(154.72928 -4.391548e-18 -17.981356)
(156.24171 1.0538391e-15 -13.674348)
(154.96826 -1.0042398e-15 -16.824062)
(155.41089 7.3294321e-18 -14.359775)
(154.78306 0 -15.992565)
(154.83032 0 -14.699002)
(154.44567 7.8173541e-16 -15.432984)
(154.32923 -7.627817e-16 -14.778485)
(154.03896 7.0073196e-16 -15.039761)
(153.84958 -6.7410959e-16 -14.692979)
(153.59241 0 -14.725418)
(153.36954 6.0164843e-16 -14.508552)
(153.12031 -5.7508674e-16 -14.434447)
(152.88065 0 -14.262042)
(152.63024 0 -14.136287)
(152.38119 0 -13.970775)
(152.12736 -9.2121652e-16 -13.815553)
(151.87288 8.8900703e-16 -13.641523)
(151.61636 0 -13.464863)
(151.35947 8.0413922e-16 -13.276322)
(151.10235 -7.5257841e-16 -13.080824)
(150.846 -7.2779375e-16 -12.875615)
(150.59108 3.2124215e-17 -12.66217)
(150.33849 6.3840134e-16 -12.439807)
(150.08905 6.4740891e-16 -12.209077)
(149.84368 -1.2047672e-15 -11.970003)
(149.60329 1.1386952e-15 -11.722995)
(149.36883 -5.2534442e-16 -11.468383)
(149.14122 5.1700664e-16 -11.206664)
(148.9214 -9.8527956e-16 -10.938373)
(148.71028 9.5389162e-16 -10.66415)
(148.50875 -8.814923e-16 -10.384701)
(148.31764 4.2687273e-16 -10.100815)
(148.13774 0 -9.8133399)
(147.96979 2.4292469e-17 -9.5231898)
(147.81444 -1.1574758e-17 -9.231325)
(147.67228 -7.1835993e-16 -8.9387452)
(147.5438 7.1702885e-16 -8.6464754)
(147.42941 0 -8.3555551)
(147.32943 -6.1503836e-16 -8.0670205)
(147.24409 3.6595551e-17 -7.7818948)
(147.17352 1.1213561e-15 -7.5011701)
(147.11776 -5.3543559e-16 -7.2257973)
(147.07678 -5.1151787e-16 -6.9566708)
(147.05046 5.1916649e-16 -6.6946189)
(147.0386 -4.0851811e-16 -6.4403918)
(147.04095 8.3653412e-16 -6.194655)
(147.05717 -4.2641865e-16 -5.9579797)
(147.0869 0 -5.7308407)
(147.1297 0 -5.5136102)
(147.18509 -2.3284233e-17 -5.306558)
(147.25254 -7.1276834e-16 -5.109865)
(147.33148 6.6059829e-16 -4.9236044)
(147.4214 6.1163274e-16 -4.7477415)
(147.52174 -6.5984529e-20 -4.5821581)
(147.63187 -6.724473e-16 -4.4266595)
(147.75108 0 -4.2809678)
(147.87866 3.424235e-17 -4.1447368)
(148.01392 -3.2817946e-17 -4.0175506)
(148.15614 -6.2862184e-17 -3.8989722)
(148.3047 -4.5167186e-16 -3.7884519)
(148.45864 9.5384966e-20 -3.6855507)
(148.61758 4.1519638e-16 -3.5894936)
(148.77947 0 -3.5001254)
(148.94498 -4.0742088e-16 -3.4159794)
(149.10833 3.9111536e-16 -3.3381923)
(149.2753 -4.6935601e-17 -3.2627324)
(149.42844 3.8312539e-16 -3.1958527)
(149.59459 -6.9305668e-16 -3.1232013)
(149.71683 3.7489897e-16 -3.0718031)
(149.89742 3.2039299e-16 -2.9832046)
(149.94326 -1.2266557e-19 -2.9754004)
(150.20445 -3.2014125e-16 -2.804568)
(150.00793 2.6852922e-16 -2.9797605)
(150.5002 -2.7157997e-16 -2.4704537)
(149.72969 -1.6729179e-17 -3.3207694)
(150.69716 1.6052638e-17 -1.6160201)
(149.30747 3.1262869e-17 -4.4152381)
(149.35106 1.3141586e-15 -20.682363)
(157.46956 -8.5382038e-21 -14.160927)
(154.06488 -1.1449255e-15 -19.625329)
(155.65106 1.0605121e-15 -15.154408)
(154.30633 7.9290973e-18 -18.39417)
(154.77219 9.4871795e-16 -15.842404)
(154.10804 -1.8112972e-15 -17.499963)
(154.15502 1.3002233e-17 -16.164429)
(153.7491 8.1011699e-16 -16.888364)
(153.62276 1.1977231e-17 -16.21058)
(153.31704 -7.3826288e-16 -16.447726)
(153.11461 6.8849395e-16 -16.081146)
(152.84393 0 -16.085078)
(152.60764 0 -15.845874)
(152.34572 -5.8791928e-16 -15.741833)
(152.09335 5.5779585e-16 -15.543175)
(151.83111 0 -15.386214)
(151.57056 1.5738364e-17 -15.19076)
(151.30616 -1.4933615e-17 -15.002573)
(151.04182 8.8072769e-16 -14.795419)
(150.7765 4.465227e-19 -14.583669)
(150.51184 -7.9580207e-16 -14.359254)
(150.24818 7.6959329e-16 -14.126453)
(149.98663 -7.434225e-16 -13.882991)
(149.72798 -7.2991293e-16 -13.63018)
(149.47322 6.9440408e-16 -13.36757)
(149.2233 2.0084678e-17 -13.095745)
(148.97923 3.819246e-17 -12.814892)
(148.74202 3.6373605e-17 -12.525533)
(148.51266 -5.7132823e-16 -12.228161)
(148.29215 4.9458641e-16 -11.923424)
(148.08146 5.3440522e-16 -11.612028)
(147.88149 -4.7912859e-16 -11.294787)
(147.69313 -4.5687723e-16 -10.972586)
(147.51717 8.7093653e-16 -10.646389)
(147.35435 -8.3040897e-16 -10.317224)
(147.20531 -3.713334e-16 -9.9861758)
(147.07059 7.5514037e-16 -9.6543677)
(146.95064 0 -9.3229534)
(146.84581 -6.8731334e-16 -8.9930963)
(146.75634 6.1467947e-16 -8.6659608)
(146.68236 0 -8.3426896)
(146.6239 -3.730873e-17 -8.0243953)
(146.5809 0 -7.7121394)
(146.55318 6.8063534e-17 -7.4069246)
(146.54051 0 -7.1096773)
(146.54257 -3.0998179e-17 -6.8212411)
(146.55897 4.9298745e-20 -6.5423643)
(146.58925 1.1315482e-16 -6.2736958)
(146.63294 0 -6.0157775)
(146.68949 0 -5.769043)
(146.75834 0 -5.5338147)
(146.83889 0 -5.3103047)
(146.93051 0 -5.0986207)
(147.03255 8.6189673e-17 -4.8987772)
(147.1444 4.1186325e-17 -4.7106777)
(147.26549 6.30319e-16 -4.5341216)
(147.39516 -6.0302359e-16 -4.3688404)
(147.5327 -7.2116194e-17 -4.2144867)
(147.6774 0 -4.0706375)
(147.82859 6.6012996e-17 -3.9368107)
(147.98559 5.6870543e-16 -3.8124822)
(148.14775 -5.4456418e-16 -3.6970649)
(148.31432 0 -3.5899761)
(148.48468 -5.5508071e-17 -3.4905157)
(148.65755 -1.0632908e-16 -3.398159)
(148.83236 4.0746303e-16 -3.3119434)
(149.00606 -3.9066077e-16 -3.2318023)
(149.17954 4.6809898e-17 -3.155769)
(149.34462 -3.5915416e-16 -3.0858795)
(149.51118 9.8879439e-20 -3.0156407)
(149.65246 2.8951179e-16 -2.9569833)
(149.81734 0 -2.8806238)
(149.90218 0 -2.8515438)
(150.11606 1.8320004e-17 -2.7152842)
(150.01398 1.7644738e-17 -2.8233133)
(150.38864 2.965429e-17 -2.4111689)
(149.78537 -1.1451503e-16 -3.1063601)
(150.58308 1.1408856e-16 -1.5995844)
(149.34026 -6.0399463e-17 -4.1874477)
(148.67859 3.1775795e-17 -22.425858)
(156.76049 9.4691894e-18 -15.655252)
(153.24843 1.1828995e-15 -21.303481)
(154.90803 4.6904517e-19 -16.664077)
(153.48991 -1.0337817e-15 -19.991598)
(153.97824 -9.7427156e-16 -17.352456)
(153.27639 9.2272156e-16 -19.029187)
(153.32152 -1.3621537e-17 -17.653282)
(152.89336 8.3936702e-16 -18.361172)
(152.75562 -7.576157e-16 -17.66067)
(152.43364 -7.4162891e-16 -17.868767)
(152.21703 1.3834832e-15 -17.481298)
(151.93215 -6.6630507e-16 -17.452796)
(151.68174 1.9774297e-17 -17.188921)
(151.40672 0 -17.051466)
(151.14138 0 -16.823491)
(150.8673 -5.4104104e-16 -16.631891)
(150.5955 4.9761423e-16 -16.403036)
(150.32103 0 -16.178319)
(150.04765 9.5719686e-16 -15.934366)
(149.77463 -9.0953803e-16 -15.68382)
(149.50365 4.4834136e-20 -15.419753)
(149.23526 0 -15.145877)
(148.97065 -4.7481873e-17 -14.860384)
(148.71078 -7.2235208e-16 -14.564486)
(148.45674 6.4410236e-16 -14.257976)
(148.20959 -6.9520352e-16 -13.941518)
(147.97045 5.837598e-16 -13.615492)
(147.74039 -3.70355e-17 -13.280577)
(147.52046 -3.5331318e-17 -12.937458)
(147.31168 -5.0445598e-16 -12.586973)
(147.11503 4.8034951e-16 -12.230031)
(146.9314 0 -11.867647)
(146.7616 0 -11.500909)
(146.60638 0 -11.130983)
(146.46633 -5.2876026e-17 -10.759087)
(146.34199 -5.0329561e-17 -10.386486)
(146.23373 8.1644086e-16 -10.01447)
(146.14183 -9.1479702e-17 -9.6443409)
(146.06642 -6.5481876e-16 -9.2773928)
(146.00755 4.1621792e-17 -8.9148968)
(145.96511 6.356691e-16 -8.5580818)
(145.93891 -5.3051077e-16 -8.2081229)
(145.92864 -5.7859582e-16 -7.866121)
(145.93392 -6.9008381e-17 -7.5330964)
(145.95427 9.8788388e-16 -7.2099721)
(145.98916 -3.7710676e-16 -6.8975691)
(146.03799 -5.9980879e-17 -6.5965968)
(146.10013 4.0102235e-16 -6.3076501)
(146.17492 -5.4702943e-16 -6.0312052)
(146.26167 -4.1782484e-16 -5.7676205)
(146.35968 3.9906182e-16 -5.5171364)
(146.46825 0 -5.2798788)
(146.58667 7.2807999e-16 -5.0558624)
(146.71421 -7.8259878e-16 -4.8450077)
(146.8502 0 -4.647136)
(146.99402 6.3518314e-16 -4.4619622)
(147.14504 -9.8664583e-16 -4.2891225)
(147.30254 5.0789272e-16 -4.1281912)
(147.46584 5.5487993e-16 -3.9786657)
(147.63428 -1.3279863e-16 -3.8399871)
(147.80722 -5.0753556e-16 -3.7115546)
(147.98405 -4.853417e-16 -3.5927186)
(148.16413 5.805165e-16 -3.4828071)
(148.34683 -4.442667e-16 -3.3810955)
(148.53118 1.0639555e-16 -3.2868985)
(148.71628 4.0701906e-16 -3.1993802)
(148.90012 -3.8955428e-16 -3.1180078)
(149.08186 5.5968244e-16 -3.0415573)
(149.25695 0 -2.9703201)
(149.42811 0 -2.9011828)
(149.58254 0 -2.8388624)
(149.74256 0 -2.7690294)
(149.85409 1.5084694e-16 -2.7264027)
(150.0355 -2.8929226e-16 -2.6165273)
(150.00459 3.4740156e-16 -2.6714883)
(150.29608 -3.6653508e-16 -2.3405293)
(149.81825 4.9735448e-16 -2.8969487)
(150.48601 -3.7329256e-16 -1.5685444)
(149.36665 -9.867524e-20 -3.9196836)
(147.85465 1.3761953e-15 -24.202108)
(155.85612 5.2512573e-19 -17.179051)
(152.27385 -1.2209033e-15 -23.005377)
(154.00305 0 -18.209144)
(152.51257 -1.645451e-17 -21.606426)
(153.01789 -3.1029914e-17 -18.894094)
(152.27964 0 -20.572049)
(152.31842 -8.6117188e-16 -19.166337)
(151.86846 8.4181357e-16 -19.844688)
(151.71619 -8.2249383e-16 -19.126326)
(151.37765 7.5559504e-16 -19.296441)
(151.14488 -3.8836044e-20 -18.888423)
(150.84522 0 -18.821376)
(150.57958 6.2477118e-16 -18.530496)
(150.29102 -6.1172256e-16 -18.354756)
(150.0123 0 -18.093793)
(149.72638 5.5177447e-16 -17.863012)
(149.44359 -5.566069e-16 -17.596466)
(149.15968 4.9797347e-16 -17.330654)
(148.87824 4.4391091e-16 -17.045336)
(148.5989 -8.7113203e-16 -16.751361)
(148.32339 -2.6700852e-17 -16.442993)
(148.05247 5.0884998e-17 -16.123421)
(147.78746 -9.7083875e-20 -15.79133)
(147.52946 0 -15.447881)
(147.27968 -8.7841064e-20 -15.093148)
(147.0393 0 -14.727925)
(146.8095 3.9683754e-17 -14.352827)
(146.59141 0 -13.968733)
(146.38612 3.5896818e-17 -13.576565)
(146.19464 0 -13.177389)
(146.01791 0 -12.772353)
(145.85676 6.2131458e-17 -12.362705)
(145.7119 0 -11.949762)
(145.58392 -4.5072681e-16 -11.534904)
(145.4733 4.8298855e-16 -11.119552)
(145.38033 0 -10.705154)
(145.3052 -4.8714968e-17 -10.29316)
(145.24795 -6.5069129e-16 -9.8850074)
(145.20847 6.2018882e-16 -9.4820999)
(145.18652 -6.7578127e-16 -9.0857884)
(145.18174 7.2490144e-16 -8.6973552)
(145.19368 -7.6806949e-16 -8.3179994)
(145.22176 5.8599456e-16 -7.9488213)
(145.26534 -1.3981921e-16 -7.5908139)
(145.32371 6.6613617e-17 -7.244853)
(145.39611 -1.2710517e-16 -6.9116913)
(145.48173 1.2139249e-16 -6.5919549)
(145.57975 -4.6308496e-16 -6.2861418)
(145.68935 9.9433886e-16 -5.994622)
(145.80969 -5.7295864e-20 -5.717641)
(145.93997 -5.0331956e-16 -5.4553225)
(146.07938 1.9222329e-16 -5.207675)
(146.22713 0 -4.9745973)
(146.38248 0 -4.7558885)
(146.54467 0 -4.5512663)
(146.71307 -6.3884442e-16 -4.3603483)
(146.88707 4.5780196e-16 -4.1826678)
(147.06599 1.4571172e-16 -4.017705)
(147.24915 -1.3925935e-16 -3.8648761)
(147.43594 1.3300924e-16 -3.7235409)
(147.62578 -7.6268539e-16 -3.5930246)
(147.81809 9.7185504e-16 -3.4726118)
(148.01233 -1.0449567e-15 -3.3615593)
(148.2079 9.9884934e-16 -3.2590938)
(148.40404 -2.1234245e-16 -3.1644389)
(148.59981 -6.0874726e-16 -3.076764)
(148.79365 0 -2.9953312)
(148.98413 -1.8554178e-16 -2.9191634)
(149.16825 1.7751575e-16 -2.8478168)
(149.3456 0 -2.7796342)
(149.50982 0 -2.7158258)
(149.66966 -1.5557672e-16 -2.65012)
(149.79831 -2.979246e-16 -2.5980159)
(149.96066 -2.8523838e-16 -2.5085981)
(149.98086 6.837733e-17 -2.5211402)
(150.21176 -6.5543288e-17 -2.2566568)
(149.83108 2.5166618e-16 -2.6891116)
(150.39674 -6.015767e-17 -1.5285043)
(149.35821 2.2731285e-16 -3.6698347)
(146.86794 1.3745702e-15 -26.008838)
(154.77056 -1.2546831e-15 -18.734363)
(151.12703 1.8795025e-17 -24.731811)
(152.92194 0 -19.788689)
(151.36077 1.6714198e-17 -23.236556)
(151.87792 1.0416944e-15 -20.46405)
(151.10488 -9.2669955e-16 -22.124482)
(151.13327 -5.6574332e-17 -20.697819)
(150.66209 0 -21.333007)
(150.49267 -8.1239351e-16 -20.599749)
(150.13742 7.1786642e-17 -20.72291)
(149.88702 2.2373864e-17 -20.293017)
(149.57224 6.4875524e-16 -20.181074)
(149.29075 0 -19.859533)
(148.98858 6.2348419e-16 -19.640147)
(148.69659 -1.14638e-15 -19.341479)
(148.39933 1.1237123e-15 -19.066339)
(148.1064 -5.0017227e-16 -18.756943)
(147.81433 0 -18.444794)
(147.52653 3.0078334e-17 -18.1128)
(147.24303 -9.1598503e-16 -17.770112)
(146.96563 1.7410089e-15 -17.41217)
(146.69533 -1.7070157e-15 -17.041731)
(146.43357 8.8526916e-16 -16.657987)
(146.18159 -7.4880408e-16 -16.262124)
(145.94073 7.1185383e-16 -15.854536)
(145.71226 0 -15.436208)
(145.49739 -6.044205e-16 -15.008038)
(145.2973 6.1342855e-16 -14.571158)
(145.11305 7.3084982e-17 -14.126771)
(144.9456 6.957038e-17 -13.676212)
(144.79579 -5.9558736e-16 -13.220901)
(144.66433 9.4496442e-16 -12.762345)
(144.55176 1.3067626e-19 -12.302105)
(144.45846 -9.1410448e-16 -11.841786)
(144.38467 5.4424049e-16 -11.383007)
(144.33045 0 -10.927387)
(144.29568 3.9512316e-16 -10.476517)
(144.28011 -4.7062926e-16 -10.031941)
(144.28332 0 -9.5951325)
(144.30478 -6.8375833e-16 -9.1674829)
(144.34382 8.1634721e-17 -8.7502795)
(144.39968 5.4339378e-16 -8.3446949)
(144.47151 0 -7.9517763)
(144.5584 1.4106763e-16 -7.5724371)
(144.65938 6.7297735e-16 -7.2074527)
(144.77348 -5.1338443e-16 -6.8574581)
(144.89969 1.2109276e-19 -6.5229476)
(145.03703 -4.6689184e-16 -6.2042787)
(145.18451 8.9075054e-16 -5.9016749)
(145.34118 -8.304182e-20 -5.6152326)
(145.50614 -1.013294e-16 -5.3449277)
(145.67852 -1.9327795e-16 -5.090624)
(145.85749 1.8453209e-16 -4.8520816)
(146.04226 1.760752e-16 -4.6289655)
(146.23208 6.7182078e-16 -4.4208659)
(146.4263 -6.4135868e-16 -4.2272921)
(146.62435 0 -4.047677)
(146.82559 0 -3.8813958)
(147.0294 1.3943069e-16 -3.7277825)
(147.2352 5.3249701e-16 -3.5861172)
(147.44248 -2.5435967e-16 -3.4556532)
(147.65073 -4.8547137e-16 -3.3356124)
(147.85948 -2.3172108e-16 -3.225191)
(148.06822 2.2143532e-16 -3.1235644)
(148.2763 4.2289134e-16 -3.0298947)
(148.48289 8.0778612e-16 -2.9433218)
(148.68668 -3.8590009e-16 -2.863007)
(148.88608 3.6854734e-16 -2.7880295)
(149.07873 -7.0441257e-16 -2.7176455)
(149.26301 -3.3647711e-16 -2.6507023)
(149.43532 3.2168062e-16 -2.5869144)
(149.59791 1.5370331e-16 -2.5237917)
(149.73877 1.4695446e-16 -2.4660751)
(149.88848 -2.8103985e-16 -2.3907767)
(149.94457 1.3443602e-16 -2.3715874)
(150.13235 1.2861368e-16 -2.1636021)
(149.83374 -4.9284351e-16 -2.4844322)
(150.31533 2.9448562e-16 -1.4780659)
(149.33581 0 -3.4109406)
(145.70108 2.214748e-17 -27.847039)
(153.57365 -1.2368014e-15 -20.320859)
(149.79732 3.7707327e-17 -26.471218)
(151.65275 1.1465717e-15 -21.393841)
(150.02373 -1.0891474e-15 -24.86966)
(150.54647 1.0594812e-15 -22.05282)
(149.74086 -6.0843316e-17 -23.675311)
(149.75423 2.8756031e-17 -22.237268)
(149.26256 0 -22.815226)
(149.07317 8.2680039e-16 -22.069601)
(148.70102 -8.8116294e-16 -22.136744)
(148.43152 0 -21.682799)
(148.10128 7.4864445e-16 -21.519349)
(147.80344 -6.6809535e-16 -21.162583)
(147.48776 6.3437644e-16 -20.893666)
(147.18288 -6.3935876e-16 -20.551685)
(146.87516 5.0015622e-16 -20.226291)
(146.57344 -1.0854842e-15 -19.868022)
(146.27506 5.1536882e-16 -19.503498)
(145.98333 -4.8991368e-16 -19.118704)
(145.69865 5.235096e-16 -18.721265)
(145.42295 -5.536563e-17 -18.307763)
(145.15745 -5.2627695e-17 -17.880652)
(144.90371 -4.990443e-17 -17.439654)
(144.66314 0 -16.986077)
(144.43715 4.5126041e-17 -16.520683)
(144.22705 6.8767461e-16 -16.044724)
(144.03409 -7.3551252e-16 -15.559435)
(143.85939 5.4442996e-16 -15.06626)
(143.70394 -1.4780065e-16 -14.566728)
(143.56858 -6.3358517e-16 -14.062481)
(143.45397 -1.5281624e-19 -13.55524)
(143.3606 -5.1035294e-16 -13.046784)
(143.28876 4.8570218e-16 -12.538924)
(143.23855 1.1573898e-16 -12.033481)
(143.20988 -1.0997321e-16 -11.532253)
(143.20246 0 -11.037)
(143.21585 -3.9929671e-16 -10.549412)
(143.24943 4.7527922e-16 -10.071091)
(143.30242 -7.2446904e-16 -9.6035278)
(143.37394 8.6284478e-16 -9.1480928)
(143.46299 -1.6426159e-16 -8.7060154)
(143.56848 7.8297543e-16 -8.278379)
(143.68928 -1.343318e-15 -7.8661137)
(143.82421 -1.4223276e-16 -7.4699922)
(143.97207 4.0679287e-16 -7.0906318)
(144.13166 0 -6.7284957)
(144.30182 1.2335085e-16 -6.383898)
(144.4814 0 -6.0570117)
(144.66931 -2.2397638e-16 -5.7478756)
(144.86452 0 -5.456405)
(145.06604 -4.070638e-16 -5.1824006)
(145.27298 1.9414618e-16 -4.9255597)
(145.48449 -3.7015553e-16 -4.6854859)
(145.69979 -1.7645106e-16 -4.4617001)
(145.91817 0 -4.2536527)
(146.13896 0 -4.0607402)
(146.36164 0 -3.8822903)
(146.58567 -5.8432426e-16 -3.7175787)
(146.81048 2.7898709e-16 -3.5658545)
(147.03556 1.6565084e-19 -3.4263252)
(147.26047 5.0755565e-16 -3.2981771)
(147.48477 0 -3.1805762)
(147.70806 6.9286549e-16 -3.0726673)
(147.92994 -6.6123415e-16 -2.9735812)
(148.14988 -2.1015098e-16 -2.8824347)
(148.36715 -2.0053407e-16 -2.7983329)
(148.58062 7.6602248e-16 -2.7203795)
(148.78878 -3.6557346e-16 -2.6476484)
(148.98951 -5.2315928e-16 -2.5792738)
(149.18078 2.1874407e-19 -2.5142214)
(149.36 2.1198625e-19 -2.4517)
(149.52646 1.5169752e-15 -2.3905853)
(149.67581 -5.794234e-16 -2.3302815)
(149.81905 5.53129e-16 -2.2641514)
(149.90128 0 -2.2219557)
(150.05472 5.0453599e-16 -2.0615276)
(149.82641 -4.8278013e-16 -2.283511)
(150.2349 0 -1.4181128)
(149.29947 2.1400692e-16 -3.160689)
(144.34468 1.4148594e-15 -29.714705)
(152.19171 -2.5960588e-15 -21.92994)
(148.27959 -3.9444861e-17 -28.214973)
(150.18804 -7.0384549e-19 -23.019913)
(148.49377 1.1065591e-15 -26.498574)
(149.01434 -1.045378e-15 -23.653706)
(148.17793 2.0104308e-15 -25.216883)
(148.17077 -9.3635332e-16 -23.776057)
(147.6588 0 -24.282442)
(147.44616 0 -23.525332)
(147.05655 9.9575604e-17 -23.52711)
(146.76631 -7.5534865e-16 -23.045262)
(146.4202 7.6063767e-16 -22.823079)
(146.10565 0 -22.425034)
(145.77679 0 -22.09978)
(145.45986 6.1174675e-16 -21.707579)
(145.14312 -5.0784146e-16 -21.324976)
(144.83471 0 -20.910661)
(144.53279 5.2351492e-16 -20.486701)
(144.2406 -4.9691978e-16 -20.041994)
(143.95895 -5.894517e-17 -19.582888)
(143.68987 5.6003238e-17 -19.10707)
(143.43482 5.3216431e-17 -18.616849)
(143.19546 0 -18.112515)
(142.97331 0 -17.595601)
(142.76981 0 -17.067305)
(142.58628 0 -16.529225)
(142.42389 0 -15.982991)
(142.28365 7.081301e-16 -15.430417)
(142.16637 -5.2382378e-16 -14.873392)
(142.07266 0 -14.313899)
(142.00291 6.0940994e-16 -13.753968)
(141.95728 8.9331139e-20 -13.195649)
(141.9357 6.4142056e-20 -12.640985)
(141.93788 -9.3312008e-16 -12.091979)
(141.96333 4.4415039e-16 -11.550566)
(142.01135 5.2857117e-16 -11.01859)
(142.08106 -4.0245288e-16 -10.497774)
(142.17143 -3.8313042e-16 -9.9897079)
(142.28129 -3.6474753e-16 -9.4958243)
(142.40938 -1.7345802e-16 -9.0173927)
(142.55434 6.6168558e-16 -8.5555089)
(142.71478 -1.5765198e-16 -8.1110906)
(142.88927 -4.5019705e-16 -7.6848792)
(143.07638 1.4298846e-16 -7.2774413)
(143.2747 6.810223e-16 -6.889175)
(143.48288 -2.5961965e-16 -6.5203183)
(143.69959 2.4728712e-16 -6.1709592)
(143.92358 -2.3554831e-16 -5.8410468)
(144.15371 2.2440207e-16 -5.5304037)
(144.38887 0 -5.2387377)
(144.62809 -1.4798872e-19 -4.965655)
(144.87045 -1.9426936e-16 -4.7106719)
(145.11513 1.8516786e-16 -4.4732265)
(145.36139 -3.5319287e-16 -4.2526897)
(145.60858 0 -4.0483741)
(145.85609 -3.2089172e-16 -3.8595586)
(146.10344 3.0567875e-16 -3.6854671)
(146.3502 -1.1663325e-15 -3.5252907)
(146.59588 5.5617122e-16 -3.3781935)
(146.84006 5.2997303e-16 -3.2433209)
(147.08237 -2.5273188e-16 -3.1198004)
(147.32245 4.8172727e-16 -3.0067521)
(147.56001 -9.1871044e-16 -2.9032801)
(147.79471 -4.3784379e-16 -2.8084806)
(148.02615 8.3517504e-16 -2.7214383)
(148.25373 1.0008832e-19 -2.6412299)
(148.47649 3.7957553e-16 -2.566924)
(148.693 3.6184777e-16 -2.4975778)
(148.90134 0 -2.432263)
(149.09936 9.8643146e-16 -2.3699422)
(149.28471 -1.8816062e-15 -2.3097356)
(149.45561 1.0553895e-19 -2.2506941)
(149.61084 8.5525285e-16 -2.1904743)
(149.75071 -1.3593789e-15 -2.1301639)
(149.85177 2.2385096e-19 -2.0720167)
(149.97889 2.473846e-16 -1.9499752)
(149.81213 -4.7202764e-16 -2.0862603)
(150.15643 1.1258593e-15 -1.352966)
(149.26384 -2.0783526e-16 -2.9117958)
(142.79 0 -31.609184)
(150.61005 -1.3207423e-15 -23.560021)
(146.56108 1.2632159e-15 -29.962423)
(148.51406 3.7131525e-17 -24.665077)
(146.75723 1.1603457e-15 -28.119376)
(147.26676 -3.244343e-17 -25.261824)
(146.40126 -1.0055452e-15 -26.74296)
(146.36758 8.927065e-16 -25.305912)
(145.83528 -9.0116131e-16 -25.725767)
(145.5961 -9.076441e-16 -24.955612)
(145.18839 -3.9206756e-19 -24.882012)
(144.87606 7.6657935e-16 -24.366196)
(144.5139 1.3883322e-19 -24.077013)
(144.18283 -6.8964521e-16 -23.629789)
(143.84176 6.5368721e-16 -23.240095)
(143.51444 7.768044e-17 -22.789191)
(143.19115 6.6258432e-16 -22.341104)
(142.87935 -5.5852951e-16 -21.862227)
(142.57802 -5.3052316e-16 -21.370582)
(142.2904 4.4032594e-16 -20.857777)
(142.01766 -4.7826915e-16 -20.329174)
(141.76197 4.5395554e-16 -19.783545)
(141.52494 -4.3141241e-16 -19.223231)
(141.30834 3.0701702e-16 -18.649141)
(141.11368 0 -18.063162)
(140.94239 7.3991302e-16 -17.466988)
(140.79567 -7.0288221e-16 -16.86265)
(140.67453 -6.6826924e-16 -16.252226)
(140.57971 -1.7324924e-19 -15.637942)
(140.51174 6.0371077e-16 -15.022076)
(140.47086 5.7410422e-16 -14.406952)
(140.45705 -5.458189e-16 -13.794896)
(140.47001 1.2994448e-16 -13.188197)
(140.50921 -4.9372577e-16 -12.589079)
(140.57387 8.2197771e-16 -11.999665)
(140.66298 -4.4677765e-16 -11.421948)
(140.77536 -7.439636e-16 -10.85777)
(140.90965 4.0449062e-16 -10.308794)
(141.06437 0 -9.7765027)
(141.23793 -1.8332632e-16 -9.2621719)
(141.42867 -6.9729086e-16 -8.766878)
(141.6349 6.6394272e-16 -8.2914918)
(141.85493 7.8980932e-16 -7.8366839)
(142.08708 -7.5237913e-16 -7.4029311)
(142.32971 -2.8622191e-16 -6.9905268)
(142.58125 6.8237973e-16 -6.599593)
(142.84021 2.5968107e-16 -6.230095)
(143.1052 2.4757645e-16 -5.8818552)
(143.37492 2.3571619e-16 -5.5545685)
(143.64818 -1.7321051e-19 -5.2478179)
(143.92391 -6.417407e-16 -4.9610887)
(144.20114 6.1101928e-16 -4.6937825)
(144.47901 3.8792212e-16 -4.4452303)
(144.75677 -7.3970084e-16 -4.214704)
(145.03375 3.5217986e-16 -4.0014274)
(145.30938 -6.7108872e-16 -3.8045847)
(145.58315 1.5985982e-15 -3.6233386)
(145.85466 -3.0481464e-16 -3.4568229)
(146.12357 -2.9030332e-16 -3.3041546)
(146.38953 -2.7650453e-16 -3.1644243)
(146.65218 0 -3.0367258)
(146.91126 -7.5317444e-16 -2.9201415)
(147.16652 -4.7814302e-16 -2.8137565)
(147.41771 1.3673284e-15 -2.7166475)
(147.66461 4.3409577e-16 -2.6278879)
(147.90694 -4.1357601e-16 -2.5465437)
(148.14421 -1.5759147e-15 -2.4716736)
(148.37562 -3.7509281e-16 -2.4023272)
(148.5999 3.5766003e-16 -2.3375504)
(148.81523 0 -2.2763742)
(149.01951 9.7289548e-16 -2.2177569)
(149.21031 -6.1796171e-16 -2.160832)
(149.38566 8.8274952e-16 -2.1043509)
(149.54498 -8.4066155e-16 -2.0461319)
(149.68383 1.8612188e-19 -1.9895561)
(149.79767 5.0863883e-16 -1.9221955)
(149.90451 2.4215909e-16 -1.8300574)
(149.79241 0 -1.8941376)
(150.07821 -2.1968798e-16 -1.2843262)
(149.2252 0 -2.6681607)
(141.02142 -1.4796544e-15 -33.528934)
(148.81161 -4.1953836e-17 -25.208893)
(144.62439 -4.0177122e-17 -31.708334)
(146.61208 -3.7662781e-17 -26.325158)
(144.796 -3.5662618e-17 -29.724961)
(145.28478 -1.0804495e-15 -26.86933)
(144.39206 1.0854284e-15 -28.244502)
(144.32575 6.0356542e-17 -26.81535)
(143.77307 9.7296456e-16 -27.133257)
(143.50436 -7.581461e-16 -26.345675)
(143.07814 -1.0264155e-16 -26.185918)
(142.74296 8.2692695e-16 -25.627601)
(142.36523 -7.8296049e-16 -25.261875)
(142.01873 0 -24.755522)
(141.66751 0 -24.291753)
(141.33284 -7.0695956e-16 -23.771934)
(141.00699 4.4674215e-16 -23.248595)
(140.69688 0 -22.695213)
(140.40226 -6.0374617e-16 -22.126408)
(140.12639 1.0177957e-15 -21.53627)
(139.87078 2.7227068e-19 -20.92953)
(139.63767 -8.022519e-16 -20.306034)
(139.42879 4.3521317e-16 -19.668356)
(139.24588 -7.2364801e-16 -19.018091)
(139.09038 8.8308816e-16 -18.357607)
(138.96354 -9.3344849e-17 -17.689165)
(138.8663 0 -17.015295)
(138.79933 0 -16.338564)
(138.763 4.7905705e-16 -15.661627)
(138.75732 7.981616e-20 -14.987141)
(138.78203 1.4450012e-16 -14.317741)
(138.83655 -1.096732e-15 -13.655991)
(138.92 5.2158118e-16 -13.004347)
(139.03124 -4.9549996e-16 -12.365121)
(139.16889 5.8907921e-16 -11.74045)
(139.33139 -4.4795555e-16 -11.13227)
(139.51698 6.3890055e-16 -10.542299)
(139.72381 0 -9.972025)
(139.94993 0 -9.4226972)
(140.19332 3.667231e-16 -8.8953255)
(140.45198 -1.7460126e-16 -8.3906876)
(140.72391 -8.3005819e-16 -7.9093345)
(141.00716 -1.5784842e-16 -7.4516043)
(141.29988 1.0527623e-15 -7.0176387)
(141.60027 2.8629663e-16 -6.6073981)
(141.90668 -1.0900223e-15 -6.220681)
(142.21756 0 -5.8571423)
(142.53149 -7.406297e-16 -5.5163128)
(142.8472 4.7035253e-16 -5.1976155)
(143.16353 2.2395334e-16 -4.9003842)
(143.47949 4.2607623e-16 -4.6238783)
(143.79418 -8.1189881e-16 -4.3672973)
(144.10683 7.7291265e-16 -4.1297933)
(144.4168 -1.1045252e-15 -3.9104818)
(144.72354 3.5058694e-16 -3.7084519)
(145.02658 3.3383021e-16 -3.5227734)
(145.32554 0 -3.352509)
(145.62012 0 -3.1967175)
(145.91011 5.7637997e-16 -3.0544524)
(146.19525 5.4876178e-16 -2.9247528)
(146.47533 -5.22925e-16 -2.806673)
(146.75017 4.9739483e-16 -2.699266)
(147.01961 -4.738227e-16 -2.6015961)
(147.2835 4.509221e-16 -2.5127264)
(147.54171 -1.2885803e-15 -2.4317212)
(147.79404 -8.1756036e-16 -2.357641)
(148.04015 1.1676567e-15 -2.2895394)
(148.2794 3.7040038e-16 -2.226462)
(148.51064 0 -2.1674505)
(148.73224 6.7093463e-16 -2.1115123)
(148.94211 -6.3870134e-16 -2.0576329)
(149.13774 0 -2.0049272)
(149.31725 -5.7831712e-16 -1.9518447)
(149.47938 -5.502792e-16 -1.8971438)
(149.61867 0 -1.8432191)
(149.74037 0 -1.7724844)
(149.83242 0 -1.7029241)
(149.7688 -4.5129688e-16 -1.7083288)
(150.00441 0 -1.2130165)
(149.19543 -7.7524923e-16 -2.4269606)
(139.01944 -4.7039676e-17 -35.471709)
(146.77591 0 -26.872977)
(142.44945 -1.2650051e-15 -33.445974)
(144.46061 1.2653894e-15 -27.993972)
(142.58911 0 -31.306212)
(143.04655 -1.0981063e-15 -28.465562)
(142.12844 9.7257569e-16 -29.709835)
(142.02341 0 -28.289477)
(141.45023 8.7125166e-16 -28.489508)
(141.14951 -9.3379783e-16 -27.676768)
(140.70477 5.1934261e-17 -27.418995)
(140.3469 7.3942123e-16 -26.806837)
(139.95508 -9.2953182e-17 -26.353349)
(139.5957 -6.1850871e-16 -25.775605)
(139.23802 5.8657973e-16 -25.226289)
(138.901 8.0030764e-17 -24.62543)
(138.57886 -5.2684198e-16 -24.015429)
(138.27801 0 -23.376144)
(137.99896 6.7545531e-17 -22.719516)
(137.74496 1.9266609e-16 -22.041935)
(137.51777 -1.2197912e-16 -21.347862)
(137.31962 -2.309742e-16 -20.638249)
(137.15222 0 -19.91611)
(137.01711 1.0414906e-16 -19.183809)
(136.91549 -9.8478611e-17 -18.444297)
(136.84823 9.3470089e-17 -17.700462)
(136.81582 0 -16.955373)
(136.81838 -1.6902884e-16 -16.212084)
(136.85566 -4.8092565e-16 -15.473648)
(136.92702 4.5621301e-16 -14.743041)
(137.03147 -1.4430928e-16 -14.023123)
(137.16773 0 -13.316583)
(137.33418 3.9137356e-16 -12.625915)
(137.529 -6.1981183e-16 -11.953373)
(137.75013 1.1817806e-16 -11.300958)
(137.99538 -2.2411409e-16 -10.670396)