/*--------------------------------*- C++ -*----------------------------------*\
  =========                 |
  \\      /  F ield         | OpenFOAM: The Open Source CFD Toolbox
   \\    /   O peration     | Website:  https://openfoam.org
    \\  /    A nd           | Version:  6
     \\/     M anipulation  |
\*---------------------------------------------------------------------------*/
FoamFile
{
    version     2.0;
    format      ascii;
    class       volVectorField;
    location    "2000";
    object      U;
}
// * * * * * * * * * * * * * * * * * * * * * * * * * * * * * * * * * * * * * //

dimensions      [0 1 -1 0 0 0 0];

internalField   nonuniform List<vector> 
22000
(
(1.83301e-07 -1.7403e-07 0)
(6.85716e-07 7.61098e-08 0)
(8.13445e-07 1.00594e-07 0)
(1.0655e-06 8.31466e-08 0)
(1.39466e-06 8.78881e-08 0)
(1.84018e-06 9.96994e-08 0)
(2.46573e-06 7.59307e-08 0)
(3.23666e-06 4.76109e-08 0)
(4.13172e-06 4.32678e-08 0)
(5.16581e-06 3.90041e-08 0)
(6.31113e-06 1.94058e-08 0)
(7.53298e-06 1.52072e-08 0)
(8.82347e-06 3.17261e-08 0)
(1.01493e-05 3.27234e-08 0)
(1.14396e-05 1.65284e-08 0)
(1.26745e-05 1.70777e-08 0)
(1.39201e-05 2.02257e-08 0)
(1.51645e-05 1.9176e-08 0)
(1.63889e-05 3.01528e-08 0)
(1.75913e-05 1.78246e-08 0)
(1.87817e-05 3.17575e-09 0)
(1.99308e-05 8.02056e-09 0)
(2.10693e-05 1.09865e-08 0)
(2.21887e-05 4.41095e-09 0)
(2.32315e-05 3.98042e-09 0)
(2.42038e-05 2.38444e-08 0)
(2.51162e-05 2.54529e-08 0)
(2.59376e-05 8.73483e-09 0)
(2.6709e-05 1.53056e-08 0)
(2.74815e-05 1.45097e-08 0)
(2.82208e-05 1.85191e-08 0)
(2.89498e-05 1.03421e-08 0)
(2.96819e-05 4.07901e-09 0)
(3.03877e-05 8.57691e-10 0)
(3.10342e-05 -2.03587e-10 0)
(3.16333e-05 -3.72302e-09 0)
(3.22514e-05 9.44525e-09 0)
(3.28818e-05 -5.05276e-09 0)
(3.34517e-05 1.35713e-08 0)
(3.39686e-05 1.76031e-08 0)
(3.43861e-05 4.27756e-09 0)
(3.47425e-05 1.48228e-08 0)
(3.50858e-05 2.13025e-08 0)
(3.53798e-05 2.46918e-08 0)
(3.5644e-05 1.87359e-08 0)
(3.58581e-05 1.6515e-08 0)
(3.59983e-05 1.99419e-08 0)
(3.60833e-05 2.57074e-08 0)
(3.61287e-05 3.37425e-08 0)
(3.61218e-05 4.08447e-08 0)
(3.60643e-05 5.28571e-08 0)
(3.59513e-05 5.50046e-08 0)
(3.57625e-05 3.46072e-08 0)
(3.55357e-05 3.07748e-08 0)
(3.5323e-05 5.77697e-08 0)
(3.50636e-05 7.35469e-08 0)
(3.4707e-05 6.53233e-08 0)
(3.43092e-05 4.77513e-08 0)
(3.3892e-05 3.38661e-08 0)
(3.34561e-05 3.58708e-08 0)
(3.30351e-05 4.04234e-08 0)
(3.26029e-05 2.31319e-08 0)
(3.21221e-05 7.81625e-09 0)
(3.16042e-05 1.48732e-08 0)
(3.10668e-05 2.23376e-08 0)
(3.04864e-05 2.16662e-08 0)
(2.98089e-05 2.25548e-08 0)
(2.90582e-05 2.45828e-08 0)
(2.83136e-05 2.3611e-08 0)
(2.75306e-05 5.71172e-09 0)
(2.66892e-05 -1.24406e-08 0)
(2.58952e-05 -1.38204e-08 0)
(2.5117e-05 -9.106e-09 0)
(2.4242e-05 -3.76971e-09 0)
(2.33045e-05 -3.40518e-09 0)
(2.23531e-05 -1.73917e-08 0)
(2.13519e-05 -2.60282e-08 0)
(2.03068e-05 -2.38056e-08 0)
(1.92411e-05 -2.09799e-08 0)
(1.81516e-05 -2.20586e-08 0)
(1.70301e-05 -3.06119e-08 0)
(1.58896e-05 -2.5579e-08 0)
(1.4682e-05 -2.82487e-08 0)
(1.34396e-05 -5.59966e-09 0)
(1.21997e-05 -1.5493e-08 0)
(1.09651e-05 -2.37022e-08 0)
(9.74503e-06 -2.82691e-08 0)
(8.54965e-06 -1.54626e-08 0)
(7.40683e-06 -1.88645e-08 0)
(6.2851e-06 -1.60192e-08 0)
(5.18516e-06 -1.99803e-08 0)
(4.16644e-06 -2.18431e-08 0)
(3.28278e-06 -2.64532e-08 0)
(2.5178e-06 -3.17137e-08 0)
(1.86455e-06 -4.95297e-08 0)
(1.31609e-06 -6.88348e-08 0)
(9.22374e-07 -6.5267e-08 0)
(7.04771e-07 -7.0145e-08 0)
(6.01256e-07 -3.72106e-08 0)
(1.62299e-07 1.69234e-07 0)
(-7.46894e-08 -7.13668e-07 0)
(-5.13271e-08 -5.11158e-09 0)
(-2.28104e-07 4.69937e-08 0)
(-2.85115e-08 -2.20185e-07 0)
(4.56964e-07 -5.22316e-07 0)
(1.25224e-06 -8.07337e-07 0)
(2.44139e-06 -1.09083e-06 0)
(4.0334e-06 -1.34861e-06 0)
(5.91205e-06 -1.60146e-06 0)
(8.01204e-06 -1.77937e-06 0)
(1.03483e-05 -1.93187e-06 0)
(1.28895e-05 -2.02066e-06 0)
(1.55198e-05 -2.09382e-06 0)
(1.81819e-05 -2.11177e-06 0)
(2.08942e-05 -2.17192e-06 0)
(2.36109e-05 -2.20522e-06 0)
(2.63184e-05 -2.17375e-06 0)
(2.90214e-05 -2.13017e-06 0)
(3.16592e-05 -2.09977e-06 0)
(3.42321e-05 -2.07792e-06 0)
(3.68234e-05 -2.02495e-06 0)
(3.934e-05 -1.96637e-06 0)
(4.17731e-05 -1.91376e-06 0)
(4.41713e-05 -1.86672e-06 0)
(4.65184e-05 -1.79266e-06 0)
(4.87542e-05 -1.72205e-06 0)
(5.08671e-05 -1.65337e-06 0)
(5.29256e-05 -1.62764e-06 0)
(5.4914e-05 -1.55178e-06 0)
(5.68312e-05 -1.50254e-06 0)
(5.86579e-05 -1.45496e-06 0)
(6.0414e-05 -1.3582e-06 0)
(6.21295e-05 -1.28689e-06 0)
(6.37625e-05 -1.24906e-06 0)
(6.52792e-05 -1.20193e-06 0)
(6.67106e-05 -1.14542e-06 0)
(6.80616e-05 -1.04977e-06 0)
(6.93839e-05 -9.40294e-07 0)
(7.06125e-05 -8.62828e-07 0)
(7.16811e-05 -7.91369e-07 0)
(7.26619e-05 -7.76156e-07 0)
(7.35535e-05 -6.6959e-07 0)
(7.43412e-05 -5.71103e-07 0)
(7.50214e-05 -5.05676e-07 0)
(7.56307e-05 -4.39412e-07 0)
(7.61546e-05 -3.5651e-07 0)
(7.65502e-05 -2.73872e-07 0)
(7.68351e-05 -1.95207e-07 0)
(7.70283e-05 -1.11458e-07 0)
(7.7128e-05 -9.55926e-09 0)
(7.71182e-05 8.5049e-08 0)
(7.69668e-05 1.36162e-07 0)
(7.67209e-05 1.78711e-07 0)
(7.64393e-05 2.78875e-07 0)
(7.60651e-05 3.84564e-07 0)
(7.55251e-05 4.47287e-07 0)
(7.48534e-05 5.13083e-07 0)
(7.41211e-05 5.78504e-07 0)
(7.33277e-05 6.32902e-07 0)
(7.24361e-05 7.14268e-07 0)
(7.14347e-05 7.98951e-07 0)
(7.03553e-05 8.52934e-07 0)
(6.92313e-05 9.15075e-07 0)
(6.80135e-05 1.00801e-06 0)
(6.66768e-05 1.10671e-06 0)
(6.52541e-05 1.16679e-06 0)
(6.3723e-05 1.20951e-06 0)
(6.20824e-05 1.28981e-06 0)
(6.03744e-05 1.35685e-06 0)
(5.85802e-05 1.36448e-06 0)
(5.67158e-05 1.42808e-06 0)
(5.48373e-05 1.53369e-06 0)
(5.28992e-05 1.60767e-06 0)
(5.0826e-05 1.68046e-06 0)
(4.86457e-05 1.75461e-06 0)
(4.64253e-05 1.7902e-06 0)
(4.41521e-05 1.81905e-06 0)
(4.18005e-05 1.89131e-06 0)
(3.93791e-05 1.9542e-06 0)
(3.68934e-05 2.02449e-06 0)
(3.43682e-05 2.07737e-06 0)
(3.17991e-05 2.13991e-06 0)
(2.91625e-05 2.15164e-06 0)
(2.64479e-05 2.21606e-06 0)
(2.36936e-05 2.19591e-06 0)
(2.09872e-05 2.19739e-06 0)
(1.83205e-05 2.15259e-06 0)
(1.56641e-05 2.1383e-06 0)
(1.30768e-05 2.05889e-06 0)
(1.05931e-05 1.93629e-06 0)
(8.23534e-06 1.77541e-06 0)
(6.09254e-06 1.61971e-06 0)
(4.22447e-06 1.41452e-06 0)
(2.63365e-06 1.15268e-06 0)
(1.3647e-06 8.481e-07 0)
(4.79433e-07 5.31574e-07 0)
(-4.08105e-08 2.40269e-07 0)
(-2.32978e-07 -1.22588e-08 0)
(-4.09402e-08 -5.02351e-09 0)
(-4.63898e-08 5.23433e-07 0)
(-9.7139e-08 -8.16069e-07 0)
(-8.6449e-08 1.82969e-07 0)
(-1.59466e-07 1.20449e-07 0)
(3.1514e-07 -5.21187e-07 0)
(1.28541e-06 -1.27866e-06 0)
(2.75681e-06 -2.03103e-06 0)
(4.7775e-06 -2.73705e-06 0)
(7.26312e-06 -3.36111e-06 0)
(1.02015e-05 -3.96125e-06 0)
(1.35446e-05 -4.42952e-06 0)
(1.71849e-05 -4.77664e-06 0)
(2.10486e-05 -5.00386e-06 0)
(2.51052e-05 -5.22029e-06 0)
(2.92459e-05 -5.34984e-06 0)
(3.33952e-05 -5.3984e-06 0)
(3.76382e-05 -5.41715e-06 0)
(4.18972e-05 -5.395e-06 0)
(4.60672e-05 -5.32974e-06 0)
(5.01688e-05 -5.27137e-06 0)
(5.42487e-05 -5.17322e-06 0)
(5.82761e-05 -5.01948e-06 0)
(6.21661e-05 -4.90797e-06 0)
(6.5977e-05 -4.79577e-06 0)
(6.97437e-05 -4.68262e-06 0)
(7.3385e-05 -4.52986e-06 0)
(7.68925e-05 -4.40047e-06 0)
(8.02647e-05 -4.24848e-06 0)
(8.35365e-05 -4.10702e-06 0)
(8.66976e-05 -3.98043e-06 0)
(8.97209e-05 -3.83067e-06 0)
(9.26843e-05 -3.6683e-06 0)
(9.55087e-05 -3.46992e-06 0)
(9.81464e-05 -3.30492e-06 0)
(0.000100685 -3.16504e-06 0)
(0.000103098 -3.03799e-06 0)
(0.000105378 -2.83667e-06 0)
(0.000107566 -2.65434e-06 0)
(0.000109584 -2.42735e-06 0)
(0.00011142 -2.27896e-06 0)
(0.000113094 -2.09346e-06 0)
(0.000114667 -1.90922e-06 0)
(0.000116124 -1.69876e-06 0)
(0.000117342 -1.51513e-06 0)
(0.000118408 -1.32547e-06 0)
(0.000119384 -1.10758e-06 0)
(0.000120203 -8.95065e-07 0)
(0.000120824 -6.82808e-07 0)
(0.000121291 -4.74718e-07 0)
(0.000121633 -2.82325e-07 0)
(0.000121807 -6.47027e-08 0)
(0.000121772 1.39711e-07 0)
(0.000121578 3.23229e-07 0)
(0.00012129 5.38226e-07 0)
(0.000120848 7.57646e-07 0)
(0.000120205 9.25235e-07 0)
(0.00011941 1.09357e-06 0)
(0.000118457 1.30633e-06 0)
(0.000117335 1.52406e-06 0)
(0.00011609 1.70796e-06 0)
(0.000114703 1.87789e-06 0)
(0.000113143 2.06468e-06 0)
(0.00011145 2.28019e-06 0)
(0.000109646 2.4783e-06 0)
(0.000107697 2.65549e-06 0)
(0.000105565 2.83881e-06 0)
(0.00010328 3.00261e-06 0)
(0.00010089 3.15447e-06 0)
(9.83473e-05 3.32442e-06 0)
(9.56278e-05 3.46546e-06 0)
(9.28341e-05 3.59402e-06 0)
(8.99654e-05 3.78519e-06 0)
(8.69503e-05 3.98083e-06 0)
(8.38179e-05 4.12094e-06 0)
(8.05474e-05 4.24838e-06 0)
(7.71151e-05 4.39607e-06 0)
(7.35907e-05 4.54075e-06 0)
(7.00183e-05 4.67158e-06 0)
(6.63294e-05 4.80446e-06 0)
(6.25228e-05 4.93127e-06 0)
(5.86266e-05 5.07056e-06 0)
(5.46472e-05 5.21222e-06 0)
(5.05762e-05 5.31322e-06 0)
(4.6447e-05 5.37741e-06 0)
(4.22289e-05 5.40853e-06 0)
(3.79684e-05 5.45404e-06 0)
(3.37423e-05 5.47139e-06 0)
(2.95552e-05 5.40737e-06 0)
(2.54237e-05 5.27917e-06 0)
(2.13618e-05 5.10072e-06 0)
(1.74791e-05 4.82333e-06 0)
(1.38464e-05 4.44603e-06 0)
(1.05098e-05 4.01116e-06 0)
(7.51742e-06 3.47223e-06 0)
(4.95993e-06 2.81936e-06 0)
(2.90072e-06 2.10161e-06 0)
(1.36138e-06 1.3441e-06 0)
(3.44288e-07 5.58881e-07 0)
(-1.42361e-07 -8.16873e-08 0)
(-1.12945e-07 -2.46448e-07 0)
(-1.0335e-07 4.60831e-07 0)
(-7.40789e-08 -8.8397e-07 0)
(1.12207e-07 5.6106e-08 0)
(4.18652e-07 -3.71412e-07 0)
(1.38164e-06 -1.4904e-06 0)
(3.00196e-06 -2.83309e-06 0)
(5.22941e-06 -4.17924e-06 0)
(8.11794e-06 -5.47964e-06 0)
(1.15932e-05 -6.66618e-06 0)
(1.56126e-05 -7.66761e-06 0)
(2.01468e-05 -8.50078e-06 0)
(2.5082e-05 -9.16564e-06 0)
(3.02649e-05 -9.66155e-06 0)
(3.56305e-05 -1.00043e-05 0)
(4.11987e-05 -1.02766e-05 0)
(4.6837e-05 -1.03933e-05 0)
(5.24911e-05 -1.03789e-05 0)
(5.81728e-05 -1.03526e-05 0)
(6.38033e-05 -1.02601e-05 0)
(6.93496e-05 -1.01158e-05 0)
(7.48623e-05 -9.91799e-06 0)
(8.0268e-05 -9.69786e-06 0)
(8.54938e-05 -9.48381e-06 0)
(9.06202e-05 -9.23493e-06 0)
(9.56868e-05 -8.98718e-06 0)
(0.000100616 -8.73145e-06 0)
(0.000105355 -8.46499e-06 0)
(0.000109918 -8.22769e-06 0)
(0.000114316 -7.9454e-06 0)
(0.000118597 -7.68109e-06 0)
(0.000122747 -7.36078e-06 0)
(0.000126729 -7.00986e-06 0)
(0.0001305 -6.735e-06 0)
(0.000134072 -6.44386e-06 0)
(0.000137484 -6.1266e-06 0)
(0.000140782 -5.76912e-06 0)
(0.000143888 -5.41807e-06 0)
(0.000146777 -5.05515e-06 0)
(0.000149473 -4.7421e-06 0)
(0.000151967 -4.40953e-06 0)
(0.000154279 -4.01548e-06 0)
(0.000156392 -3.60831e-06 0)
(0.000158286 -3.26729e-06 0)
(0.000159947 -2.92995e-06 0)
(0.000161448 -2.5466e-06 0)
(0.000162758 -2.13733e-06 0)
(0.000163844 -1.73387e-06 0)
(0.000164696 -1.34906e-06 0)
(0.000165312 -9.62917e-07 0)
(0.000165754 -5.79403e-07 0)
(0.000165997 -2.0581e-07 0)
(0.000165977 1.68439e-07 0)
(0.000165751 5.75857e-07 0)
(0.000165344 9.83013e-07 0)
(0.000164701 1.35377e-06 0)
(0.000163846 1.7292e-06 0)
(0.000162812 2.11961e-06 0)
(0.000161547 2.49453e-06 0)
(0.000160034 2.88143e-06 0)
(0.000158325 3.26375e-06 0)
(0.000156453 3.62613e-06 0)
(0.000154398 3.99143e-06 0)
(0.000152119 4.37677e-06 0)
(0.00014964 4.74477e-06 0)
(0.000146986 5.0892e-06 0)
(0.000144114 5.42261e-06 0)
(0.00014104 5.76246e-06 0)
(0.000137804 6.0821e-06 0)
(0.000134352 6.379e-06 0)
(0.000130706 6.69555e-06 0)
(0.000126972 7.04305e-06 0)
(0.000123089 7.36401e-06 0)
(0.000118978 7.6731e-06 0)
(0.000114699 7.96108e-06 0)
(0.000110284 8.21107e-06 0)
(0.000105697 8.47257e-06 0)
(0.000100958 8.74717e-06 0)
(9.60965e-05 9.02516e-06 0)
(9.10954e-05 9.26195e-06 0)
(8.5971e-05 9.52213e-06 0)
(8.07327e-05 9.73434e-06 0)
(7.53514e-05 9.95765e-06 0)
(6.98461e-05 1.01309e-05 0)
(6.42538e-05 1.02943e-05 0)
(5.86206e-05 1.03581e-05 0)
(5.29522e-05 1.04448e-05 0)
(4.72533e-05 1.04283e-05 0)
(4.15986e-05 1.0328e-05 0)
(3.6052e-05 1.00796e-05 0)
(3.06349e-05 9.74076e-06 0)
(2.54005e-05 9.25344e-06 0)
(2.04946e-05 8.59223e-06 0)
(1.59848e-05 7.74205e-06 0)
(1.18966e-05 6.74462e-06 0)
(8.34013e-06 5.59236e-06 0)
(5.39381e-06 4.27458e-06 0)
(3.0598e-06 2.88123e-06 0)
(1.39923e-06 1.53362e-06 0)
(4.20833e-07 3.81553e-07 0)
(7.43321e-08 -1.7627e-07 0)
(-8.61324e-08 4.0034e-07 0)
(-5.71385e-08 -9.79623e-07 0)
(3.21385e-07 -3.04356e-07 0)
(1.10156e-06 -1.24242e-06 0)
(2.61786e-06 -2.97557e-06 0)
(4.8844e-06 -5.02169e-06 0)
(7.88778e-06 -7.09934e-06 0)
(1.16116e-05 -9.04911e-06 0)
(1.60412e-05 -1.08411e-05 0)
(2.1108e-05 -1.23581e-05 0)
(2.67062e-05 -1.36265e-05 0)
(3.27484e-05 -1.46407e-05 0)
(3.91376e-05 -1.54406e-05 0)
(4.57441e-05 -1.59934e-05 0)
(5.25423e-05 -1.63451e-05 0)
(5.94948e-05 -1.65452e-05 0)
(6.64588e-05 -1.65713e-05 0)
(7.34135e-05 -1.65084e-05 0)
(8.0339e-05 -1.63494e-05 0)
(8.71849e-05 -1.61216e-05 0)
(9.3966e-05 -1.58187e-05 0)
(0.000100607 -1.55261e-05 0)
(0.000107083 -1.51881e-05 0)
(0.000113439 -1.47778e-05 0)
(0.00011967 -1.4371e-05 0)
(0.000125728 -1.39895e-05 0)
(0.000131549 -1.357e-05 0)
(0.000137201 -1.31803e-05 0)
(0.000142692 -1.27342e-05 0)
(0.000148006 -1.22646e-05 0)
(0.000153152 -1.17719e-05 0)
(0.000158023 -1.12985e-05 0)
(0.000162655 -1.08382e-05 0)
(0.000167116 -1.03225e-05 0)
(0.000171414 -9.80319e-06 0)
(0.000175463 -9.22559e-06 0)
(0.000179258 -8.7154e-06 0)
(0.000182823 -8.16444e-06 0)
(0.000186132 -7.60793e-06 0)
(0.000189277 -7.01131e-06 0)
(0.000192158 -6.42462e-06 0)
(0.000194711 -5.83314e-06 0)
(0.00019703 -5.26944e-06 0)
(0.000199122 -4.66016e-06 0)
(0.000200992 -4.02374e-06 0)
(0.000202619 -3.40381e-06 0)
(0.000203941 -2.79119e-06 0)
(0.000204968 -2.18559e-06 0)
(0.000205754 -1.54931e-06 0)
(0.000206302 -9.11783e-07 0)
(0.000206579 -3.18253e-07 0)
(0.000206585 2.88735e-07 0)
(0.000206329 9.38054e-07 0)
(0.000205805 1.56594e-06 0)
(0.000205026 2.17721e-06 0)
(0.000203992 2.80863e-06 0)
(0.000202682 3.43097e-06 0)
(0.000201109 4.02224e-06 0)
(0.000199277 4.62664e-06 0)
(0.000197186 5.24866e-06 0)
(0.000194859 5.86889e-06 0)
(0.000192298 6.45816e-06 0)
(0.000189484 7.03632e-06 0)
(0.000186418 7.63036e-06 0)
(0.000183118 8.18702e-06 0)
(0.00017957 8.70977e-06 0)
(0.000175766 9.24972e-06 0)
(0.000171735 9.76622e-06 0)
(0.000167503 1.02738e-05 0)
(0.00016306 1.08216e-05 0)
(0.000158411 1.13587e-05 0)
(0.00015356 1.18337e-05 0)
(0.000148485 1.23074e-05 0)
(0.000143186 1.27846e-05 0)
(0.000137705 1.32129e-05 0)
(0.000132039 1.36073e-05 0)
(0.000126201 1.40212e-05 0)
(0.000120192 1.44391e-05 0)
(0.000114026 1.48517e-05 0)
(0.000107679 1.52335e-05 0)
(0.000101182 1.55614e-05 0)
(9.45613e-05 1.58667e-05 0)
(8.77996e-05 1.61568e-05 0)
(8.09148e-05 1.63983e-05 0)
(7.3975e-05 1.65756e-05 0)
(6.70076e-05 1.66374e-05 0)
(6.00048e-05 1.65988e-05 0)
(5.30558e-05 1.64385e-05 0)
(4.62384e-05 1.60958e-05 0)
(3.95935e-05 1.55386e-05 0)
(3.3167e-05 1.47744e-05 0)
(2.70901e-05 1.37931e-05 0)
(2.14856e-05 1.25185e-05 0)
(1.64067e-05 1.09705e-05 0)
(1.18756e-05 9.17838e-06 0)
(8.02463e-06 7.18471e-06 0)
(4.96003e-06 5.10114e-06 0)
(2.65791e-06 3.08843e-06 0)
(1.10348e-06 1.28748e-06 0)
(2.85506e-07 1.66508e-07 0)
(-8.03604e-08 3.37112e-07 0)
(-4.72728e-08 -1.32592e-06 0)
(5.93139e-07 -1.23381e-06 0)
(1.90481e-06 -2.86322e-06 0)
(4.03023e-06 -5.49346e-06 0)
(6.98181e-06 -8.41721e-06 0)
(1.08313e-05 -1.13706e-05 0)
(1.54776e-05 -1.4155e-05 0)
(2.08732e-05 -1.66663e-05 0)
(2.69772e-05 -1.88829e-05 0)
(3.36829e-05 -2.07423e-05 0)
(4.08783e-05 -2.22086e-05 0)
(4.84381e-05 -2.33375e-05 0)
(5.62931e-05 -2.41496e-05 0)
(6.43742e-05 -2.4677e-05 0)
(7.25981e-05 -2.49464e-05 0)
(8.08494e-05 -2.50431e-05 0)
(8.91095e-05 -2.49432e-05 0)
(9.73361e-05 -2.47221e-05 0)
(0.000105473 -2.43762e-05 0)
(0.000113498 -2.39828e-05 0)
(0.000121369 -2.35283e-05 0)
(0.000129117 -2.30119e-05 0)
(0.000136673 -2.24234e-05 0)
(0.00014402 -2.18168e-05 0)
(0.000151221 -2.12232e-05 0)
(0.000158156 -2.06012e-05 0)
(0.000164861 -1.99272e-05 0)
(0.000171394 -1.92428e-05 0)
(0.000177705 -1.85287e-05 0)
(0.000183766 -1.7824e-05 0)
(0.000189539 -1.71179e-05 0)
(0.000195103 -1.63565e-05 0)
(0.000200403 -1.55691e-05 0)
(0.000205468 -1.47636e-05 0)
(0.000210266 -1.3982e-05 0)
(0.000214766 -1.31752e-05 0)
(0.000219041 -1.23244e-05 0)
(0.000223031 -1.14552e-05 0)
(0.000226708 -1.05487e-05 0)
(0.000230073 -9.71928e-06 0)
(0.000233129 -8.87031e-06 0)
(0.000235916 -7.96441e-06 0)
(0.000238436 -7.03625e-06 0)
(0.000240637 -6.09967e-06 0)
(0.000242512 -5.18652e-06 0)
(0.000244076 -4.28962e-06 0)
(0.000245349 -3.37123e-06 0)
(0.000246292 -2.42816e-06 0)
(0.000246885 -1.49659e-06 0)
(0.000247197 -5.66093e-07 0)
(0.000247238 3.82247e-07 0)
(0.000246936 1.32998e-06 0)
(0.000246293 2.26017e-06 0)
(0.000245362 3.18953e-06 0)
(0.00024413 4.11833e-06 0)
(0.000242568 5.05393e-06 0)
(0.0002407 5.98175e-06 0)
(0.000238536 6.8971e-06 0)
(0.000236067 7.81969e-06 0)
(0.000233293 8.74544e-06 0)
(0.000230236 9.65198e-06 0)
(0.000226913 1.05359e-05 0)
(0.000223266 1.14099e-05 0)
(0.000219301 1.22498e-05 0)
(0.000215087 1.30702e-05 0)
(0.000210593 1.38927e-05 0)
(0.000205824 1.47125e-05 0)
(0.000200822 1.55188e-05 0)
(0.00019554 1.63161e-05 0)
(0.000189982 1.70967e-05 0)
(0.000184212 1.78467e-05 0)
(0.000178198 1.85781e-05 0)
(0.000171884 1.92745e-05 0)
(0.000165321 1.99498e-05 0)
(0.000158594 2.05878e-05 0)
(0.000151694 2.12357e-05 0)
(0.000144585 2.18477e-05 0)
(0.000137239 2.24568e-05 0)
(0.000129667 2.2998e-05 0)
(0.000121952 2.35489e-05 0)
(0.000114105 2.40037e-05 0)
(0.000106087 2.44101e-05 0)
(9.79282e-05 2.4727e-05 0)
(8.96772e-05 2.4985e-05 0)
(8.13927e-05 2.50701e-05 0)
(7.31325e-05 2.50171e-05 0)
(6.49111e-05 2.47387e-05 0)
(5.68038e-05 2.42266e-05 0)
(4.8919e-05 2.34228e-05 0)
(4.13419e-05 2.23161e-05 0)
(3.41335e-05 2.08681e-05 0)
(2.73829e-05 1.90476e-05 0)
(2.12033e-05 1.6812e-05 0)
(1.56976e-05 1.423e-05 0)
(1.09804e-05 1.14393e-05 0)
(7.10069e-06 8.50014e-06 0)
(4.04665e-06 5.56907e-06 0)
(1.83987e-06 2.90996e-06 0)
(5.10692e-07 9.98672e-07 0)
(-6.62043e-08 4.34497e-07 0)
(-2.13921e-09 -1.59865e-06 0)
(8.3255e-07 -2.40859e-06 0)
(2.51192e-06 -5.00322e-06 0)
(5.20864e-06 -8.6603e-06 0)
(8.8912e-06 -1.25816e-05 0)
(1.35102e-05 -1.64671e-05 0)
(1.90128e-05 -2.01975e-05 0)
(2.52866e-05 -2.35591e-05 0)
(3.22959e-05 -2.65052e-05 0)
(4.00096e-05 -2.89742e-05 0)
(4.82482e-05 -3.09531e-05 0)
(5.68738e-05 -3.24613e-05 0)
(6.5786e-05 -3.35573e-05 0)
(7.4962e-05 -3.42738e-05 0)
(8.42981e-05 -3.4639e-05 0)
(9.36778e-05 -3.47832e-05 0)
(0.000103077 -3.46384e-05 0)
(0.000112432 -3.4379e-05 0)
(0.000121665 -3.3932e-05 0)
(0.000130792 -3.33933e-05 0)
(0.000139795 -3.27376e-05 0)
(0.000148625 -3.20068e-05 0)
(0.000157264 -3.12638e-05 0)
(0.000165652 -3.0439e-05 0)
(0.000173828 -2.95682e-05 0)
(0.000181775 -2.87003e-05 0)
(0.000189472 -2.77499e-05 0)
(0.000196921 -2.68126e-05 0)
(0.00020411 -2.58273e-05 0)
(0.000211036 -2.48643e-05 0)
(0.000217676 -2.38372e-05 0)
(0.000224026 -2.27628e-05 0)
(0.000230096 -2.17202e-05 0)
(0.000235879 -2.06214e-05 0)
(0.000241341 -1.95043e-05 0)
(0.000246543 -1.83482e-05 0)
(0.000251427 -1.71493e-05 0)
(0.000255958 -1.59582e-05 0)
(0.000260145 -1.47749e-05 0)
(0.000263958 -1.35687e-05 0)
(0.000267495 -1.23256e-05 0)
(0.000270718 -1.10496e-05 0)
(0.000273573 -9.78327e-06 0)
(0.000276073 -8.5151e-06 0)
(0.000278216 -7.23221e-06 0)
(0.000280004 -5.93701e-06 0)
(0.000281446 -4.64208e-06 0)
(0.000282521 -3.36557e-06 0)
(0.000283242 -2.06136e-06 0)
(0.000283633 -7.1064e-07 0)
(0.000283658 6.11509e-07 0)
(0.000283289 1.89783e-06 0)
(0.00028256 3.19474e-06 0)
(0.000281506 4.50452e-06 0)
(0.000280116 5.80837e-06 0)
(0.000278349 7.11394e-06 0)
(0.000276205 8.41129e-06 0)
(0.000273727 9.69619e-06 0)
(0.00027092 1.09744e-05 0)
(0.000267765 1.22427e-05 0)
(0.000264264 1.35005e-05 0)
(0.000260431 1.47226e-05 0)
(0.000256248 1.59126e-05 0)
(0.000251736 1.7106e-05 0)
(0.000246931 1.82815e-05 0)
(0.000241802 1.94222e-05 0)
(0.000236348 2.05548e-05 0)
(0.000230608 2.16597e-05 0)
(0.000224578 2.27498e-05 0)
(0.000218245 2.38395e-05 0)
(0.000211635 2.48953e-05 0)
(0.000204719 2.58786e-05 0)
(0.000197502 2.68339e-05 0)
(0.000190034 2.77935e-05 0)
(0.000182353 2.87325e-05 0)
(0.000174444 2.96221e-05 0)
(0.000166298 3.04642e-05 0)
(0.000157914 3.12567e-05 0)
(0.000149322 3.2048e-05 0)
(0.00014052 3.27933e-05 0)
(0.000131515 3.3427e-05 0)
(0.000122375 3.39516e-05 0)
(0.000113118 3.44013e-05 0)
(0.000103756 3.472e-05 0)
(9.43464e-05 3.48568e-05 0)
(8.49235e-05 3.47421e-05 0)
(7.55573e-05 3.43531e-05 0)
(6.63791e-05 3.36726e-05 0)
(5.74305e-05 3.26129e-05 0)
(4.87746e-05 3.11268e-05 0)
(4.05182e-05 2.91494e-05 0)
(3.27597e-05 2.66799e-05 0)
(2.56151e-05 2.37398e-05 0)
(1.92406e-05 2.03763e-05 0)
(1.36916e-05 1.66515e-05 0)
(9.00902e-06 1.27087e-05 0)
(5.26869e-06 8.7762e-06 0)
(2.49042e-06 5.1034e-06 0)
(6.9402e-07 2.16163e-06 0)
(-4.29627e-08 5.16208e-07 0)
(3.57183e-08 -1.97319e-06 0)
(1.01117e-06 -4.07073e-06 0)
(3.09227e-06 -7.86333e-06 0)
(6.30149e-06 -1.2602e-05 0)
(1.0636e-05 -1.76073e-05 0)
(1.59364e-05 -2.25702e-05 0)
(2.21491e-05 -2.72924e-05 0)
(2.9252e-05 -3.15918e-05 0)
(3.7127e-05 -3.52962e-05 0)
(4.57056e-05 -3.8387e-05 0)
(5.48433e-05 -4.09224e-05 0)
(6.43748e-05 -4.28548e-05 0)
(7.42397e-05 -4.42836e-05 0)
(8.44104e-05 -4.51864e-05 0)
(9.46899e-05 -4.56684e-05 0)
(0.000105058 -4.5858e-05 0)
(0.000115427 -4.57277e-05 0)
(0.000125739 -4.53653e-05 0)
(0.000136003 -4.48061e-05 0)
(0.000146119 -4.40664e-05 0)
(0.000156086 -4.32285e-05 0)
(0.00016582 -4.2282e-05 0)
(0.00017536 -4.12998e-05 0)
(0.000184706 -4.02488e-05 0)
(0.000193781 -3.91252e-05 0)
(0.00020259 -3.79586e-05 0)
(0.000211113 -3.67217e-05 0)
(0.000219372 -3.54739e-05 0)
(0.000227344 -3.41942e-05 0)
(0.000235022 -3.28722e-05 0)
(0.000242429 -3.1522e-05 0)
(0.000249454 -3.01209e-05 0)
(0.000256158 -2.87209e-05 0)
(0.000262614 -2.72498e-05 0)
(0.000268712 -2.57695e-05 0)
(0.000274468 -2.42078e-05 0)
(0.000279877 -2.26754e-05 0)
(0.000284871 -2.11145e-05 0)
(0.000289511 -1.95584e-05 0)
(0.000293815 -1.79413e-05 0)
(0.000297745 -1.62794e-05 0)
(0.000301279 -1.46101e-05 0)
(0.000304434 -1.29444e-05 0)
(0.000307217 -1.12851e-05 0)
(0.000309608 -9.59541e-06 0)
(0.000311592 -7.8691e-06 0)
(0.000313172 -6.14436e-06 0)
(0.000314375 -4.42581e-06 0)
(0.000315218 -2.67889e-06 0)
(0.000315638 -9.23394e-07 0)
(0.000315617 7.94364e-07 0)
(0.000315214 2.50291e-06 0)
(0.000314443 4.23726e-06 0)
(0.000313286 5.9851e-06 0)
(0.000311735 7.71236e-06 0)
(0.000309773 9.41346e-06 0)
(0.000307408 1.11187e-05 0)
(0.00030467 1.2833e-05 0)
(0.000301552 1.45205e-05 0)
(0.000298044 1.61812e-05 0)
(0.000294146 1.78177e-05 0)
(0.000289883 1.94322e-05 0)
(0.000285263 2.10386e-05 0)
(0.000280265 2.26282e-05 0)
(0.000274903 2.4165e-05 0)
(0.000269201 2.56694e-05 0)
(0.00026316 2.71803e-05 0)
(0.00025681 2.86563e-05 0)
(0.00025014 3.00951e-05 0)
(0.000243106 3.14987e-05 0)
(0.000235714 3.28703e-05 0)
(0.000228022 3.41804e-05 0)
(0.000220056 3.54849e-05 0)
(0.00021179 3.67373e-05 0)
(0.000203249 3.79694e-05 0)
(0.000194456 3.91338e-05 0)
(0.000185411 4.02758e-05 0)
(0.000176148 4.1352e-05 0)
(0.000166638 4.23658e-05 0)
(0.000156853 4.32591e-05 0)
(0.00014687 4.41065e-05 0)
(0.000136781 4.48367e-05 0)
(0.000126569 4.54282e-05 0)
(0.00011621 4.58017e-05 0)
(0.000105772 4.59438e-05 0)
(9.53653e-05 4.57699e-05 0)
(8.50811e-05 4.53133e-05 0)
(7.49354e-05 4.44398e-05 0)
(6.50095e-05 4.3049e-05 0)
(5.54076e-05 4.11192e-05 0)
(4.62198e-05 3.86142e-05 0)
(3.75923e-05 3.54816e-05 0)
(2.96358e-05 3.1773e-05 0)
(2.2424e-05 2.75121e-05 0)
(1.60863e-05 2.27826e-05 0)
(1.07505e-05 1.78065e-05 0)
(6.39828e-06 1.27531e-05 0)
(3.06274e-06 7.89871e-06 0)
(8.09352e-07 3.71643e-06 0)
(-3.5892e-08 7.43856e-07 0)
(4.70993e-08 -2.48327e-06 0)
(1.07577e-06 -6.05335e-06 0)
(3.57176e-06 -1.11642e-05 0)
(7.28183e-06 -1.71379e-05 0)
(1.21205e-05 -2.33557e-05 0)
(1.79882e-05 -2.95093e-05 0)
(2.48406e-05 -3.52602e-05 0)
(3.26554e-05 -4.04713e-05 0)
(4.13205e-05 -4.4991e-05 0)
(5.06375e-05 -4.87755e-05 0)
(6.05313e-05 -5.18842e-05 0)
(7.08697e-05 -5.42672e-05 0)
(8.15567e-05 -5.60116e-05 0)
(9.25775e-05 -5.71343e-05 0)
(0.000103661 -5.77873e-05 0)
(0.000114828 -5.79672e-05 0)
(0.000126082 -5.78447e-05 0)
(0.000137267 -5.73885e-05 0)
(0.000148362 -5.66939e-05 0)
(0.000159303 -5.57864e-05 0)
(0.000170083 -5.47517e-05 0)
(0.000180643 -5.36187e-05 0)
(0.000190971 -5.23381e-05 0)
(0.000201081 -5.10118e-05 0)
(0.00021093 -4.95947e-05 0)
(0.000220517 -4.81208e-05 0)
(0.000229781 -4.6602e-05 0)
(0.000238713 -4.49973e-05 0)
(0.000247372 -4.33725e-05 0)
(0.000255714 -4.16954e-05 0)
(0.000263728 -3.99683e-05 0)
(0.000271363 -3.8228e-05 0)
(0.000278684 -3.64028e-05 0)
(0.000285672 -3.45202e-05 0)
(0.000292291 -3.26376e-05 0)
(0.000298545 -3.06985e-05 0)
(0.000304362 -2.87646e-05 0)
(0.00030979 -2.6783e-05 0)
(0.000314848 -2.47671e-05 0)
(0.000319524 -2.27186e-05 0)
(0.000323799 -2.06465e-05 0)
(0.00032764 -1.85497e-05 0)
(0.000331033 -1.64266e-05 0)
(0.00033404 -1.43011e-05 0)
(0.000336672 -1.21642e-05 0)
(0.000338847 -1.00015e-05 0)
(0.000340559 -7.8103e-06 0)
(0.00034187 -5.59284e-06 0)
(0.000342775 -3.39141e-06 0)
(0.000343207 -1.21769e-06 0)
(0.000343185 9.70308e-07 0)
(0.000342772 3.17788e-06 0)
(0.000341955 5.38322e-06 0)
(0.000340693 7.5842e-06 0)
(0.000338982 9.77062e-06 0)
(0.000336854 1.19407e-05 0)
(0.00033432 1.41113e-05 0)
(0.00033135 1.62664e-05 0)
(0.000327944 1.83872e-05 0)
(0.000324126 2.04801e-05 0)
(0.000319902 2.25594e-05 0)
(0.000315298 2.46307e-05 0)
(0.000310286 2.66659e-05 0)
(0.000304832 2.86546e-05 0)
(0.000299004 3.0613e-05 0)
(0.000292855 3.25597e-05 0)
(0.000286319 3.44795e-05 0)
(0.000279389 3.63473e-05 0)
(0.000272109 3.81332e-05 0)
(0.000264475 3.98848e-05 0)
(0.000256479 4.16241e-05 0)
(0.000248154 4.3334e-05 0)
(0.000239486 4.49682e-05 0)
(0.000230506 4.65474e-05 0)
(0.00022125 4.80984e-05 0)
(0.000211726 4.9599e-05 0)
(0.000201937 5.1042e-05 0)
(0.000191842 5.23945e-05 0)
(0.000181469 5.36285e-05 0)
(0.000170908 5.47806e-05 0)
(0.000160169 5.58424e-05 0)
(0.000149232 5.67666e-05 0)
(0.000138128 5.74571e-05 0)
(0.000126904 5.79054e-05 0)
(0.000115633 5.80776e-05 0)
(0.000104427 5.79107e-05 0)
(9.3317e-05 5.73023e-05 0)
(8.22961e-05 5.61667e-05 0)
(7.15317e-05 5.44746e-05 0)
(6.11445e-05 5.21092e-05 0)
(5.1176e-05 4.90233e-05 0)
(4.17719e-05 4.52129e-05 0)
(3.3062e-05 4.06853e-05 0)
(2.51488e-05 3.54827e-05 0)
(1.82031e-05 2.97384e-05 0)
(1.22444e-05 2.36088e-05 0)
(7.28579e-06 1.7303e-05 0)
(3.51275e-06 1.11903e-05 0)
(9.81279e-07 5.6304e-06 0)
(2.10842e-08 1.04213e-06 0)
(5.94774e-08 -3.07404e-06 0)
(1.17226e-06 -8.26434e-06 0)
(4.00189e-06 -1.48278e-05 0)
(8.04512e-06 -2.22055e-05 0)
(1.32769e-05 -2.97183e-05 0)
(1.96654e-05 -3.70608e-05 0)
(2.71206e-05 -4.38981e-05 0)
(3.55407e-05 -5.00492e-05 0)
(4.48222e-05 -5.54491e-05 0)
(5.47638e-05 -5.99947e-05 0)
(6.53112e-05 -6.36718e-05 0)
(7.63303e-05 -6.65051e-05 0)
(8.77264e-05 -6.85746e-05 0)
(9.94204e-05 -6.99447e-05 0)
(0.000111243 -7.07558e-05 0)
(0.000123143 -7.09742e-05 0)
(0.000135048 -7.07979e-05 0)
(0.000146962 -7.02522e-05 0)
(0.000158802 -6.94392e-05 0)
(0.000170456 -6.83803e-05 0)
(0.000181892 -6.71275e-05 0)
(0.000193156 -6.57498e-05 0)
(0.000204188 -6.41964e-05 0)
(0.000214965 -6.25663e-05 0)
(0.000225476 -6.08387e-05 0)
(0.00023565 -5.90199e-05 0)
(0.000245544 -5.71704e-05 0)
(0.000255114 -5.52395e-05 0)
(0.000264322 -5.32177e-05 0)
(0.000273228 -5.11762e-05 0)
(0.000281776 -4.90454e-05 0)
(0.000289937 -4.68924e-05 0)
(0.000297779 -4.4645e-05 0)
(0.000305229 -4.23631e-05 0)
(0.000312272 -4.00491e-05 0)
(0.000318916 -3.76964e-05 0)
(0.000325151 -3.53165e-05 0)
(0.000330964 -3.28797e-05 0)
(0.000336354 -3.03895e-05 0)
(0.000341342 -2.78794e-05 0)
(0.000345894 -2.53469e-05 0)
(0.000349997 -2.27914e-05 0)
(0.000353641 -2.01963e-05 0)
(0.000356842 -1.75527e-05 0)
(0.00035962 -1.49045e-05 0)
(0.000361955 -1.22587e-05 0)
(0.000363829 -9.57801e-06 0)
(0.00036522 -6.87357e-06 0)
(0.000366133 -4.18665e-06 0)
(0.000366601 -1.50796e-06 0)
(0.000366621 1.19537e-06 0)
(0.000366185 3.90372e-06 0)
(0.000365297 6.59628e-06 0)
(0.000363952 9.2759e-06 0)
(0.000362143 1.19638e-05 0)
(0.000359881 1.46487e-05 0)
(0.000357162 1.73019e-05 0)
(0.000353976 1.99183e-05 0)
(0.000350338 2.2534e-05 0)
(0.000346279 2.51267e-05 0)
(0.000341797 2.7692e-05 0)
(0.00033687 3.02207e-05 0)
(0.000331489 3.26807e-05 0)
(0.000325684 3.5125e-05 0)
(0.000319502 3.75632e-05 0)
(0.000312931 3.99562e-05 0)
(0.000305925 4.22714e-05 0)
(0.000298499 4.45499e-05 0)
(0.000290724 4.67691e-05 0)
(0.000282615 4.89568e-05 0)
(0.000274108 5.10788e-05 0)
(0.000265186 5.31545e-05 0)
(0.00025592 5.51492e-05 0)
(0.00024637 5.7122e-05 0)
(0.000236516 5.90212e-05 0)
(0.000226349 6.0851e-05 0)
(0.000215867 6.25649e-05 0)
(0.000205088 6.42003e-05 0)
(0.000194075 6.57527e-05 0)
(0.000182837 6.71892e-05 0)
(0.000171376 6.84317e-05 0)
(0.000159707 6.95126e-05 0)
(0.000147883 7.03486e-05 0)
(0.000135974 7.09046e-05 0)
(0.000124013 7.10989e-05 0)
(0.000112057 7.09024e-05 0)
(0.00010019 7.01432e-05 0)
(8.85194e-05 6.87727e-05 0)
(7.70869e-05 6.67339e-05 0)
(6.59571e-05 6.39082e-05 0)
(5.53065e-05 6.02314e-05 0)
(4.52811e-05 5.57259e-05 0)
(3.59608e-05 5.03542e-05 0)
(2.74576e-05 4.41841e-05 0)
(1.99104e-05 3.7325e-05 0)
(1.34049e-05 2.9959e-05 0)
(8.03977e-06 2.23888e-05 0)
(3.94738e-06 1.49104e-05 0)
(1.07504e-06 7.77004e-06 0)
(2.3686e-08 1.28473e-06 0)
(7.70535e-08 -3.64162e-06 0)
(1.23717e-06 -1.06347e-05 0)
(4.28154e-06 -1.88213e-05 0)
(8.63955e-06 -2.76926e-05 0)
(1.42642e-05 -3.65827e-05 0)
(2.10546e-05 -4.51192e-05 0)
(2.89859e-05 -5.31061e-05 0)
(3.7873e-05 -6.02902e-05 0)
(4.76468e-05 -6.65693e-05 0)
(5.81667e-05 -7.18789e-05 0)
(6.93083e-05 -7.61312e-05 0)
(8.09053e-05 -7.94622e-05 0)
(9.28648e-05 -8.18655e-05 0)
(0.00010513 -8.34944e-05 0)
(0.000117548 -8.43968e-05 0)
(0.000130068 -8.46809e-05 0)
(0.000142609 -8.44722e-05 0)
(0.000155099 -8.38371e-05 0)
(0.000167494 -8.28772e-05 0)
(0.000179758 -8.16551e-05 0)
(0.000191803 -8.01855e-05 0)
(0.000203662 -7.85247e-05 0)
(0.000215271 -7.67384e-05 0)
(0.00022659 -7.47746e-05 0)
(0.000237666 -7.27306e-05 0)
(0.000248398 -7.0597e-05 0)
(0.00025878 -6.8353e-05 0)
(0.000268873 -6.6058e-05 0)
(0.000278596 -6.36733e-05 0)
(0.000287969 -6.11956e-05 0)
(0.000296982 -5.8661e-05 0)
(0.000305586 -5.60614e-05 0)
(0.000313851 -5.33898e-05 0)
(0.000321674 -5.06747e-05 0)
(0.000329093 -4.79036e-05 0)