/*--------------------------------*- C++ -*----------------------------------*\
| =========                 |                                                 |
| \\      /  F ield         | OpenFOAM: The Open Source CFD Toolbox           |
|  \\    /   O peration     | Version:  v1812                                 |
|   \\  /    A nd           | Web:      www.OpenFOAM.com                      |
|    \\/     M anipulation  |                                                 |
\*---------------------------------------------------------------------------*/
FoamFile
{
    version     2.0;
    format      ascii;
    class       volScalarField;
    location    "0";
    object      Tdirect;
}
// * * * * * * * * * * * * * * * * * * * * * * * * * * * * * * * * * * * * * //

dimensions      [0 0 0 1 0 0 0];


internalField   nonuniform List<scalar> 
366300
(
300.511
300.516
300.527
300.543
300.564
300.591
300.622
300.657
300.697
300.74
300.786
300.835
300.886
300.938
300.992
301.046
301.1
301.154
301.208
301.262
301.316
301.371
301.426
301.482
301.54
301.6
301.661
301.725
301.79
301.857
301.925
301.993
302.061
302.128
302.193
302.257
302.318
302.378
302.436
302.493
302.55
302.607
302.665
302.724
302.786
302.85
302.915
302.983
303.051
303.119
303.186
303.251
303.314
303.372
303.427
303.479
303.527
303.573
303.618
303.664
303.712
303.763
303.819
303.88
303.946
304.019
304.096
304.177
304.26
304.345
304.429
304.511
304.589
304.664
304.734
304.8
304.862
304.921
304.977
305.031
305.084
305.135
305.184
305.229
305.269
305.301
305.323
305.331
305.322
305.293
305.244
305.171
305.075
304.956
304.817
304.66
304.487
304.305
304.115
303.924
303.736
303.554
303.383
303.227
303.087
302.967
302.869
302.793
302.743
302.717
300.506
300.511
300.522
300.538
300.559
300.585
300.615
300.65
300.689
300.731
300.777
300.825
300.875
300.927
300.98
301.033
301.087
301.14
301.194
301.247
301.3
301.354
301.409
301.465
301.522
301.581
301.641
301.704
301.769
301.835
301.902
301.969
302.036
302.102
302.166
302.229
302.29
302.349
302.407
302.463
302.519
302.575
302.633
302.692
302.752
302.815
302.88
302.947
303.014
303.081
303.148
303.212
303.273
303.331
303.385
303.436
303.484
303.53
303.575
303.62
303.668
303.718
303.774
303.834
303.9
303.971
304.047
304.127
304.209
304.292
304.375
304.456
304.533
304.607
304.677
304.742
304.803
304.861
304.916
304.97
305.022
305.072
305.12
305.165
305.204
305.235
305.256
305.263
305.254
305.226
305.176
305.104
305.01
304.893
304.756
304.601
304.432
304.252
304.066
303.878
303.692
303.514
303.345
303.191
303.054
302.936
302.839
302.765
302.715
302.69
300.5
300.506
300.516
300.532
300.553
300.578
300.608
300.642
300.681
300.723
300.767
300.815
300.864
300.915
300.967
301.02
301.073
301.126
301.178
301.231
301.284
301.337
301.391
301.446
301.502
301.56
301.621
301.682
301.746
301.811
301.877
301.943
302.009
302.074
302.138
302.2
302.26
302.319
302.375
302.431
302.487
302.542
302.599
302.657
302.717
302.779
302.843
302.909
302.975
303.041
303.107
303.17
303.23
303.288
303.341
303.391
303.439
303.484
303.529
303.574
303.621
303.671
303.726
303.785
303.85
303.92
303.995
304.074
304.155
304.237
304.318
304.398
304.474
304.547
304.615
304.68
304.74
304.797
304.852
304.905
304.956
305.006
305.053
305.096
305.134
305.165
305.185
305.192
305.182
305.154
305.105
305.034
304.941
304.826
304.691
304.539
304.372
304.196
304.013
303.828
303.646
303.47
303.305
303.153
303.018
302.902
302.806
302.734
302.684
302.66
300.495
300.5
300.51
300.526
300.546
300.571
300.601
300.634
300.672
300.713
300.757
300.804
300.853
300.903
300.954
301.006
301.058
301.11
301.162
301.214
301.266
301.319
301.372
301.426
301.482
301.539
301.598
301.659
301.722
301.786
301.851
301.916
301.981
302.046
302.108
302.17
302.229
302.286
302.342
302.397
302.452
302.507
302.563
302.62
302.68
302.741
302.804
302.869
302.934
302.999
303.063
303.126
303.185
303.242
303.295
303.344
303.391
303.436
303.48
303.525
303.571
303.621
303.675
303.734
303.798
303.867
303.94
304.018
304.097
304.178
304.258
304.336
304.412
304.483
304.551
304.614
304.674
304.73
304.784
304.836
304.887
304.935
304.982
305.024
305.062
305.091
305.111
305.117
305.107
305.079
305.031
304.961
304.869
304.756
304.623
304.474
304.31
304.136
303.957
303.775
303.597
303.424
303.262
303.113
302.98
302.865
302.772
302.7
302.652
302.628
300.488
300.493
300.504
300.519
300.539
300.563
300.593
300.626
300.663
300.703
300.747
300.793
300.841
300.89
300.94
300.991
301.043
301.094
301.145
301.196
301.248
301.299
301.352
301.405
301.46
301.517
301.575
301.635
301.697
301.76
301.824
301.888
301.952
302.015
302.077
302.137
302.196
302.252
302.308
302.362
302.416
302.47
302.525
302.582
302.64
302.701
302.763
302.826
302.891
302.955
303.018
303.079
303.138
303.193
303.246
303.294
303.341
303.385
303.429
303.473
303.519
303.568
303.621
303.679
303.742
303.81
303.883
303.959
304.037
304.116
304.195
304.272
304.346
304.416
304.483
304.545
304.604
304.66
304.713
304.764
304.814
304.862
304.907
304.949
304.985
305.014
305.033
305.038
305.029
305.001
304.953
304.884
304.794
304.683
304.552
304.405
304.245
304.074
303.898
303.72
303.545
303.375
303.216
303.07
302.939
302.827
302.735
302.665
302.617
302.593
300.482
300.487
300.497
300.512
300.531
300.555
300.584
300.617
300.653
300.693
300.736
300.781
300.828
300.876
300.926
300.976
301.026
301.077
301.127
301.178
301.228
301.279
301.331
301.383
301.438
301.493
301.551
301.61
301.67
301.732
301.795
301.858
301.921
301.983
302.044
302.104
302.161
302.217
302.271
302.325
302.378
302.432
302.486
302.542
302.599
302.659
302.72
302.782
302.845
302.908
302.97
303.03
303.088
303.143
303.194
303.242
303.288
303.332
303.375
303.419
303.464
303.513
303.565
303.622
303.684
303.751
303.822
303.897
303.974
304.051
304.129
304.204
304.277
304.346
304.412
304.473
304.531
304.586
304.638
304.689
304.737
304.784
304.829
304.87
304.905
304.933
304.951
304.956
304.946
304.919
304.872
304.804
304.715
304.606
304.478
304.334
304.177
304.009
303.837
303.662
303.49
303.324
303.168
303.024
302.896
302.786
302.696
302.627
302.581
302.557
300.475
300.479
300.489
300.504
300.523
300.547
300.575
300.607
300.643
300.682
300.724
300.768
300.814
300.862
300.911
300.96
301.009
301.059
301.108
301.158
301.208
301.258
301.309
301.361
301.414
301.469
301.525
301.583
301.643
301.704
301.765
301.827
301.889
301.95
302.01
302.068
302.125
302.18
302.233
302.286
302.338
302.391
302.445
302.499
302.556
302.614
302.674
302.736
302.798
302.86
302.92
302.98
303.036
303.09
303.141
303.188
303.233
303.276
303.319
303.362
303.407
303.455
303.506
303.562
303.623
303.689
303.759
303.832
303.908
303.984
304.06
304.134
304.205
304.273
304.338
304.398
304.455
304.509
304.561
304.61
304.658
304.704
304.747
304.787
304.822
304.849
304.866
304.871
304.861
304.833
304.787
304.72
304.633
304.526
304.401
304.26
304.105
303.942
303.772
303.601
303.433
303.27
303.117
302.976
302.851
302.743
302.655
302.587
302.542
302.519
300.467
300.472
300.482
300.496
300.515
300.538
300.566
300.597
300.632
300.67
300.711
300.755
300.8
300.847
300.895
300.943
300.992
301.04
301.089
301.138
301.187
301.236
301.286
301.337
301.389
301.443
301.498
301.555
301.614
301.674
301.734
301.795
301.856
301.916
301.974
302.032
302.087
302.141
302.194
302.246
302.297
302.349
302.402
302.455
302.511
302.568
302.627
302.687
302.748
302.809
302.869
302.927
302.982
303.035
303.085
303.131
303.176
303.218
303.26
303.303
303.347
303.394
303.445
303.5
303.56
303.624
303.693
303.765
303.839
303.913
303.988
304.06
304.131
304.197
304.26
304.32
304.376
304.429
304.479
304.528
304.575
304.62
304.662
304.701
304.735
304.761
304.778
304.782
304.772
304.745
304.699
304.634
304.548
304.443
304.321
304.182
304.031
303.871
303.706
303.538
303.373
303.214
303.064
302.926
302.804
302.698
302.611
302.545
302.501
302.478
300.459
300.464
300.473
300.487
300.506
300.529
300.556
300.587
300.621
300.658
300.699
300.741
300.786
300.831
300.878
300.925
300.973
301.021
301.069
301.117
301.165
301.213
301.262
301.312
301.363
301.416
301.471
301.526
301.584
301.643
301.702
301.762
301.821
301.88
301.937
301.993
302.048
302.101
302.153
302.204
302.254
302.305
302.357
302.41
302.464
302.521
302.578
302.637
302.697
302.756
302.815
302.872
302.926
302.978
303.027
303.073
303.116
303.158
303.199
303.241
303.285
303.331
303.381
303.435
303.494
303.557
303.624
303.695
303.767
303.84
303.913
303.984
304.053
304.118
304.18
304.239
304.293
304.345
304.395
304.443
304.489
304.533
304.574
304.612
304.645
304.67
304.686
304.691
304.68
304.653
304.608
304.544
304.46
304.358
304.238
304.102
303.955
303.798
303.636
303.472
303.311
303.155
303.009
302.874
302.754
302.651
302.566
302.501
302.458
302.436
300.451
300.456
300.465
300.479
300.497
300.519
300.545
300.576
300.609
300.646
300.685
300.727
300.77
300.815
300.861
300.907
300.954
301.001
301.048
301.095
301.142
301.189
301.237
301.286
301.337
301.388
301.442
301.497
301.553
301.61
301.668
301.727
301.785
301.842
301.899
301.954
302.007
302.059
302.11
302.16
302.21
302.26
302.31
302.362
302.416
302.471
302.527
302.585
302.643
302.702
302.759
302.815
302.868
302.919
302.967
303.012
303.054
303.096
303.136
303.178
303.22
303.266
303.315
303.368
303.426
303.487
303.553
303.622
303.693
303.764
303.836
303.905
303.972
304.037
304.097
304.154
304.208
304.259
304.308
304.355
304.399
304.442
304.483
304.52
304.552
304.576
304.592
304.596
304.585
304.559
304.514
304.451
304.369
304.269
304.152
304.019
303.875
303.722
303.564
303.404
303.247
303.094
302.951
302.82
302.702
302.601
302.519
302.455
302.413
302.391
300.442
300.447
300.456
300.469
300.487
300.509
300.535
300.564
300.597
300.633
300.671
300.712
300.755
300.798
300.843
300.889
300.934
300.98
301.026
301.072
301.118
301.164
301.212
301.26
301.309
301.36
301.412
301.466
301.521
301.577
301.634
301.691
301.748
301.804
301.859
301.913
301.965
302.016
302.066
302.115
302.164
302.213
302.262
302.313
302.366
302.42
302.475
302.531
302.588
302.645
302.701
302.756
302.808
302.858
302.904
302.949
302.991
303.031
303.071
303.112
303.154
303.198
303.246
303.298
303.355
303.415
303.48
303.547
303.616
303.686
303.755
303.823
303.889
303.952
304.011
304.067
304.12
304.17
304.218
304.263
304.307
304.349
304.389
304.425
304.456
304.479
304.494
304.498
304.487
304.461
304.418
304.356
304.276
304.178
304.063
303.934
303.793
303.644
303.489
303.334
303.18
303.031
302.891
302.763
302.648
302.55
302.469
302.407
302.366
302.345
300.433
300.438
300.447
300.46
300.477
300.498
300.524
300.552
300.584
300.619
300.657
300.697
300.738
300.781
300.825
300.869
300.914
300.959
301.003
301.048
301.093
301.139
301.185
301.232
301.28
301.33
301.381
301.433
301.487
301.542
301.598
301.654
301.709
301.764
301.818
301.871
301.922
301.972
302.021
302.069
302.116
302.164
302.213
302.263
302.314
302.366
302.421
302.476
302.531
302.587
302.642
302.695
302.746
302.794
302.84
302.884
302.925
302.964
303.004
303.043
303.085
303.128
303.175
303.226
303.281
303.341
303.403
303.469
303.536
303.605
303.673
303.739
303.803
303.865
303.923
303.977
304.029
304.078
304.124
304.169
304.212
304.253
304.291
304.326
304.356
304.379
304.394
304.397
304.386
304.36
304.318
304.258
304.179
304.083
303.972
303.846
303.709
303.563
303.413
303.261
303.111
302.966
302.83
302.704
302.593
302.497
302.418
302.357
302.317
302.296
300.424
300.428
300.437
300.45
300.467
300.487
300.512
300.54
300.571
300.605
300.642
300.681
300.721
300.763
300.806
300.849
300.893
300.936
300.98
301.024
301.068
301.113
301.158
301.204
301.251
301.299
301.349
301.4
301.453
301.507
301.561
301.615
301.67
301.723
301.776
301.827
301.877
301.926
301.974
302.021
302.067
302.114
302.162
302.21
302.26
302.312
302.365
302.418
302.473
302.527
302.58
302.632
302.682
302.729
302.774
302.817
302.857
302.896
302.934
302.973
303.013
303.056
303.102
303.152
303.206
303.264
303.325
303.389
303.455
303.521
303.587
303.652
303.715
303.775
303.831
303.885
303.935
303.983
304.028
304.072
304.114
304.154
304.191
304.225
304.254
304.277
304.29
304.293
304.282
304.257
304.215
304.157
304.08
303.987
303.878
303.755
303.622
303.48
303.333
303.185
303.039
302.898
302.766
302.644
302.535
302.441
302.364
302.306
302.266
302.246
300.414
300.418
300.427
300.439
300.456
300.476
300.5
300.527
300.558
300.591
300.627
300.665
300.704
300.745
300.786
300.828
300.871
300.914
300.956
300.999
301.042
301.086
301.13
301.175
301.221
301.268
301.316
301.366
301.418
301.47
301.523
301.576
301.629
301.681
301.732
301.782
301.831
301.879
301.925
301.971
302.017
302.063
302.109
302.156
302.205
302.256
302.307
302.359
302.412
302.465
302.517
302.568
302.616
302.663
302.706
302.748
302.787
302.825
302.863
302.901
302.94
302.982
303.027
303.076
303.128
303.184
303.244
303.306
303.37
303.435
303.5
303.563
303.624
303.682
303.737
303.789
303.839
303.885
303.93
303.972
304.013
304.052
304.088
304.121
304.149
304.171
304.184
304.186
304.176
304.151
304.11
304.053
303.978
303.887
303.781
303.662
303.532
303.394
303.252
303.108
302.966
302.829
302.7
302.581
302.475
302.384
302.309
302.252
302.213
302.194
300.404
300.408
300.416
300.429
300.445
300.464
300.488
300.514
300.544
300.576
300.611
300.648
300.686
300.726
300.766
300.807
300.849
300.89
300.932
300.974
301.016
301.058
301.101
301.145
301.189
301.235
301.283
301.331
301.381
301.432
301.484
301.535
301.587
301.638
301.688
301.737
301.784
301.831
301.876
301.921
301.965
302.01
302.055
302.101
302.149
302.198
302.248
302.299
302.35
302.402
302.452
302.502
302.549
302.594
302.637
302.677
302.715
302.752
302.789
302.826
302.865
302.906
302.95
302.997
303.048
303.103
303.161
303.222
303.284
303.347
303.41
303.471
303.53
303.587
303.641
303.692
303.74
303.785
303.828
303.87
303.909
303.947
303.983
304.014
304.042
304.062
304.075
304.077
304.067
304.042
304.003
303.947
303.874
303.786
303.683
303.567
303.441
303.307
303.168
303.028
302.89
302.757
302.632
302.516
302.413
302.325
302.252
302.197
302.159
302.14
300.394
300.398
300.406
300.417
300.433
300.452
300.475
300.501
300.529
300.561
300.595
300.63
300.668
300.706
300.746
300.786
300.826
300.866
300.907
300.947
300.988
301.029
301.071
301.114
301.157
301.202
301.248
301.296
301.344
301.393
301.444
301.494
301.544
301.593
301.642
301.689
301.736
301.781
301.825
301.869
301.912
301.955
301.999
302.045
302.091
302.138
302.187
302.237
302.287
302.337
302.386
302.434
302.48
302.524
302.565
302.604
302.642
302.678
302.714
302.75
302.788
302.827
302.87
302.916
302.966
303.019
303.076
303.135
303.195
303.256
303.317
303.377
303.435
303.49
303.542
303.592
303.638
303.682
303.724
303.765
303.803
303.84
303.874
303.905
303.931
303.951
303.963
303.965
303.955
303.931
303.892
303.838
303.767
303.682
303.582
303.469
303.347
303.217
303.082
302.947
302.813
302.683
302.562
302.45
302.35
302.264
302.193
302.14
302.103
302.085
300.383
300.387
300.395
300.406
300.421
300.44
300.462
300.487
300.515
300.545
300.578
300.613
300.649
300.686
300.724
300.763
300.802
300.842
300.881
300.92
300.96
301
301.041
301.082
301.124
301.168
301.213
301.259
301.306
301.354
301.402
301.451
301.5
301.548
301.595
301.641
301.686
301.73
301.773
301.815
301.857
301.9
301.943
301.986
302.031
302.078
302.125
302.173
302.222
302.27
302.318
302.364
302.409
302.451
302.492
302.53
302.566
302.602
302.637
302.672
302.709
302.747
302.789
302.834
302.882
302.934
302.988
303.046
303.104
303.164
303.223
303.281
303.337
303.39
303.441
303.489
303.534
303.577
303.618
303.657
303.695
303.73
303.763
303.793
303.819
303.838
303.849
303.851
303.841
303.818
303.78
303.727
303.658
303.575
303.478
303.369
303.25
303.125
302.994
302.863
302.733
302.608
302.49
302.381
302.285
302.201
302.133
302.081
302.045
302.028
300.372
300.376
300.383
300.394
300.409
300.427
300.448
300.473
300.5
300.529
300.561
300.595
300.63
300.666
300.703
300.74
300.778
300.816
300.855
300.893
300.931
300.97
301.01
301.05
301.091
301.133
301.177
301.221
301.267
301.313
301.36
301.408
301.455
301.501
301.547
301.592
301.636
301.678
301.72
301.761
301.802
301.843
301.884
301.927
301.971
302.015
302.061
302.108
302.155
302.202
302.248
302.293
302.337
302.378
302.417
302.454
302.489
302.524
302.558
302.592
302.628
302.665
302.706
302.749
302.796
302.846
302.899
302.954
303.011
303.069
303.126
303.182
303.236
303.288
303.338
303.384
303.428
303.47
303.509
303.547
303.584
303.618
303.65
303.679
303.703
303.722
303.733
303.734
303.724
303.702
303.665
303.613
303.547
303.467
303.373
303.267
303.152
303.03
302.905
302.777
302.652
302.531
302.416
302.311
302.218
302.137
302.071
302.02
301.986
301.969
300.361
300.364
300.372
300.382
300.396
300.414
300.434
300.458
300.484
300.513
300.543
300.576
300.61
300.645
300.681
300.717
300.754
300.791
300.828
300.865
300.902
300.94
300.978
301.017
301.057
301.097
301.14
301.183
301.227
301.272
301.318
301.363
301.409
301.454
301.498
301.542
301.584
301.625
301.666
301.705
301.745
301.785
301.825
301.866
301.908
301.952
301.996
302.041
302.087
302.132
302.177
302.221
302.263
302.303
302.34
302.376
302.411
302.444
302.477
302.51
302.545
302.581
302.62
302.663
302.708
302.757
302.808
302.861
302.916
302.972
303.027
303.081
303.134
303.184
303.232
303.277
303.32
303.36
303.398
303.435
303.47
303.503
303.534
303.562
303.586
303.603
303.614
303.615
303.605
303.583
303.548
303.498
303.434
303.356
303.265
303.163
303.052
302.934
302.813
302.69
302.569
302.451
302.341
302.24
302.149
302.071
302.007
301.958
301.925
301.909
300.349
300.353
300.36
300.37
300.384
300.4
300.42
300.443
300.468
300.496
300.526
300.557
300.59
300.624
300.658
300.693
300.729
300.764
300.8
300.836
300.872
300.908
300.945
300.983
301.022
301.061
301.102
301.143
301.186
301.23
301.274
301.318
301.362
301.406
301.448
301.49
301.531
301.571
301.61
301.649
301.687
301.725
301.764
301.804
301.845
301.887
301.93
301.974
302.018
302.061
302.105
302.147
302.187
302.226
302.262
302.297
302.331
302.363
302.395
302.427
302.46
302.496
302.534
302.574
302.618
302.665
302.715
302.766
302.819
302.873
302.926
302.979
303.03
303.078
303.124
303.168
303.209
303.248
303.285
303.321
303.354
303.387
303.416
303.443
303.466
303.483
303.493
303.494
303.484
303.463
303.428
303.38
303.318
303.243
303.155
303.057
302.95
302.836
302.719
302.601
302.484
302.371
302.264
302.166
302.079
302.004
301.942
301.895
301.863
301.847
300.337
300.341
300.347
300.357
300.37
300.387
300.406
300.428
300.452
300.479
300.507
300.538
300.569
300.602
300.635
300.669
300.703
300.738
300.772
300.807
300.842
300.877
300.912
300.949
300.986
301.024
301.063
301.103
301.145
301.187
301.229
301.272
301.314
301.356
301.398
301.438
301.477
301.516
301.554
301.591
301.628
301.665
301.703
301.741
301.78
301.821
301.862
301.904
301.947
301.989
302.031
302.071
302.11
302.148
302.183
302.217
302.249
302.28
302.311
302.342
302.374
302.408
302.445
302.484
302.527
302.572
302.62
302.669
302.721
302.772
302.824
302.874
302.923
302.97
303.014
303.056
303.096
303.134
303.17
303.204
303.237
303.267
303.296
303.322
303.344
303.36
303.369
303.37
303.361
303.34
303.307
303.26
303.201
303.128
303.044
302.949
302.846
302.737
302.624
302.51
302.397
302.288
302.186
302.091
302.007
301.935
301.875
301.83
301.799
301.784
300.325
300.328
300.335
300.344
300.357
300.373
300.391
300.412
300.436
300.461
300.489
300.518
300.548
300.58
300.612
300.644
300.677
300.71
300.744
300.777
300.81
300.844
300.879
300.914
300.949
300.986
301.024
301.063
301.102
301.143
301.184
301.225
301.266
301.306
301.346
301.385
301.423
301.46
301.496
301.532
301.568
301.603
301.64
301.677
301.715
301.754
301.793
301.834
301.875
301.915
301.956
301.995
302.032
302.068
302.102
302.134
302.165
302.196
302.225
302.255
302.287
302.319
302.355
302.393
302.433
302.477
302.523
302.571
302.62
302.67
302.719
302.768
302.815
302.86
302.903
302.943
302.981
303.018
303.052
303.085
303.117
303.146
303.174
303.199
303.219
303.235
303.244
303.245
303.236
303.215
303.183
303.139
303.081
303.011
302.93
302.839
302.74
302.635
302.526
302.417
302.308
302.204
302.105
302.015
301.934
301.864
301.807
301.763
301.734
301.719
300.313
300.316
300.322
300.331
300.343
300.358
300.376
300.396
300.419
300.443
300.47
300.498
300.527
300.557
300.588
300.619
300.651
300.683
300.715
300.747
300.779
300.811
300.844
300.878
300.912
300.948
300.984
301.021
301.059
301.098
301.137
301.177
301.216
301.255
301.293
301.331
301.367
301.403
301.438
301.472
301.506
301.541
301.576
301.611
301.648
301.685
301.723
301.762
301.801
301.841
301.879
301.917
301.953
301.987
302.02
302.051
302.081
302.11
302.138
302.167
302.197
302.229
302.263
302.299
302.338
302.38
302.424
302.47
302.518
302.565
302.613
302.66
302.705
302.748
302.789
302.828
302.865
302.9
302.933
302.964
302.995
303.023
303.05
303.073
303.093
303.108
303.116
303.117
303.108
303.089
303.058
303.015
302.96
302.893
302.815
302.728
302.633
302.532
302.428
302.322
302.219
302.118
302.024
301.937
301.859
301.792
301.738
301.696
301.667
301.653
300.3
300.303
300.309
300.318
300.329
300.344
300.361
300.38
300.402
300.425
300.45
300.477
300.505
300.534
300.564
300.594
300.624
300.654
300.685
300.716
300.747
300.778
300.809
300.842
300.875
300.909
300.943
300.979
301.016
301.053
301.09
301.128
301.166
301.203
301.24
301.275
301.31
301.345
301.378
301.411
301.444
301.477
301.511
301.545
301.58
301.616
301.652
301.689
301.727
301.764
301.801
301.837
301.872
301.905
301.936
301.966
301.995
302.023
302.05
302.078
302.107
302.137
302.17
302.205
302.242
302.282
302.324
302.368
302.414
302.459
302.505
302.55
302.593
302.634
302.674
302.711
302.746
302.78
302.811
302.842
302.871
302.898
302.923
302.946
302.965
302.979
302.987
302.988
302.979
302.96
302.931
302.89
302.837
302.773
302.698
302.615
302.523
302.427
302.327
302.227
302.127
302.031
301.941
301.857
301.783
301.719
301.667
301.627
301.6
301.586
300.287
300.29
300.296
300.304
300.315
300.329
300.345
300.364
300.384
300.407
300.431
300.456
300.483
300.511
300.539
300.568
300.597
300.626
300.655
300.684
300.714
300.744
300.774
300.805
300.837
300.869
300.902
300.936
300.971
301.007
301.043
301.079
301.115
301.15
301.185
301.22
301.253
301.286
301.318
301.349
301.381
301.413
301.445
301.477
301.511
301.545
301.58
301.616
301.651
301.687
301.722
301.757
301.79
301.821
301.852
301.88
301.907
301.934
301.96
301.987
302.015
302.044
302.075
302.108
302.144
302.182
302.223
302.265
302.308
302.352
302.395
302.438
302.479
302.519
302.557
302.592
302.626
302.658
302.688
302.717
302.745
302.771
302.795
302.817
302.835
302.848
302.856
302.856
302.848
302.83
302.802
302.763
302.712
302.651
302.58
302.5
302.413
302.321
302.225
302.129
302.034
301.943
301.856
301.777
301.706
301.645
301.595
301.556
301.53
301.517
300.274
300.277
300.282
300.29
300.301
300.314
300.329
300.347
300.366
300.388
300.411
300.435
300.461
300.487
300.514
300.541
300.569
300.597
300.625
300.653
300.681
300.709
300.738
300.768
300.798
300.829
300.86
300.893
300.926
300.96
300.994
301.029
301.063
301.097
301.13
301.163
301.195
301.226
301.257
301.287
301.317
301.347
301.378
301.409
301.441
301.473
301.507
301.541
301.575
301.609
301.643
301.675
301.707
301.737
301.766
301.793
301.819
301.844
301.869
301.895
301.921
301.949
301.979
302.011
302.045
302.081
302.12
302.16
302.201
302.243
302.284
302.325
302.364
302.402
302.438
302.472
302.504
302.534
302.563
302.591
302.617
302.642
302.665
302.686
302.703
302.716
302.723
302.723
302.715
302.698
302.671
302.634
302.586
302.527
302.459
302.383
302.301
302.213
302.122
302.031
301.94
301.853
301.771
301.695
301.627
301.569
301.521
301.485
301.46
301.448
300.261
300.263
300.268
300.276
300.286
300.298
300.313
300.33
300.349
300.369
300.391
300.414
300.438
300.463
300.489
300.515
300.541
300.567
300.594
300.621
300.647
300.674
300.702
300.73
300.758
300.788
300.818
300.849
300.881
300.913
300.945
300.978
301.011
301.043
301.075
301.106
301.136
301.166
301.195
301.223
301.252
301.281
301.31
301.339
301.37
301.401
301.432
301.465
301.497
301.53
301.561
301.593
301.623
301.651
301.678
301.704
301.729
301.753
301.777
301.801
301.827
301.853
301.881
301.911
301.944
301.979
302.015
302.053
302.092
302.132
302.171
302.21
302.248
302.283
302.318
302.35
302.38
302.409
302.437
302.463
302.488
302.512
302.534
302.553
302.57
302.582
302.588
302.589
302.581
302.565
302.539
302.503
302.458
302.402
302.338
302.266
302.187
302.104
302.017
301.93
301.845
301.762
301.684
301.612
301.547
301.492
301.447
301.412
301.389
301.377
300.247
300.249
300.254
300.261
300.271
300.283
300.297
300.313
300.33
300.35
300.37
300.392
300.415
300.439
300.463
300.488
300.513
300.538
300.563
300.588
300.613
300.639
300.665
300.692
300.719
300.746
300.775
300.804
300.834
300.865
300.896
300.927
300.958
300.988
301.018
301.048
301.076
301.104
301.132
301.159
301.186
301.213
301.241
301.269
301.298
301.327
301.357
301.388
301.419
301.449
301.479
301.509
301.537
301.564
301.59
301.615
301.638
301.661
301.684
301.707
301.731
301.756
301.782
301.811
301.842
301.875
301.909
301.946
301.983
302.02
302.057
302.094
302.129
302.163
302.196
302.226
302.255
302.283
302.309
302.334
302.358
302.38
302.401
302.419
302.434
302.446
302.452
302.452
302.445
302.43
302.405
302.372
302.328
302.276
302.215
302.146
302.072
301.993
301.912
301.829
301.748
301.669
301.595
301.527
301.467
301.414
301.371
301.338
301.316
301.305
300.233
300.235
300.24
300.247
300.256
300.267
300.28
300.295
300.312
300.33
300.35
300.37
300.392
300.414
300.437
300.46
300.484
300.508
300.531
300.555
300.579
300.603
300.628
300.653
300.678
300.705
300.732
300.759
300.788
300.816
300.845
300.875
300.904
300.933
300.961
300.989
301.016
301.042
301.068
301.094
301.12
301.145
301.171
301.198
301.225
301.253
301.281
301.31
301.339
301.368
301.397
301.424
301.451
301.477
301.501
301.524
301.547
301.568
301.59
301.611
301.634
301.657
301.683
301.71
301.739
301.77
301.802
301.837
301.871
301.907
301.942
301.977
302.01
302.042
302.073
302.102
302.129
302.155
302.179
302.203
302.225
302.246
302.266
302.283
302.298
302.309
302.315
302.315
302.308
302.293
302.27
302.238
302.198
302.148
302.09
302.026
301.956
301.881
301.804
301.727
301.65
301.576
301.506
301.442
301.385
301.335
301.295
301.264
301.243
301.232
300.219
300.221
300.226
300.232
300.241
300.251
300.263
300.277
300.293
300.31
300.329
300.348
300.368
300.389
300.411
300.433
300.455
300.477
300.499
300.522
300.544
300.567
300.59
300.614
300.638
300.662
300.688
300.714
300.74
300.767
300.795
300.822
300.85
300.877
300.903
300.929
300.955
300.98
301.004
301.028
301.052
301.077
301.101
301.126
301.151
301.178
301.204
301.231
301.259
301.286
301.313
301.339
301.364
301.388
301.411
301.433
301.454
301.474
301.494
301.514
301.536
301.558
301.582
301.607
301.634
301.664
301.694
301.726
301.759
301.792
301.825
301.858
301.889
301.919
301.948
301.975
302.001
302.025
302.049
302.071
302.092
302.112
302.13
302.146
302.16
302.17
302.176
302.176
302.169
302.156
302.134
302.104
302.066
302.019
301.965
301.904
301.838
301.768
301.696
301.623
301.551
301.481
301.416
301.355
301.302
301.255
301.217
301.188
301.168
301.158
300.513
300.519
300.53
300.546
300.567
300.594
300.625
300.661
300.701
300.744
300.791
300.841
300.892
300.945
300.999
301.054
301.109
301.163
301.218
301.272
301.326
301.381
301.437
301.493
301.551
301.611
301.674
301.738
301.804
301.871
301.94
302.009
302.077
302.145
302.211
302.275
302.337
302.397
302.456
302.513
302.57
302.627
302.685
302.745
302.807
302.871
302.938
303.006
303.075
303.144
303.212
303.278
303.341
303.4
303.455
303.507
303.555
303.601
303.646
303.692
303.74
303.791
303.847
303.908
303.975
304.048
304.126
304.208
304.293
304.379
304.464
304.547
304.627
304.702
304.773
304.839
304.902
304.96
305.017
305.071
305.124
305.176
305.225
305.272
305.313
305.346
305.369
305.378
305.37
305.342
305.292
305.219
305.122
305.002
304.861
304.701
304.526
304.341
304.148
303.954
303.763
303.579
303.405
303.246
303.105
302.983
302.883
302.807
302.756
302.73
300.508
300.513
300.524
300.54
300.562
300.588
300.619
300.654
300.693
300.736
300.782
300.831
300.882
300.934
300.987
301.041
301.095
301.149
301.203
301.257
301.31
301.365
301.419
301.475
301.533
301.592
301.654
301.717
301.782
301.849
301.916
301.984
302.052
302.119
302.184
302.247
302.309
302.368
302.426
302.482
302.539
302.595
302.653
302.712
302.773
302.837
302.902
302.969
303.038
303.106
303.173
303.238
303.3
303.358
303.413
303.464
303.512
303.558
303.602
303.648
303.695
303.746
303.801
303.862
303.928
304
304.077
304.158
304.241
304.326
304.41
304.491
304.57
304.644
304.714
304.78
304.841
304.9
304.955
305.009
305.061
305.112
305.161
305.206
305.246
305.279
305.301
305.309
305.301
305.273
305.224
305.152
305.056
304.938
304.799
304.642
304.47
304.287
304.098
303.907
303.719
303.537
303.367
303.21
303.071
302.951
302.853
302.778
302.728
302.702
300.503
300.508
300.519
300.534
300.555
300.581
300.611
300.646
300.685
300.727
300.773
300.821
300.871
300.922
300.975
301.028
301.081
301.134
301.187
301.241
301.294
301.347
301.401
301.457
301.513
301.572
301.632
301.695
301.759
301.825
301.891
301.958
302.025
302.091
302.155
302.218
302.278
302.337
302.394
302.45
302.506
302.561
302.618
302.677
302.737
302.8
302.865
302.931
302.998
303.065
303.131
303.195
303.257
303.314
303.368
303.419
303.466
303.511
303.556
303.601
303.648
303.698
303.753
303.812
303.878
303.949
304.025
304.104
304.186
304.269
304.352
304.433
304.51
304.583
304.652
304.717
304.778
304.835
304.89
304.943
304.995
305.045
305.093
305.137
305.176
305.208
305.229
305.237
305.229
305.201
305.152
305.081
304.986
304.87
304.733
304.579
304.41
304.23
304.044
303.857
303.672
303.494
303.326
303.172
303.035
302.917
302.821
302.747
302.697
302.672
300.497
300.502
300.512
300.528
300.549
300.574
300.604
300.638
300.676
300.718
300.762
300.81
300.859
300.91
300.961
301.014
301.066
301.119
301.171
301.223
301.276
301.329
301.382
301.437
301.493
301.55
301.61
301.672
301.735
301.8
301.865
301.931
301.997
302.062
302.125
302.187
302.247
302.304
302.361
302.416
302.471
302.526
302.582
302.64
302.7
302.761
302.825
302.89
302.956
303.022
303.088
303.151
303.211
303.268
303.321
303.371
303.418
303.462
303.506
303.551