/*--------------------------------*- C++ -*----------------------------------*\
| =========                 |                                                 |
| \\      /  F ield         | OpenFOAM: The Open Source CFD Toolbox           |
|  \\    /   O peration     | Version:  5.0                                   |
|   \\  /    A nd           | Web:      www.OpenFOAM.org                      |
|    \\/     M anipulation  |                                                 |
\*---------------------------------------------------------------------------*/
FoamFile
{
    version     2.0;
    format      ascii;
    class       volScalarField;
    location    "50";
    object      nut;
}
// * * * * * * * * * * * * * * * * * * * * * * * * * * * * * * * * * * * * * //

dimensions      [0 2 -1 0 0 0 0];

internalField   nonuniform List<scalar> 
11644
(
0.000125383
3.97522e-06
3.97482e-06
3.97482e-06
3.97482e-06
3.97481e-06
3.97482e-06
3.97476e-06
3.97471e-06
3.97475e-06
3.97471e-06
3.97531e-06
3.97512e-06
3.97508e-06
3.97377e-06
3.97347e-06
3.9752e-06
3.97622e-06
3.97445e-06
3.97208e-06
3.9725e-06
3.97593e-06
3.97554e-06
3.97493e-06
3.97424e-06
3.97455e-06
3.97427e-06
3.97407e-06
3.97433e-06
3.9748e-06
3.97497e-06
3.9748e-06
3.97477e-06
3.97484e-06
3.97484e-06
3.97482e-06
3.97482e-06
3.97482e-06
3.9753e-06
0.000125382
0.000125082
3.93537e-06
3.93358e-06
3.93358e-06
3.93358e-06
3.93359e-06
3.93358e-06
3.93375e-06
3.93373e-06
3.93366e-06
3.93389e-06
3.93326e-06
3.93249e-06
3.9327e-06
3.9349e-06
3.93539e-06
3.9331e-06
3.93092e-06
3.93495e-06
3.93781e-06
3.93688e-06
3.93151e-06
3.93354e-06
3.93353e-06
3.93481e-06
3.93478e-06
3.93516e-06
3.93578e-06
3.93468e-06
3.93361e-06
3.93323e-06
3.93355e-06
3.93386e-06
3.93365e-06
3.93361e-06
3.93361e-06
3.9336e-06
3.9336e-06
3.93516e-06
0.000125089
0.000124779
3.89989e-06
3.897e-06
3.897e-06
3.89701e-06
3.89703e-06
3.897e-06
3.89689e-06
3.89703e-06
3.89689e-06
3.89725e-06
3.89717e-06
3.8978e-06
3.89701e-06
3.89597e-06
3.89544e-06
3.89715e-06
3.8998e-06
3.89569e-06
3.89245e-06
3.89341e-06
3.89938e-06
3.89767e-06
3.89826e-06
3.89616e-06
3.8961e-06
3.89598e-06
3.89571e-06
3.89793e-06
3.89819e-06
3.89774e-06
3.89761e-06
3.89705e-06
3.89708e-06
3.89711e-06
3.89709e-06
3.89708e-06
3.89707e-06
3.90017e-06
0.000124794
0.000124466
3.86834e-06
3.86421e-06
3.86421e-06
3.86421e-06
3.86417e-06
3.86419e-06
3.86403e-06
3.86422e-06
3.86463e-06
3.86338e-06
3.86306e-06
3.86343e-06
3.86524e-06
3.86448e-06
3.86577e-06
3.86406e-06
3.86085e-06
3.86538e-06
3.87131e-06
3.87076e-06
3.86311e-06
3.86436e-06
3.86436e-06
3.86768e-06
3.86681e-06
3.86751e-06
3.86667e-06
3.86275e-06
3.86384e-06
3.86495e-06
3.86454e-06
3.86454e-06
3.86465e-06
3.86457e-06
3.86447e-06
3.86443e-06
3.86439e-06
3.86823e-06
0.000124483
0.000124158
3.84036e-06
3.83455e-06
3.83455e-06
3.83454e-06
3.83455e-06
3.83457e-06
3.83492e-06
3.83424e-06
3.83388e-06
3.83413e-06
3.83363e-06
3.83373e-06
3.83253e-06
3.83456e-06
3.83223e-06
3.83385e-06
3.83817e-06
3.8355e-06
3.82629e-06
3.82674e-06
3.83643e-06
3.83739e-06
3.83649e-06
3.83144e-06
3.83348e-06
3.8347e-06
3.83489e-06
3.83821e-06
3.83547e-06
3.83491e-06
3.83528e-06
3.83563e-06
3.83524e-06
3.83508e-06
3.835e-06
3.83493e-06
3.83489e-06
3.84073e-06
0.000124164
0.000123852
3.8159e-06
3.80755e-06
3.80757e-06
3.80759e-06
3.8076e-06
3.80753e-06
3.80728e-06
3.80782e-06
3.80734e-06
3.80867e-06
3.81109e-06
3.81067e-06
3.80929e-06
3.80883e-06
3.81081e-06
3.80873e-06
3.80512e-06
3.80413e-06
3.81771e-06
3.81846e-06
3.80835e-06
3.80372e-06
3.80712e-06
3.8148e-06
3.81248e-06
3.806e-06
3.80902e-06
3.80889e-06
3.81086e-06
3.80952e-06
3.80926e-06
3.80833e-06
3.80832e-06
3.80821e-06
3.80814e-06
3.80806e-06
3.80798e-06
3.81629e-06
0.000123844
0.000123524
3.79225e-06
3.7829e-06
3.78293e-06
3.78297e-06
3.78303e-06
3.78315e-06
3.78297e-06
3.78326e-06
3.78534e-06
3.78448e-06
3.78146e-06
3.78052e-06
3.78352e-06
3.78331e-06
3.78545e-06
3.79509e-06
3.78803e-06
3.80644e-06
3.79576e-06
3.78828e-06
3.78579e-06
3.80105e-06
3.79287e-06
3.78064e-06
3.78196e-06
3.79153e-06
3.78672e-06
3.78571e-06
3.78474e-06
3.78522e-06
3.78385e-06
3.78397e-06
3.78394e-06
3.78382e-06
3.78356e-06
3.7834e-06
3.78328e-06
3.79231e-06
0.000123509
0.000123172
3.77068e-06
3.76031e-06
3.76038e-06
3.76047e-06
3.76063e-06
3.7609e-06
3.76208e-06
3.76127e-06
3.75959e-06
3.75875e-06
3.76072e-06
3.76859e-06
3.77599e-06
3.77486e-06
3.77698e-06
3.77977e-06
3.77746e-06
3.80055e-06
3.78205e-06
3.77877e-06
3.77467e-06
3.79033e-06
3.77345e-06
3.76925e-06
3.77431e-06
3.77385e-06
3.76186e-06
3.76013e-06
3.76087e-06
3.76226e-06
3.76284e-06
3.76252e-06
3.76161e-06
3.76098e-06
3.76078e-06
3.76057e-06
3.76044e-06
3.7714e-06
0.000123171
0.00012281
3.7549e-06
3.73953e-06
3.73969e-06
3.73991e-06
3.74019e-06
3.74038e-06
3.73987e-06
3.74212e-06
3.74243e-06
3.74548e-06
3.75281e-06
3.74731e-06
3.76639e-06
3.76009e-06
3.76894e-06
3.77744e-06
3.78243e-06
3.81216e-06
3.81605e-06
3.81455e-06
3.80143e-06
3.80429e-06
3.77702e-06
3.75979e-06
3.76165e-06
3.75452e-06
3.75325e-06
3.74988e-06
3.74489e-06
3.74079e-06
3.74138e-06
3.74011e-06
3.73987e-06
3.73979e-06
3.73952e-06
3.73934e-06
3.73915e-06
3.7538e-06
0.000122856
0.000122427
3.73643e-06
3.72034e-06
3.7206e-06
3.72096e-06
3.7215e-06
3.72224e-06
3.72316e-06
3.72287e-06
3.72741e-06
3.73332e-06
3.72679e-06
3.73309e-06
3.74781e-06
3.76073e-06
3.76781e-06
3.78878e-06
3.84319e-06
3.9438e-06
4.0724e-06
4.1355e-06
4.0622e-06
3.94008e-06
3.83893e-06
3.78861e-06
3.76189e-06
3.74683e-06
3.72727e-06
3.73138e-06
3.72955e-06
3.72609e-06
3.72152e-06
3.72109e-06
3.72081e-06
3.72023e-06
3.71978e-06
3.71948e-06
3.71927e-06
3.7365e-06
0.000122552
0.00012204
3.71692e-06
3.70239e-06
3.70279e-06
3.70331e-06
3.70395e-06
3.70524e-06
3.70728e-06
3.70879e-06
3.71159e-06
3.70635e-06
3.71139e-06
3.71838e-06
3.73743e-06
3.76158e-06
3.78693e-06
3.86588e-06
4.11538e-06
4.91519e-06
7.20225e-06
9.2021e-06
7.16097e-06
5.03954e-06
4.19869e-06
3.89894e-06
3.78754e-06
3.75383e-06
3.71716e-06
3.70087e-06
3.70685e-06
3.70783e-06
3.70541e-06
3.70455e-06
3.70269e-06
3.70168e-06
3.70121e-06
3.70086e-06
3.70068e-06
3.71706e-06
0.000122248
0.000121689
3.70636e-06
3.68532e-06
3.686e-06
3.68683e-06
3.68808e-06
3.68891e-06
3.69044e-06
3.69646e-06
3.69459e-06
3.69849e-06
3.71001e-06
3.73681e-06
3.73858e-06
3.77326e-06
3.83569e-06
4.03912e-06
4.94484e-06
1.29127e-05
1.3662e-05
5.54907e-06
4.164e-06
3.86502e-06
3.76689e-06
3.74037e-06
3.71093e-06
3.6871e-06
3.6862e-06
3.68891e-06
3.68494e-06
3.68429e-06
3.68412e-06
3.68371e-06
3.68344e-06
3.68318e-06
3.70461e-06
0.000121947
0.000121372
3.70015e-06
3.66909e-06
3.66992e-06
3.67105e-06
3.67256e-06
3.67532e-06
3.67792e-06
3.67867e-06
3.6845e-06
3.70195e-06
3.72894e-06
3.73266e-06
3.74576e-06
3.80163e-06
3.90725e-06
4.27814e-06
6.4729e-06
2.27113e-05
0.00016907
7.37162e-06
4.50758e-06
3.95361e-06
3.78498e-06
3.72204e-06
3.71276e-06
3.69632e-06
3.67727e-06
3.67097e-06
3.67025e-06
3.66947e-06
3.66821e-06
3.66754e-06
3.6671e-06
3.66687e-06
3.70247e-06
0.000121625
0.000121098
3.67706e-06
3.65356e-06
3.65445e-06
3.6558e-06
3.65774e-06
3.66081e-06
3.66605e-06
3.67019e-06
3.68496e-06
3.69996e-06
3.69005e-06
3.70101e-06
3.75827e-06
3.83915e-06
3.9865e-06
4.53848e-06
8.47935e-06
0.00460358
5.08841e-05
7.25564e-06
4.67497e-06
4.01508e-06
3.81878e-06
3.69744e-06
3.66953e-06
3.67419e-06
3.66665e-06
3.65716e-06
3.65752e-06
3.65439e-06
3.65311e-06
3.65239e-06
3.65192e-06
3.6518e-06
3.69299e-06
0.00012126
0.000120903
3.64324e-06
3.6383e-06
3.63961e-06
3.64128e-06
3.64382e-06
3.64607e-06
3.65004e-06
3.6626e-06
3.67001e-06
3.66723e-06
3.68937e-06
3.76368e-06
3.78328e-06
3.88764e-06
4.076e-06
4.93025e-06
1.38961e-05
0.00825936
0.00383342
0.00222701
0.00385489
1.31748e-05
6.34928e-06
4.67906e-06
4.04561e-06
3.86595e-06
3.73353e-06
3.66823e-06
3.6413e-06
3.64998e-06
3.64767e-06
3.63896e-06
3.63866e-06
3.63846e-06
3.63804e-06
3.63774e-06
3.63746e-06
3.67068e-06
0.000120873
0.000120768
3.65466e-06
3.62386e-06
3.62535e-06
3.62727e-06
3.62996e-06
3.63534e-06
3.64046e-06
3.64809e-06
3.65554e-06
3.68726e-06
3.74997e-06
3.79233e-06
3.82801e-06
3.98677e-06
5.63851e-06
0.00022948
0.00847104
0.00138356
0.00167106
0.000727127
1.68538e-05
8.3019e-06
5.89889e-06
4.82247e-06
4.11814e-06
3.8917e-06
3.72864e-06
3.69589e-06
3.65983e-06
3.62911e-06
3.63117e-06
3.62943e-06
3.62783e-06
3.62605e-06
3.62502e-06
3.62436e-06
3.62379e-06
3.65761e-06
0.000120475
0.000120632
3.72245e-06
3.61122e-06
3.61185e-06
3.61372e-06
3.6166e-06
3.62141e-06
3.63108e-06
3.63672e-06
3.66082e-06
3.70443e-06
3.71481e-06
3.77699e-06
3.95938e-06
4.18052e-06
6.0995e-05
0.00322674
0.00673596
0.000427977
0.000133867
3.69592e-05
1.54833e-05
8.35163e-06
6.24221e-06
6.00996e-06
4.28457e-06
3.92573e-06
3.66669e-06
3.64424e-06
3.65074e-06
3.63392e-06
3.61644e-06
3.61996e-06
3.61566e-06
3.61358e-06
3.61256e-06
3.61175e-06
3.61115e-06
3.6653e-06
0.000120064
0.000120468
3.79547e-06
3.59989e-06
3.59918e-06
3.60121e-06
3.6043e-06
3.6069e-06
3.61316e-06
3.63092e-06
3.65405e-06
3.64909e-06
3.6997e-06
3.85666e-06
4.01671e-06
4.27227e-06
8.92673e-06
0.00160097
0.0108727
0.00481422
0.00317848
0.00343763
0.00369599
0.00372557
0.00174713
0.000741759
1.16772e-05
6.01386e-06
3.87108e-06
3.62761e-06
3.60236e-06
3.62294e-06
3.61616e-06
3.60364e-06
3.60189e-06
3.60172e-06
3.60037e-06
3.59956e-06
3.59912e-06
3.65858e-06
0.000119679
0.000120249
3.84012e-06
3.58879e-06
3.58709e-06
3.58902e-06
3.59226e-06
3.59898e-06
3.60405e-06
3.61936e-06
3.62304e-06
3.67141e-06
3.77919e-06
3.84253e-06
3.96999e-06
4.32679e-06
4.98538e-06
3.25358e-05
0.00333857
0.0106224
0.0115568
0.0106642
0.0087107
0.00507868
0.00239366
0.00280986
0.0010217
9.67085e-05
9.54245e-06
3.91207e-06
3.62613e-06
3.59475e-06
3.60533e-06
3.59817e-06
3.59526e-06
3.59111e-06
3.5893e-06
3.58773e-06
3.58671e-06
3.61372e-06
0.000119373
0.000119937
3.86541e-06
3.57764e-06
3.57541e-06
3.57686e-06
3.57964e-06
3.58475e-06
3.59764e-06
3.59919e-06
3.63261e-06
3.71602e-06
3.714e-06
3.75501e-06
4.17545e-06
4.21409e-06
4.76189e-06
5.57795e-06
5.7968e-05
0.0009811
0.002834
0.00442004
0.00447665
0.00321075
0.00151786
0.00105843
0.0025665
0.000798086
8.1435e-05
6.94124e-06
3.74349e-06
3.62157e-06
3.5914e-06
3.59375e-06
3.58584e-06
3.5813e-06
3.57811e-06
3.57623e-06
3.57423e-06
3.57163e-06
0.000119169
0.000119527
3.87146e-06
3.5663e-06
3.56402e-06
3.56562e-06
3.5681e-06
3.57021e-06
3.57677e-06
3.59746e-06
3.65194e-06
3.62464e-06
3.66845e-06
3.95978e-06
5.91676e-06
5.27587e-06
5.02713e-06
5.96628e-06
6.33264e-06
1.00632e-05
4.30465e-05
0.000137412
0.000295573
0.00043911
0.000353222
0.000422128
0.00310575
0.0014143
0.000149653
9.42031e-06
3.8005e-06
3.64775e-06
3.60004e-06
3.58232e-06
3.57317e-06
3.57012e-06
3.56691e-06
3.56479e-06
3.56252e-06
3.5788e-06
0.000119067
0.000119042
3.82581e-06
3.55456e-06
3.5529e-06
3.55456e-06
3.55695e-06
3.56302e-06
3.56664e-06
3.59743e-06
3.57158e-06
3.61625e-06
3.92383e-06
6.04219e-06
3.43947e-05
0.00023403
0.000169638
0.000270309
0.000681553
0.00100016
0.000892732
0.000542205
0.000243173
0.000151861
0.000177632
0.000566225
0.00375531
0.00139532
0.000125874
8.00509e-06
3.71177e-06
3.60736e-06
3.60445e-06
3.57342e-06
3.5687e-06
3.56019e-06
3.55684e-06
3.55391e-06
3.55214e-06
3.64191e-06
0.000119034
0.000118516
3.73019e-06
3.54295e-06
3.54236e-06
3.54347e-06
3.5468e-06
3.55221e-06
3.56533e-06
3.55737e-06
3.56828e-06
3.84182e-06
6.53815e-06
3.86365e-05
0.000363777
0.00138236
0.00237121
0.00457258
0.00659422
0.00792394
0.0079004
0.0072184
0.00468075
0.00311553
0.00360251
0.00487308
0.00355581
0.000722594
4.01064e-05
4.75337e-06
3.70073e-06
3.59265e-06
3.58525e-06
3.57506e-06
3.55996e-06
3.55262e-06
3.54687e-06
3.54385e-06
3.54381e-06
3.74748e-06
0.000119006
0.000118005
3.63259e-06
3.53211e-06
3.53246e-06
3.53392e-06
3.53536e-06
3.53742e-06
3.54893e-06
3.54995e-06
3.71913e-06
6.06322e-06
3.9625e-05
0.000297584
0.00131145
0.00210057
0.00341967
0.00608597
0.00780177
0.00877967
0.00879876
0.0079285
0.00596904
0.00529662
0.00513571
0.00459668
0.00195742
0.000183028
1.0161e-05
3.88525e-06
3.73747e-06
3.64481e-06
3.56311e-06
3.56392e-06
3.54531e-06
3.54088e-06
3.53663e-06
3.53417e-06
3.53748e-06
3.87653e-06
0.000118943
0.000117584
3.56594e-06
3.52171e-06
3.523e-06
3.52513e-06
3.52825e-06
3.53572e-06
3.53968e-06
3.61301e-06
4.56099e-06
2.47457e-05
0.000241925
0.0010504
0.00176934
0.00253633
0.00445073
0.006046
0.00694913
0.00765936
0.00782479
0.00734079
0.0057152
0.00522165
0.00455144
0.00254841
0.000628223
3.84107e-05
4.8822e-06
3.67942e-06
3.6278e-06
3.65021e-06
3.59015e-06
3.54282e-06
3.54083e-06
3.53035e-06
3.52662e-06
3.52458e-06
3.53089e-06
3.99338e-06
0.000118787
0.000117322
3.52649e-06
3.51099e-06
3.51378e-06
3.51624e-06
3.52267e-06
3.53122e-06
3.54637e-06
3.66446e-06
6.04654e-06
5.14114e-05
0.000442468
0.00145033
0.00211562
0.00328835
0.00482956
0.00533712
0.00504907
0.00501392
0.0049872
0.00486128
0.00386234
0.00329941
0.0018909
0.000794987
0.000160662
1.5669e-05
4.85606e-06
3.85654e-06
3.58531e-06
3.55305e-06
3.5927e-06
3.5441e-06
3.5306e-06
3.52367e-06
3.5175e-06
3.515e-06
3.52159e-06
4.04086e-06
0.000118477
0.000117219
3.53077e-06
3.50103e-06
3.50482e-06
3.50799e-06
3.51108e-06
3.51836e-06
3.55509e-06
3.63398e-06
6.14406e-06
5.29524e-05
0.000453923
0.00148507
0.00217279
0.00341241
0.00511313
0.00559548
0.00509818
0.00465207
0.00438217
0.00396127
0.00317363
0.00252741
0.00137625
0.000571168
0.000170447
3.9042e-05
1.03516e-05
4.74356e-06
3.78039e-06
3.53667e-06
3.51843e-06
3.54439e-06
3.51399e-06
3.5096e-06
3.5067e-06
3.50502e-06
3.50988e-06
3.96696e-06
0.000118035
0.00011721
3.60278e-06
3.49389e-06
3.49654e-06
3.50046e-06
3.50606e-06
3.51864e-06
3.52931e-06
3.5768e-06
5.2017e-06
3.76977e-05
0.000365485
0.00138974
0.00216683
0.00311964
0.00515214
0.00620078
0.00637589
0.00576533
0.00537336
0.00506627
0.00470609
0.0043908
0.00356101
0.00192036
0.000793285
0.000285459
7.22637e-05
1.42344e-05
4.76079e-06
3.68521e-06
3.49654e-06
3.5074e-06
3.50767e-06
3.49925e-06
3.49687e-06
3.49541e-06
3.49856e-06
3.83779e-06
0.000117458
0.000117222
3.73409e-06
3.48989e-06
3.48879e-06
3.49284e-06
3.50254e-06
3.51561e-06
3.50905e-06
3.59677e-06
4.0867e-06
1.36578e-05
0.000144298
0.000887748
0.00208155
0.00277858
0.00452045
0.006076
0.00688128
0.00724438
0.00739064
0.00731012
0.00701783
0.00678747
0.00665939
0.00608383
0.00382436
0.00139836
0.00049179
9.83224e-05
1.43728e-05
4.40399e-06
3.59303e-06
3.49068e-06
3.5029e-06
3.49541e-06
3.48933e-06
3.4871e-06
3.48866e-06
3.72234e-06
0.000116781
0.000117223
3.88278e-06
3.48626e-06
3.48081e-06
3.48352e-06
3.48798e-06
3.49537e-06
3.5404e-06
3.60957e-06
3.67243e-06
5.97707e-06
4.48569e-05
0.000356242
0.00133399
0.00233109
0.00308173
0.00495936
0.00633609
0.00697319
0.00733878
0.00742028
0.0072628
0.0069902
0.0070266
0.0075495
0.00699738
0.0046808
0.00187267
0.000564217
8.80337e-05
1.04967e-05
3.91714e-06
3.53521e-06
3.49147e-06
3.48439e-06
3.48151e-06
3.47937e-06
3.47887e-06
3.61867e-06
0.000116122
0.000117179
4.00683e-06
3.47999e-06
3.47261e-06
3.47547e-06
3.48119e-06
3.49161e-06
3.54531e-06
3.51977e-06
3.52359e-06
4.19339e-06
1.41128e-05
0.000108878
0.000529894
0.00130166
0.00186659
0.00279181
0.00416918
0.00508289
0.00583824
0.00614145
0.00613269
0.00614193
0.00642312
0.00761008
0.00801623
0.006924
0.00362398
0.0014215
0.00031189
3.4854e-05
5.28645e-06
3.59767e-06
3.48936e-06
3.47912e-06
3.47435e-06
3.47164e-06
3.46912e-06
3.53014e-06
0.000115628
0.00011699
4.06349e-06
3.47077e-06
3.46408e-06
3.46726e-06
3.47618e-06
3.49516e-06
3.47771e-06
3.46656e-06
3.63632e-06
4.33736e-06
1.05434e-05
5.6952e-05
0.000268673
0.000762762
0.00143633
0.00223546
0.00333879
0.00394556
0.00448623
0.00487802
0.00516605
0.00551938
0.00609342
0.00767722
0.0082766
0.00751935
0.00421862
0.00168997
0.000403927
4.72734e-05
6.10775e-06
3.61748e-06
3.50399e-06
3.47947e-06
3.46909e-06
3.4647e-06
3.46014e-06
3.48591e-06
0.000115379
0.000116466
3.96647e-06
3.46048e-06
3.45529e-06
3.4574e-06
3.46042e-06
3.47124e-06
3.44074e-06
3.56576e-06
4.03694e-06
7.30368e-06
2.95625e-05
0.000143462
0.000515837
0.00130944
0.00228468
0.00307796
0.00398301
0.00447903
0.00488817
0.00522715
0.00548287
0.00583938
0.00660775
0.00820291
0.00834211
0.00745229
0.0041004
0.00164333
0.000385866
4.49777e-05
5.97554e-06
3.56979e-06
3.49382e-06
3.47034e-06
3.46339e-06
3.4581e-06
3.45296e-06
3.51133e-06
0.000115325
0.000115663
3.82071e-06
3.4512e-06
3.44759e-06
3.44953e-06
3.45308e-06
3.44016e-06
3.50901e-06
3.88056e-06
7.48961e-06
4.01663e-05
0.000239838
0.00100373
0.00262491
0.00496293
0.00607327
0.0063486
0.00640168
0.00634386
0.00639041
0.00665167
0.0070282
0.00745771
0.00801545
0.00840601
0.00809862
0.006526
0.00321219
0.00124446
0.000248191
2.64224e-05
4.8217e-06
3.5549e-06
3.46524e-06
3.46516e-06
3.45646e-06
3.45085e-06
3.4485e-06
3.60033e-06
0.000115341
0.000114755
3.70014e-06
3.443e-06
3.4421e-06
3.44566e-06
3.45539e-06
3.46179e-06
3.68437e-06
6.41678e-06
3.97221e-05
0.0003019
0.00139399
0.00440188
0.00723897
0.00816354
0.00779087
0.00751975
0.00749406
0.00757038
0.00770326
0.00780352
0.00784883
0.00787404
0.00796643
0.00777543
0.0064065
0.00379043
0.00181469
0.000587404
9.04811e-05
1.02391e-05
3.89094e-06
3.56435e-06
3.47498e-06
3.46266e-06
3.44894e-06
3.44394e-06
3.44568e-06
3.71972e-06
0.000115425
0.000113935
3.59294e-06
3.43532e-06
3.43766e-06
3.44225e-06
3.45027e-06
3.53639e-06
4.72593e-06
2.5341e-05
0.000252493
0.00149647
0.00459061
0.00806622
0.00911697
0.00849193
0.00765156
0.00738416
0.00735436
0.00741305
0.0074576
0.00741023
0.00722963
0.00690585
0.0062434
0.00497708
0.00342187
0.00188559
0.000821617
0.000213497
2.92557e-05
5.23649e-06
3.53577e-06
3.50613e-06
3.49854e-06
3.44743e-06
3.44148e-06
3.43748e-06
3.44211e-06
3.85655e-06
0.000115481
0.000113392
3.51368e-06
3.42792e-06
3.433e-06
3.4399e-06
3.45853e-06
3.64864e-06
7.9058e-06
7.74876e-05
0.000696189
0.00291741
0.00709011
0.00926381
0.00946167
0.0080456
0.00692261
0.00653885
0.00635723
0.00622921
0.0060429
0.00569046
0.00522009
0.00462235
0.00385858
0.00282944
0.00168172
0.000836892
0.0003273
7.76591e-05
1.28049e-05
4.28087e-06
3.49791e-06
3.42298e-06
3.46401e-06
3.44158e-06
3.43402e-06
3.42935e-06
3.4357e-06
3.96831e-06
0.000115477
0.00011317
3.48236e-06
3.42134e-06
3.42837e-06
3.43689e-06
3.4695e-06
3.7042e-06
8.99174e-06
9.34241e-05
0.000814817
0.00326399
0.00769148
0.00950711
0.00950199
0.00787756
0.00682502
0.00637508
0.00610521
0.00590081
0.00567977
0.00536404
0.00496293
0.0044341
0.0037194
0.00277361
0.00163565
0.000811371
0.000317198
8.05096e-05
1.53564e-05
4.93344e-06
3.67154e-06
3.44195e-06
3.4012e-06
3.43923e-06
3.42312e-06
3.42012e-06
3.42686e-06
4.02976e-06
0.000115384
0.000113147
3.50721e-06
3.41619e-06
3.42331e-06
3.43433e-06
3.45077e-06
3.6748e-06
8.43442e-06
8.41219e-05
0.00075032
0.00310491
0.007472
0.00944082
0.00955128
0.00835664
0.0074132
0.00698254
0.00668834
0.00647577
0.00629245
0.00607379
0.00585374
0.00564731
0.00539641
0.00486813
0.00374643
0.00230728
0.00104671
0.000340034
7.21426e-05
1.32453e-05
4.53682e-06
3.57189e-06
3.41026e-06
3.41735e-06
3.41552e-06
3.41339e-06
3.41841e-06
3.96498e-06
0.000114977
0.000113201
3.57801e-06
3.41215e-06
3.41647e-06
3.42646e-06
3.43263e-06
3.59001e-06
5.78466e-06
4.24141e-05
0.000420166
0.00215252
0.00585427
0.00879486
0.00935407
0.00872648
0.00825941
0.00815444
0.00812637
0.00811335
0.00811285
0.00806829
0.00799407
0.00791705
0.00787885
0.0078464
0.00771702
0.00694262
0.00456574
0.00193583
0.00052103
8.9423e-05
1.24942e-05
4.17146e-06
3.49396e-06
3.39708e-06
3.41181e-06
3.40889e-06
3.41172e-06
3.80984e-06
0.000113881
0.000113427
3.67149e-06
3.40751e-06
3.4085e-06
3.41633e-06
3.44707e-06
3.52323e-06
4.09183e-06
1.48299e-05
0.000145197
0.000967223
0.00307945
0.00596783
0.00793762
0.00835126
0.00813375
0.00812063
0.00818762
0.00828151
0.00837211
0.00841558
0.0083955
0.00833354
0.00832257
0.00839806
0.0086397
0.00911206
0.0084825
0.00621517
0.00239629
0.000584941
7.67715e-05
9.0829e-06
3.76344e-06
3.43411e-06
3.41059e-06
3.40544e-06
3.40531e-06
3.68239e-06
0.00011269
0.000113615
3.77757e-06
3.40228e-06
3.40145e-06
3.41024e-06
3.44962e-06
3.42932e-06
3.55332e-06
6.49857e-06
4.49005e-05
0.000338148
0.00134641
0.00301927
0.00452354
0.00594099
0.00652779
0.00684214
0.00710817
0.00734656
0.00755832
0.00773158
0.00785072
0.00792836
0.00802257
0.00817582
0.00850651
0.0092932
0.00981077
0.00898728
0.0060038
0.00222361
0.000412962
3.93785e-05
5.34566e-06
3.50713e-06
3.41661e-06
3.40474e-06
3.39989e-06
3.57794e-06
0.000111756
0.000113654
3.88211e-06
3.3958e-06
3.39267e-06
3.39938e-06
3.40146e-06
3.37201e-06
3.513e-06
4.88174e-06
1.93224e-05
0.000123647
0.000527991
0.00134691
0.00250989
0.00366264
0.00460157
0.00529931
0.00583125
0.00623499
0.00654462
0.00678768
0.00700188
0.00719995
0.00742562
0.00769015
0.00809157
0.00901882
0.0100746
0.00985337
0.00778965
0.00339678
0.000800404
8.43897e-05
7.98483e-06
3.60085e-06
3.42163e-06
3.40499e-06
3.39553e-06
3.50532e-06
0.000111211
0.000113613
3.95078e-06
3.38878e-06
3.38313e-06
3.38924e-06
3.3561e-06
3.42088e-06
3.71396e-06
5.87603e-06
2.35822e-05
0.000127268
0.000494205
0.00124316
0.00245916
0.00365059
0.00468246
0.00546813
0.00605063
0.00648142
0.00679461
0.00702054
0.00721632
0.00738508
0.00756852
0.00780035
0.0081599
0.00890153
0.0100816
0.00998723
0.00811182
0.00358486
0.000860112
9.1297e-05
8.43707e-06
3.63721e-06
3.42329e-06
3.40183e-06
3.39103e-06
3.47722e-06
0.000111031
0.00011334
3.94326e-06
3.38187e-06
3.3763e-06
3.37552e-06
3.38242e-06
3.56056e-06
4.94356e-06
1.79317e-05
0.000101155
0.00044898
0.00134503
0.00277241
0.00451111
0.00579094
0.00673097
0.00747307
0.00803497
0.00842094
0.00859349
0.00864249
0.00860727
0.00847778
0.00835794
0.00835708
0.00850244
0.00898831
0.0100303
0.00986663
0.00781904
0.00335576
0.000761949
7.77729e-05
7.63498e-06
3.58891e-06
3.41795e-06
3.3955e-06
3.3853e-06
3.49966e-06
0.000111031
0.000112292
3.81153e-06
3.37776e-06
3.37548e-06
3.36699e-06
3.46121e-06
4.28777e-06
1.50781e-05
0.000112549
0.000621588
0.00218225
0.00504215
0.00732232
0.00854626
0.00905137
0.00943485
0.00973827
0.00992055
0.00995062
0.00983588
0.00962197
0.00931335
0.00899432
0.00872596
0.00859746
0.00863586
0.00903495
0.00968504
0.0090768
0.00607375
0.00221651
0.000386049
3.5164e-05
5.16999e-06
3.51818e-06
3.40078e-06
3.3892e-06
3.38055e-06
3.56457e-06
0.000111143
0.00011077
3.68183e-06
3.37469e-06
3.37725e-06
3.39781e-06
3.72683e-06
9.53778e-06
8.55813e-05
0.000651828
0.00262774
0.00639415
0.00879654
0.00975665
0.00986379
0.00988661
0.00996907
0.0100193
0.0100035
0.00988057
0.00962334
0.00929605
0.00893036
0.00860143
0.00836938
0.00827387
0.00830895
0.00852687
0.00796752
0.00615554
0.00327819
0.000990499
0.000135216
1.30266e-05
3.9198e-06
3.46946e-06
3.39442e-06
3.38202e-06
3.37648e-06
3.6517e-06
0.000111538
0.000109681
3.57318e-06
3.37415e-06
3.38284e-06
3.45307e-06
5.04755e-06
3.62338e-05
0.000394015
0.00219542
0.00588091
0.00908742
0.0102142
0.0103806
0.00997488
0.00983343
0.00972198
0.0095162
0.00925605
0.00889554
0.00848225
0.00805511
0.00762951
0.00723572
0.00691379
0.00666764
0.00643549
0.00598211
0.00469595
0.00322145
0.00145355
0.000353658
4.32717e-05
6.09101e-06
3.49095e-06
3.39366e-06
3.39793e-06
3.37185e-06
3.3719e-06
3.76837e-06
0.000111856
0.000109107
3.49771e-06
3.36994e-06
3.38634e-06
3.50909e-06
6.55534e-06
6.41693e-05
0.000663483
0.00311291
0.00736201
0.0100295
0.010615
0.0103848
0.00971123
0.00939072
0.00915881
0.00898866
0.0088495
0.00863189
0.00833792
0.00797581
0.00754423
0.00706564
0.00653726
0.00592191
0.00513552
0.00408807
0.00278057
0.00153651
0.000593178
0.000131268
1.86199e-05
4.61883e-06
3.43369e-06
3.33576e-06
3.37582e-06
3.36115e-06
3.36513e-06
3.88826e-06
0.00011195
0.000108947
3.47112e-06
3.36464e-06
3.38716e-06
3.53468e-06
6.74034e-06
6.70471e-05
0.000694859
0.00323276
0.00761147
0.0101767
0.0106417
0.0102198
0.0094394
0.00916599
0.00907213
0.00909957
0.00914791
0.00927222
0.00928169
0.00914454
0.00879204
0.00818588
0.00738629
0.00648661
0.00544651
0.00419069
0.0027433
0.00140698
0.000525834
0.000122707
2.03548e-05
5.15076e-06
3.56214e-06
3.35848e-06
3.33463e-06
3.35245e-06
3.35738e-06
3.95838e-06
0.000111936
0.000108963
3.49951e-06
3.35678e-06
3.37875e-06
3.48589e-06
6.15727e-06
5.66047e-05
0.000611761
0.0030269
0.00734642
0.0100407
0.0105665
0.0101169
0.00937514
0.0091437
0.00909818
0.00927886
0.00966486
0.0101206
0.0105929
0.0110016
0.0111473
0.0110295
0.0104554
0.00947427
0.00815258
0.00653361
0.0045891
0.00266331
0.00114114
0.000326531
6.69833e-05
1.15477e-05
4.14964e-06
3.44175e-06
3.32901e-06
3.34575e-06
3.35161e-06
3.97975e-06
0.000111761
0.000109143
3.57165e-06
3.35506e-06
3.37067e-06
3.43216e-06
4.56691e-06
2.63932e-05
0.000311826
0.00201067
0.0058246
0.00921198
0.0101465
0.00989743
0.00927383
0.00906765
0.00904723
0.00919689
0.00952593
0.00996652
0.0105017
0.0110317
0.0114486
0.0116936
0.0116917
0.0114104
0.0108454
0.010029
0.00886807
0.00694868
0.00410749
0.00149424
0.000383467
5.95003e-05
8.44289e-06
3.71197e-06
3.3747e-06
3.34362e-06
3.34979e-06
3.88249e-06
0.000110967
0.000109751
3.68467e-06
3.35377e-06
3.36172e-06
3.41892e-06
3.77469e-06
1.08944e-05
0.000115084
0.000918463
0.00321433
0.00629171
0.00833465
0.00896783
0.00877154
0.00860764
0.00844969
0.00837501
0.00848348
0.00882153
0.00936487
0.0100124
0.0106746
0.0112324
0.011556
0.01154
0.0113756
0.0110899
0.0107232
0.00989095
0.00816041
0.00484146
0.00175358
0.000333119
3.60248e-05
5.35528e-06
3.45602e-06
3.353e-06
3.35053e-06
3.72608e-06
0.000109297
0.000110274
3.91003e-06
3.35601e-06
3.35543e-06
3.38688e-06
3.45498e-06
5.5965e-06
3.93465e-05
0.000346142
0.00149654
0.00341087
0.0050748
0.00608075
0.00669234
0.00691901
0.00713084
0.00745254
0.00782932
0.00829646
0.0088346
0.00938254
0.00987626
0.0102498
0.0106482
0.0110051
0.0111761
0.0111125
0.0110821
0.0108986
0.010055
0.00780576
0.0039952
0.00112688
0.00014208
1.22029e-05
3.7109e-06
3.37042e-06
3.34971e-06
3.59774e-06
0.000108066
0.000110486
4.12864e-06
3.35028e-06
3.34204e-06
3.33098e-06
3.35559e-06
4.15188e-06
1.5569e-05
0.000123305
0.000601879
0.00160198
0.00290707
0.00411278
0.00529404
0.006247
0.00699236
0.00760143
0.00824775
0.00891142
0.00945779
0.00984584
0.0101002
0.0101576
0.0101096
0.0101867
0.0103609
0.0106534
0.0110122
0.0110542
0.0106796
0.0089988
0.00493733
0.00156357
0.000215029
1.72293e-05
3.92387e-06
3.38099e-06
3.34467e-06
3.51028e-06
0.000107433
0.000110509
4.2184e-06
3.343e-06
3.32912e-06
3.30099e-06
3.40182e-06
4.17653e-06
1.31783e-05
8.6968e-05
0.000417013
0.00121396
0.00255302
0.00400823
0.00545733
0.00679956
0.00815782
0.00969757
0.0109942
0.0116705
0.0117624
0.0114324
0.0108087
0.010266
0.00997178
0.0098352
0.00989219
0.0101077
0.0106803
0.0110782
0.0107476
0.00917235
0.00505496
0.00160151
0.000218952
1.74593e-05
3.95715e-06
3.37719e-06
3.33659e-06
3.48003e-06
0.000107262
0.000110431
4.24233e-06
3.33216e-06
3.31451e-06
3.33155e-06
3.54018e-06
5.47463e-06
2.46102e-05
0.000146794
0.000615721
0.00171609
0.00346768
0.00549428
0.00775688
0.00993923
0.0117621
0.0128866
0.0132042
0.0130096
0.012399
0.0115976
0.0108151
0.0102088
0.00979964
0.00966726
0.00968746
0.00989637
0.0104967
0.0109632
0.010636
0.00896772
0.00483066
0.00145738
0.000184817
1.46537e-05
3.83672e-06
3.36615e-06
3.32938e-06
3.51144e-06
0.000107279
0.000109987
4.1328e-06
3.32956e-06
3.31332e-06
3.39729e-06
4.23367e-06
1.56005e-05
0.000115314
0.000599834
0.00195214
0.00455171
0.00728913
0.00955287
0.0112297
0.0124682
0.0132
0.0134891
0.0133023
0.0127243
0.0117729
0.0107632
0.00992518
0.00940312
0.00912301
0.00917564
0.00940059
0.00964097
0.0101936
0.0105386
0.010011
0.00781116
0.00365785
0.000870079
8.79319e-05
8.14029e-06
3.58597e-06
3.3553e-06
3.32818e-06
3.59194e-06
0.000107472
0.000108507
3.89031e-06
3.32857e-06
3.33302e-06
3.59101e-06
8.56206e-06
7.69255e-05
0.000589165
0.00242207
0.00561288
0.00850584
0.0103678
0.0115245
0.0122728
0.0127968
0.0131362
0.0130444
0.0123363
0.0113901
0.0105221
0.00969853
0.00899665
0.00846276
0.00810469
0.00800177
0.00829724
0.00880429
0.00915857
0.0089716
0.00761705
0.00480682
0.00195756
0.000374492
3.47056e-05
5.05156e-06
3.4624e-06
3.34644e-06
3.33547e-06
3.75341e-06
0.000108146
0.000106967
3.69724e-06
3.33041e-06
3.3696e-06
4.41829e-06
2.76162e-05
0.00031702
0.00187668
0.005104
0.00845582
0.0104403
0.011459
0.0118859
0.0122489
0.0124462
0.0121073
0.0116478
0.0112818
0.0109569
0.0105123
0.00982683
0.00913866
0.00849922
0.007968
0.00750024
0.00706303
0.00676615
0.00648123
0.00584385
0.00453285
0.0025398
0.000879335
0.000141293
1.3902e-05
3.86839e-06
3.37416e-06
3.33977e-06
3.34545e-06
4.11518e-06
0.000108789
0.000106099
3.56717e-06
3.32276e-06
3.39902e-06
5.22386e-06
4.46998e-05
0.000509687
0.00263122
0.00636188
0.00969536
0.01115
0.0115972
0.0117775
0.0115896
0.0112473
0.0110476
0.0109391
0.0109472
0.0112052
0.0115032
0.0114609
0.0110423
0.010015
0.00880644
0.00780351
0.00696714
0.00601283
0.00492014
0.00373845
0.00243328
0.00116264
0.00034868
5.21981e-05
7.0075e-06
3.49326e-06
3.30491e-06
3.32901e-06
3.34699e-06
4.41634e-06
0.000109084
0.000105795
3.5121e-06
3.30964e-06
3.41293e-06
5.33676e-06
4.67721e-05
0.000538285
0.00276351
0.00664209
0.00997254
0.0112377
0.0116238
0.0112641
0.0107569
0.0105039
0.0104446
0.0104394
0.0107474
0.0112944
0.0121843
0.0130853
0.0135902
0.0134718
0.0123136
0.0102455
0.00808316
0.00641312
0.00491741
0.00339622
0.00188474
0.000783035
0.000214343
3.39813e-05
5.99005e-06
3.49724e-06
3.29007e-06
3.30819e-06
3.33583e-06
4.52749e-06
0.000109141
0.000105777
3.53195e-06
3.29493e-06
3.38085e-06
5.09147e-06
4.18311e-05
0.000498233
0.00266928
0.00653582
0.00989657
0.0111873
0.0114766
0.011002
0.0104247
0.0102182
0.00980029
0.00963024
0.0100466
0.0108946
0.0118854
0.0130046
0.0139732
0.0145631
0.0145719
0.0136938
0.0118475
0.00920657
0.00647996
0.00419803
0.00227463
0.000938942
0.000264515
4.63201e-05
7.76543e-06
3.69048e-06
3.33632e-06
3.28525e-06
3.32047e-06
4.55242e-06
0.000109101
0.000105888
3.61413e-06
3.29833e-06
3.3493e-06
4.23407e-06
2.35996e-05
0.000311574
0.00209424
0.00583088
0.00934571
0.0108167
0.0111023
0.0107144
0.0101542
0.00969547
0.00899345
0.0088041
0.00905167
0.00973149
0.0106612
0.0118819
0.0132046
0.0142788