/*--------------------------------*- C++ -*----------------------------------*\
| =========                 |                                                 |
| \\      /  F ield         | OpenFOAM: The Open Source CFD Toolbox           |
|  \\    /   O peration     | Version:  v1812                                 |
|   \\  /    A nd           | Web:      www.OpenFOAM.com                      |
|    \\/     M anipulation  |                                                 |
\*---------------------------------------------------------------------------*/
FoamFile
{
    version     2.0;
    format      ascii;
    class       volScalarField;
    location    "0";
    object      Ttrue;
}
// * * * * * * * * * * * * * * * * * * * * * * * * * * * * * * * * * * * * * //

dimensions      [0 0 0 1 0 0 0];


internalField   nonuniform List<scalar> 
366300
(
300.461
300.469
300.485
300.507
300.534
300.567
300.604
300.645
300.689
300.736
300.786
300.838
300.892
300.948
301.005
301.063
301.123
301.183
301.244
301.306
301.368
301.431
301.495
301.558
301.622
301.687
301.751
301.816
301.881
301.946
302.011
302.076
302.141
302.207
302.272
302.338
302.403
302.469
302.534
302.6
302.666
302.732
302.797
302.863
302.929
302.994
303.06
303.126
303.192
303.257
303.323
303.389
303.455
303.521
303.586
303.652
303.718
303.784
303.85
303.915
303.981
304.047
304.113
304.178
304.244
304.31
304.376
304.441
304.507
304.573
304.638
304.704
304.77
304.835
304.901
304.966
305.032
305.097
305.163
305.228
305.293
305.358
305.423
305.487
305.552
305.616
305.68
305.744
305.807
305.87
305.933
305.994
306.056
306.116
306.175
306.234
306.291
306.347
306.401
306.453
306.502
306.55
306.594
306.635
306.672
306.704
306.732
306.754
306.769
306.777
300.461
300.469
300.484
300.506
300.533
300.565
300.602
300.643
300.687
300.734
300.783
300.835
300.889
300.944
301.001
301.059
301.119
301.179
301.24
301.301
301.363
301.426
301.489
301.553
301.616
301.68
301.745
301.809
301.874
301.939
302.004
302.069
302.134
302.199
302.264
302.329
302.395
302.46
302.525
302.591
302.656
302.722
302.787
302.853
302.918
302.984
303.049
303.115
303.18
303.246
303.311
303.377
303.442
303.508
303.573
303.639
303.705
303.77
303.836
303.901
303.967
304.032
304.098
304.163
304.229
304.294
304.36
304.425
304.491
304.556
304.622
304.687
304.752
304.818
304.883
304.948
305.014
305.079
305.144
305.209
305.274
305.338
305.403
305.468
305.532
305.596
305.66
305.723
305.786
305.849
305.911
305.973
306.034
306.094
306.153
306.211
306.268
306.323
306.377
306.429
306.479
306.526
306.57
306.61
306.647
306.679
306.707
306.729
306.744
306.752
300.459
300.467
300.482
300.504
300.531
300.563
300.599
300.64
300.683
300.73
300.779
300.831
300.884
300.939
300.996
301.054
301.113
301.172
301.233
301.294
301.356
301.418
301.481
301.544
301.608
301.671
301.735
301.799
301.863
301.928
301.992
302.057
302.122
302.187
302.251
302.316
302.381
302.446
302.511
302.576
302.641
302.707
302.772
302.837
302.902
302.967
303.032
303.097
303.163
303.228
303.293
303.358
303.423
303.488
303.554
303.619
303.684
303.749
303.814
303.88
303.945
304.01
304.075
304.14
304.205
304.271
304.336
304.401
304.466
304.531
304.596
304.661
304.726
304.791
304.856
304.921
304.986
305.051
305.115
305.18
305.244
305.309
305.373
305.437
305.501
305.565
305.628
305.691
305.754
305.816
305.878
305.94
306
306.06
306.119
306.177
306.233
306.288
306.342
306.393
306.442
306.489
306.533
306.573
306.61
306.642
306.669
306.69
306.705
306.713
300.457
300.465
300.48
300.501
300.528
300.559
300.595
300.635
300.679
300.725
300.774
300.825
300.878
300.933
300.989
301.046
301.105
301.164
301.224
301.285
301.346
301.408
301.47
301.533
301.596
301.659
301.722
301.786
301.85
301.914
301.978
302.042
302.106
302.171
302.235
302.299
302.364
302.428
302.493
302.558
302.622
302.687
302.751
302.816
302.881
302.945
303.01
303.075
303.139
303.204
303.269
303.334
303.398
303.463
303.528
303.592
303.657
303.722
303.786
303.851
303.916
303.981
304.045
304.11
304.175
304.239
304.304
304.369
304.433
304.498
304.562
304.627
304.692
304.756
304.821
304.885
304.949
305.014
305.078
305.142
305.206
305.27
305.334
305.398
305.461
305.524
305.587
305.65
305.712
305.774
305.835
305.896
305.956
306.016
306.074
306.131
306.187
306.242
306.295
306.346
306.395
306.441
306.485
306.525
306.561
306.592
306.619
306.64
306.655
306.663
300.454
300.462
300.476
300.497
300.524
300.555
300.591
300.63
300.673
300.719
300.767
300.818
300.87
300.925
300.98
301.037
301.095
301.154
301.213
301.273
301.334
301.395
301.457
301.519
301.582
301.644
301.707
301.77
301.833
301.897
301.96
302.024
302.087
302.151
302.215
302.279
302.343
302.407
302.471
302.535
302.599
302.663
302.727
302.791
302.855
302.919
302.983
303.047
303.111
303.175
303.24
303.304
303.368
303.432
303.496
303.56
303.624
303.688
303.753
303.817
303.881
303.945
304.009
304.073
304.137
304.201
304.265
304.329
304.393
304.458
304.522
304.586
304.65
304.713
304.777
304.841
304.905
304.969
305.032
305.096
305.159
305.223
305.286
305.349
305.412
305.475
305.537
305.599
305.661
305.722
305.783
305.843
305.903
305.961
306.019
306.076
306.132
306.186
306.238
306.289
306.337
306.383
306.426
306.465
306.501
306.532
306.559
306.58
306.594
306.602
300.451
300.458
300.473
300.493
300.519
300.55
300.585
300.624
300.667
300.712
300.76
300.81
300.862
300.915
300.97
301.026
301.083
301.141
301.2
301.26
301.32
301.381
301.442
301.503
301.565
301.627
301.689
301.751
301.814
301.877
301.94
302.002
302.065
302.129
302.192
302.255
302.318
302.381
302.445
302.508
302.571
302.635
302.698
302.761
302.825
302.888
302.952
303.015
303.079
303.142
303.205
303.269
303.332
303.396
303.459
303.523
303.586
303.65
303.713
303.776
303.84
303.903
303.967
304.03
304.094
304.157
304.22
304.284
304.347
304.411
304.474
304.537
304.6
304.664
304.727
304.79
304.853
304.916
304.979
305.042
305.105
305.168
305.23
305.293
305.355
305.417
305.479
305.54
305.601
305.662
305.722
305.781
305.84
305.898
305.956
306.012
306.067
306.12
306.172
306.222
306.27
306.315
306.358
306.397
306.432
306.463
306.489
306.509
306.523
306.531
300.447
300.454
300.468
300.488
300.514
300.544
300.579
300.617
300.659
300.704
300.751
300.8
300.851
300.904
300.958
301.014
301.07
301.128
301.186
301.245
301.304
301.364
301.424
301.485
301.546
301.607
301.669
301.73
301.792
301.854
301.916
301.978
302.041
302.103
302.165
302.228
302.29
302.353
302.415
302.478
302.54
302.603
302.665
302.728
302.791
302.853
302.916
302.979
303.041
303.104
303.167
303.229
303.292
303.355
303.417
303.48
303.543
303.606
303.668
303.731
303.794
303.856
303.919
303.982
304.044
304.107
304.17
304.232
304.295
304.357
304.42
304.483
304.545
304.608
304.67
304.732
304.795
304.857
304.919
304.981
305.043
305.105
305.167
305.229
305.29
305.352
305.412
305.473
305.533
305.593
305.653
305.712
305.77
305.827
305.884
305.939
305.993
306.046
306.097
306.147
306.194
306.239
306.28
306.319
306.353
306.384
306.409
306.43
306.444
306.451
300.442
300.449
300.463
300.483
300.508
300.538
300.572
300.61
300.651
300.695
300.741
300.79
300.84
300.892
300.946
301
301.056
301.113
301.17
301.228
301.287
301.346
301.405
301.465
301.525
301.586
301.646
301.707
301.768
301.829
301.89
301.952
302.013
302.074
302.136
302.198
302.259
302.321
302.382
302.444
302.506
302.568
302.629
302.691
302.753
302.815
302.877
302.938
303
303.062
303.124
303.186
303.248
303.309
303.371
303.433
303.495
303.557
303.619
303.68
303.742
303.804
303.866
303.928
303.99
304.051
304.113
304.175
304.237
304.298
304.36
304.422
304.484
304.545
304.607
304.668
304.73
304.791
304.853
304.914
304.975
305.036
305.097
305.158
305.219
305.279
305.339
305.399
305.459
305.518
305.576
305.634
305.692
305.748
305.804
305.859
305.912
305.964
306.015
306.063
306.11
306.154
306.195
306.233
306.267
306.297
306.322
306.341
306.355
306.362
300.437
300.444
300.457
300.477
300.501
300.53
300.564
300.601
300.642
300.685
300.73
300.778
300.828
300.879
300.932
300.986
301.04
301.096
301.153
301.21
301.268
301.326
301.384
301.443
301.502
301.562
301.622
301.681
301.742
301.802
301.862
301.922
301.983
302.043
302.104
302.165
302.225
302.286
302.347
302.408
302.468
302.529
302.59
302.651
302.712
302.773
302.834
302.894
302.955
303.016
303.077
303.138
303.199
303.26
303.321
303.382
303.443
303.504
303.564
303.625
303.686
303.747
303.808
303.869
303.93
303.991
304.052
304.112
304.173
304.234
304.295
304.356
304.416
304.477
304.538
304.599
304.659
304.72
304.78
304.84
304.901
304.961
305.021
305.081
305.141
305.2
305.259
305.318
305.377
305.435
305.493
305.55
305.606
305.662
305.717
305.771
305.823
305.875
305.924
305.972
306.018
306.061
306.101
306.139
306.172
306.201
306.226
306.245
306.259
306.265
300.431
300.438
300.451
300.47
300.494
300.523
300.555
300.592
300.632
300.674
300.719
300.766
300.815
300.865
300.917
300.97
301.024
301.078
301.134
301.19
301.247
301.304
301.362
301.42
301.478
301.536
301.595
301.654
301.713
301.772
301.831
301.891
301.95
302.01
302.069
302.129
302.189
302.249
302.308
302.368
302.428
302.488
302.548
302.607
302.667
302.727
302.787
302.847
302.907
302.967
303.027
303.087
303.147
303.206
303.266
303.326
303.386
303.446
303.506
303.566
303.626
303.686
303.746
303.806
303.865
303.925
303.985
304.045
304.105
304.165
304.224
304.284
304.344
304.404
304.463
304.523
304.583
304.642
304.702
304.761
304.82
304.88
304.939
304.998
305.056
305.115
305.173
305.231
305.289
305.346
305.402
305.459
305.514
305.569
305.623
305.676
305.728
305.778
305.827
305.874
305.919
305.961
306.001
306.037
306.07
306.099
306.123
306.142
306.155
306.161
300.425
300.432
300.444
300.463
300.486
300.514
300.546
300.582
300.621
300.662
300.706
300.753
300.8
300.85
300.901
300.953
301.005
301.059
301.114
301.169
301.225
301.281
301.337
301.394
301.452
301.509
301.567
301.624
301.682
301.741
301.799
301.857
301.916
301.974
302.033
302.091
302.15
302.209
302.267
302.326
302.385
302.443
302.502
302.561
302.62
302.679
302.737
302.796
302.855
302.914
302.973
303.032
303.09
303.149
303.208
303.267
303.326
303.385
303.444
303.502
303.561
303.62
303.679
303.738
303.797
303.855
303.914
303.973
304.032
304.09
304.149
304.208
304.267
304.325
304.384
304.442
304.501
304.56
304.618
304.676
304.734
304.793
304.851
304.908
304.966
305.024
305.081
305.138
305.194
305.25
305.306
305.361
305.416
305.47
305.523
305.575
305.625
305.675
305.723
305.769
305.813
305.854
305.893
305.929
305.961
305.989
306.013
306.031
306.044
306.05
300.418
300.424
300.437
300.455
300.478
300.505
300.536
300.571
300.609
300.65
300.693
300.738
300.785
300.834
300.883
300.934
300.986
301.039
301.092
301.147
301.201
301.256
301.312
301.368
301.424
301.48
301.537
301.593
301.65
301.707
301.764
301.821
301.879
301.936
301.993
302.051
302.108
302.166
302.224
302.281
302.339
302.396
302.454
302.512
302.569
302.627
302.685
302.742
302.8
302.858
302.916
302.973
303.031
303.089
303.146
303.204
303.262
303.32
303.377
303.435
303.493
303.55
303.608
303.666
303.723
303.781
303.839
303.896
303.954
304.012
304.069
304.127
304.184
304.242
304.3
304.357
304.414
304.472
304.529
304.586
304.643
304.7
304.757
304.814
304.87
304.927
304.983
305.039
305.094
305.149
305.204
305.258
305.311
305.364
305.416
305.467
305.517
305.565
305.612
305.657
305.7
305.741
305.779
305.814
305.845
305.873
305.896
305.914
305.926
305.932
300.411
300.417
300.429
300.446
300.469
300.495
300.526
300.56
300.597
300.637
300.679
300.723
300.769
300.817
300.865
300.915
300.966
301.018
301.07
301.123
301.176
301.23
301.285
301.339
301.394
301.449
301.505
301.56
301.616
301.672
301.728
301.784
301.84
301.896
301.952
302.009
302.065
302.121
302.178
302.234
302.29
302.347
302.403
302.46
302.516
302.573
302.629
302.686
302.742
302.799
302.855
302.912
302.968
303.025
303.081
303.138
303.194
303.251
303.307
303.364
303.42
303.477
303.533
303.59
303.646
303.703
303.759
303.816
303.872
303.929
303.985
304.041
304.098
304.154
304.211
304.267
304.323
304.379
304.435
304.491
304.547
304.603
304.659
304.714
304.77
304.825
304.88
304.934
304.989
305.043
305.096
305.149
305.201
305.253
305.304
305.354
305.402
305.45
305.496
305.54
305.582
305.622
305.659
305.693
305.724
305.75
305.773
305.79
305.802
305.808
300.403
300.409
300.42
300.437
300.459
300.485
300.515
300.548
300.585
300.623
300.665
300.708
300.753
300.799
300.846
300.895
300.945
300.995
301.046
301.098
301.15
301.203
301.256
301.31
301.363
301.417
301.471
301.526
301.58
301.635
301.689
301.744
301.799
301.854
301.909
301.964
302.019
302.074
302.129
302.184
302.24
302.295
302.35
302.405
302.46
302.516
302.571
302.626
302.681
302.737
302.792
302.847
302.902
302.958
303.013
303.068
303.124
303.179
303.234
303.289
303.345
303.4
303.455
303.51
303.566
303.621
303.676
303.731
303.786
303.842
303.897
303.952
304.007
304.062
304.117
304.172
304.227
304.282
304.337
304.392
304.446
304.501
304.555
304.61
304.664
304.718
304.772
304.825
304.878
304.931
304.983
305.035
305.086
305.136
305.186
305.235
305.282
305.329
305.374
305.417
305.458
305.497
305.533
305.566
305.596
305.622
305.644
305.661
305.672
305.678
300.394
300.4
300.411
300.428
300.449
300.474
300.503
300.536
300.571
300.609
300.649
300.691
300.735
300.78
300.827
300.874
300.923
300.972
301.022
301.072
301.123
301.175
301.227
301.279
301.331
301.384
301.437
301.49
301.543
301.596
301.649
301.703
301.757
301.81
301.864
301.918
301.971
302.025
302.079
302.133
302.187
302.24
302.294
302.348
302.402
302.456
302.51
302.564
302.618
302.672
302.726
302.78
302.834
302.888
302.942
302.996
303.05
303.104
303.158
303.211
303.265
303.319
303.373
303.427
303.481
303.535
303.589
303.643
303.697
303.751
303.805
303.858
303.912
303.966
304.02
304.073
304.127
304.181
304.234
304.288
304.341
304.394
304.448
304.501
304.553
304.606
304.659
304.711
304.763
304.814
304.865
304.916
304.966
305.015
305.063
305.111
305.157
305.202
305.246
305.288
305.328
305.366
305.401
305.434
305.463
305.488
305.509
305.526
305.537
305.543
300.386
300.391
300.402
300.418
300.438
300.463
300.491
300.523
300.557
300.594
300.633
300.674
300.717
300.761
300.806
300.852
300.899
300.947
300.996
301.045
301.095
301.145
301.196
301.247
301.298
301.349
301.4
301.452
301.504
301.556
301.608
301.66
301.712
301.765
301.817
301.869
301.922
301.974
302.026
302.079
302.131
302.184
302.237
302.289
302.342
302.394
302.447
302.499
302.552
302.605
302.657
302.71
302.762
302.815
302.868
302.92
302.973
303.025
303.078
303.13
303.183
303.236
303.288
303.341
303.393
303.446
303.499
303.551
303.604
303.656
303.709
303.761
303.814
303.866
303.918
303.971
304.023
304.075
304.128
304.18
304.232
304.284
304.335
304.387
304.439
304.49
304.541
304.592
304.642
304.693
304.742
304.792
304.84
304.888
304.935
304.982
305.027
305.071
305.113
305.154
305.193
305.23
305.265
305.296
305.324
305.349
305.37
305.385
305.396
305.402
300.376
300.382
300.392
300.408
300.427
300.451
300.479
300.509
300.543
300.579
300.616
300.656
300.698
300.74
300.784
300.829
300.875
300.922
300.969
301.017
301.066
301.114
301.164
301.213
301.263
301.313
301.363
301.413
301.464
301.514
301.565
301.616
301.666
301.717
301.768
301.819
301.87
301.921
301.972
302.023
302.074
302.125
302.177
302.228
302.279
302.33
302.381
302.432
302.484
302.535
302.586
302.637
302.688
302.739
302.791
302.842
302.893
302.944
302.995
303.047
303.098
303.149
303.2
303.251
303.302
303.354
303.405
303.456
303.507
303.558
303.609
303.66
303.711
303.762
303.813
303.864
303.915
303.966
304.017
304.068
304.118
304.169
304.219
304.269
304.32
304.37
304.419
304.469
304.518
304.567
304.615
304.663
304.71
304.757
304.803
304.848
304.892
304.935
304.976
305.016
305.054
305.09
305.123
305.154
305.181
305.205
305.225
305.24
305.251
305.256
300.366
300.372
300.382
300.397
300.416
300.439
300.466
300.495
300.528
300.562
300.599
300.638
300.678
300.72
300.762
300.806
300.851
300.896
300.942
300.988
301.035
301.083
301.131
301.179
301.227
301.275
301.324
301.373
301.422
301.471
301.52
301.57
301.619
301.668
301.718
301.767
301.817
301.866
301.916
301.966
302.015
302.065
302.115
302.164
302.214
302.264
302.313
302.363
302.413
302.463
302.512
302.562
302.612
302.661
302.711
302.761
302.811
302.86
302.91
302.96
303.009
303.059
303.109
303.159
303.208
303.258
303.308
303.357
303.407
303.457
303.506
303.556
303.606
303.655
303.705
303.754
303.804
303.853
303.902
303.952
304.001
304.05
304.099
304.148
304.197
304.245
304.293
304.341
304.389
304.437
304.484
304.53
304.576
304.621
304.666
304.71
304.752
304.794
304.834
304.873
304.91
304.944
304.977
305.006
305.033
305.056
305.075
305.09
305.1
305.106
300.356
300.361
300.371
300.385
300.404
300.426
300.452
300.481
300.512
300.546
300.581
300.619
300.658
300.698
300.739
300.782
300.825
300.869
300.913
300.959
301.004
301.05
301.096
301.143
301.19
301.237
301.284
301.331
301.379
301.427
301.474
301.522
301.57
301.618
301.666
301.714
301.762
301.81
301.858
301.906
301.954
302.003
302.051
302.099
302.147
302.195
302.243
302.292
302.34
302.388
302.436
302.485
302.533
302.581
302.629
302.677
302.726
302.774
302.822
302.87
302.919
302.967
303.015
303.063
303.111
303.16
303.208
303.256
303.304
303.352
303.4
303.449
303.497
303.545
303.593
303.641
303.689
303.737
303.784
303.832
303.88
303.928
303.975
304.022
304.07
304.117
304.164
304.21
304.256
304.302
304.348
304.393
304.438
304.482
304.525
304.567
304.609
304.649
304.688
304.725
304.761
304.795
304.826
304.855
304.88
304.903
304.921
304.936
304.945
304.95
300.346
300.35
300.36
300.374
300.392
300.413
300.438
300.466
300.496
300.529
300.563
300.599
300.637
300.676
300.716
300.757
300.799
300.841
300.884
300.928
300.972
301.017
301.061
301.106
301.152
301.197
301.243
301.289
301.335
301.381
301.427
301.473
301.52
301.566
301.612
301.659
301.705
301.752
301.799
301.845
301.892
301.938
301.985
302.032
302.078
302.125
302.172
302.218
302.265
302.312
302.358
302.405
302.452
302.498
302.545
302.592
302.638
302.685
302.732
302.778
302.825
302.872
302.918
302.965
303.012
303.058
303.105
303.152
303.198
303.245
303.291
303.338
303.385
303.431
303.478
303.524
303.57
303.617
303.663
303.709
303.756
303.802
303.848
303.894
303.939
303.985
304.03
304.075
304.12
304.164
304.209
304.252
304.295
304.338
304.38
304.421
304.461
304.5
304.537
304.574
304.608
304.641
304.671
304.699
304.723
304.745
304.763
304.777
304.786
304.791
300.335
300.339
300.348
300.362
300.379
300.4
300.424
300.45
300.479
300.511
300.544
300.579
300.615
300.653
300.692
300.731
300.772
300.813
300.854
300.896
300.939
300.982
301.025
301.069
301.113
301.157
301.201
301.245
301.289
301.334
301.379
301.423
301.468
301.513
301.558
301.603
301.648
301.692
301.737
301.782
301.827
301.872
301.918
301.963
302.008
302.053
302.098
302.143
302.188
302.233
302.278
302.323
302.368
302.413
302.458
302.504
302.549
302.594
302.639
302.684
302.729
302.774
302.819
302.864
302.909
302.954
302.999
303.045
303.09
303.135
303.18
303.225
303.27
303.315
303.359
303.404
303.449
303.494
303.539
303.583
303.628
303.673
303.717
303.761
303.805
303.849
303.893
303.937
303.98
304.023
304.066
304.108
304.149
304.19
304.231
304.27
304.309
304.347
304.383
304.418
304.451
304.483
304.512
304.538
304.562
304.583
304.6
304.614
304.623
304.627
300.323
300.328
300.336
300.349
300.366
300.386
300.409
300.434
300.462
300.493
300.525
300.558
300.593
300.63
300.667
300.705
300.744
300.783
300.824
300.864
300.905
300.947
300.988
301.03
301.073
301.115
301.158
301.2
301.243
301.286
301.329
301.372
301.415
301.458
301.502
301.545
301.588
301.631
301.675
301.718
301.762
301.805
301.848
301.892
301.935
301.979
302.022
302.066
302.109
302.153
302.196
302.239
302.283
302.326
302.37
302.413
302.457
302.5
302.544
302.587
302.631
302.674
302.718
302.761
302.805
302.848
302.891
302.935
302.978
303.022
303.065
303.108
303.152
303.195
303.238
303.282
303.325
303.368
303.411
303.454
303.497
303.54
303.583
303.626
303.668
303.711
303.753
303.795
303.837
303.878
303.919
303.96
304
304.039
304.078
304.116
304.154
304.19
304.225
304.259
304.291
304.321
304.349
304.375
304.398
304.418
304.434
304.447
304.456
304.46
300.311
300.316
300.324
300.336
300.352
300.371
300.393
300.418
300.445
300.474
300.505
300.537
300.571
300.606
300.641
300.678
300.716
300.754
300.792
300.831
300.871
300.911
300.951
300.991
301.032
301.072
301.113
301.154
301.196
301.237
301.278
301.32
301.361
301.403
301.444
301.486
301.527
301.569
301.611
301.653
301.694
301.736
301.778
301.82
301.861
301.903
301.945
301.987
302.028
302.07
302.112
302.154
302.196
302.238
302.279
302.321
302.363
302.405
302.447
302.488
302.53
302.572
302.614
302.656
302.697
302.739
302.781
302.823
302.864
302.906
302.948
302.99
303.031
303.073
303.115
303.156
303.198
303.239
303.281
303.322
303.364
303.405
303.446
303.487
303.528
303.569
303.609
303.65
303.69
303.73
303.769
303.808
303.847
303.885
303.922
303.959
303.995
304.03
304.063
304.096
304.126
304.155
304.182
304.207
304.229
304.248
304.264
304.276
304.285
304.289
300.299
300.303
300.311
300.323
300.338
300.357
300.378
300.401
300.427
300.455
300.484
300.515
300.548
300.581
300.615
300.651
300.687
300.723
300.76
300.798
300.835
300.874
300.912
300.951
300.99
301.029
301.068
301.108
301.147
301.187
301.226
301.266
301.306
301.346
301.386
301.426
301.466
301.505
301.545
301.586
301.626
301.666
301.706
301.746
301.786
301.826
301.866
301.906
301.946
301.986
302.026
302.067
302.107
302.147
302.187
302.227
302.267
302.307
302.347
302.387
302.428
302.468
302.508
302.548
302.588
302.628
302.668
302.708
302.748
302.788
302.828
302.868
302.908
302.948
302.988
303.028
303.068
303.108
303.148
303.187
303.227
303.267
303.306
303.346
303.385
303.424
303.463
303.502
303.54
303.578
303.616
303.654
303.691
303.727
303.763
303.798
303.833
303.866
303.898
303.929
303.959
303.987
304.013
304.036
304.057
304.076
304.091
304.103
304.111
304.115
300.287
300.291
300.298
300.309
300.324
300.341
300.362
300.384
300.409
300.436
300.464
300.493
300.524
300.556
300.589
300.623
300.657
300.692
300.727
300.763
300.799
300.836
300.873
300.91
300.947
300.985
301.022
301.06
301.098
301.136
301.173
301.212
301.25
301.288
301.326
301.364
301.402
301.441
301.479
301.517
301.555
301.594
301.632
301.671
301.709
301.747
301.786
301.824
301.862
301.901
301.939
301.977
302.016
302.054
302.093
302.131
302.169
302.208
302.246
302.285
302.323
302.361
302.4
302.438
302.476
302.515
302.553
302.591
302.63
302.668
302.706
302.745
302.783
302.821
302.859
302.898
302.936
302.974
303.012
303.05
303.088
303.126
303.164
303.201
303.239
303.276
303.314
303.351
303.388
303.424
303.46
303.496
303.532
303.567
303.601
303.635
303.667
303.699
303.73
303.76
303.788
303.815
303.839
303.862
303.882
303.9
303.914
303.925
303.933
303.937
300.274
300.278
300.285
300.296
300.309
300.326
300.345
300.367
300.39
300.416
300.443
300.471
300.5
300.531
300.562
300.594
300.627
300.66
300.694
300.728
300.763
300.798
300.833
300.868
300.904
300.939
300.975
301.011
301.047
301.083
301.12
301.156
301.192
301.229
301.265
301.302
301.338
301.375
301.411
301.448
301.484
301.521
301.557
301.594
301.631
301.667
301.704
301.74
301.777
301.814
301.85
301.887
301.923
301.96
301.997
302.033
302.07
302.107
302.143
302.18
302.216
302.253
302.29
302.326
302.363
302.399
302.436
302.473
302.509
302.546
302.582
302.619
302.655
302.692
302.728
302.765
302.801
302.838
302.874
302.91
302.946
302.983
303.019
303.055
303.09
303.126
303.162
303.197
303.232
303.267
303.302
303.336
303.37
303.403
303.436
303.468
303.499
303.53
303.559
303.587
303.614
303.64
303.663
303.685
303.704
303.721
303.734
303.745
303.752
303.756
300.261
300.264
300.271
300.281
300.294
300.31
300.329
300.349
300.371
300.395
300.421
300.448
300.476
300.505
300.535
300.565
300.596
300.628
300.66
300.693
300.726
300.759
300.792
300.826
300.86
300.894
300.928
300.962
300.996
301.031
301.065
301.099
301.134
301.169
301.203
301.238
301.273
301.307
301.342
301.377
301.412
301.446
301.481
301.516
301.551
301.586
301.62
301.655
301.69
301.725
301.76
301.795
301.829
301.864
301.899
301.934
301.969
302.004
302.038
302.073
302.108
302.143
302.178
302.213
302.247
302.282
302.317
302.352
302.387
302.421
302.456
302.491
302.526
302.56
302.595
302.63
302.664
302.699
302.734
302.768
302.803
302.837
302.871
302.905
302.939
302.973
303.007
303.041
303.074
303.107
303.14
303.173
303.205
303.237
303.268
303.298
303.328
303.357
303.385
303.412
303.438
303.462
303.484
303.505
303.523
303.539
303.552
303.562
303.569
303.572
300.247
300.251
300.257
300.267
300.279
300.294
300.312
300.331
300.352
300.375
300.399
300.425
300.451
300.479
300.507
300.536
300.565
300.595
300.626
300.657
300.688
300.719
300.751
300.783
300.815
300.847
300.879
300.912
300.944
300.977
301.009
301.042
301.075
301.108
301.141
301.173
301.206
301.239
301.272
301.305
301.338
301.371
301.404
301.437
301.47
301.503
301.536
301.569
301.602
301.635
301.668
301.701
301.734
301.767
301.8
301.833
301.866
301.899
301.932
301.965
301.998
302.031
302.064
302.097
302.13
302.163
302.196
302.229
302.262
302.295
302.328
302.361
302.394
302.427
302.46
302.493
302.525
302.558
302.591
302.624
302.656
302.689
302.721
302.754
302.786
302.818
302.85
302.882
302.914
302.945
302.977
303.007
303.038
303.068
303.097
303.126
303.155
303.182
303.208
303.234
303.258
303.281
303.302
303.322
303.339
303.354
303.366
303.376
303.382
303.386
300.234
300.237
300.243
300.252
300.264
300.278
300.294
300.312
300.333
300.354
300.377
300.401
300.426
300.452
300.479
300.506
300.534
300.562
300.591
300.62
300.649
300.679
300.709
300.739
300.769
300.8
300.83
300.861
300.891
300.922
300.953
300.984
301.015
301.046
301.077
301.108
301.139
301.17
301.201
301.232
301.263
301.294
301.326
301.357
301.388
301.419
301.45
301.481
301.513
301.544
301.575
301.606
301.637
301.668
301.7
301.731
301.762
301.793
301.824
301.855
301.887
301.918
301.949
301.98
302.011
302.042
302.074
302.105
302.136
302.167
302.198
302.229
302.26
302.291
302.322
302.353
302.384
302.415
302.446
302.477
302.508
302.539
302.569
302.6
302.631
302.661
302.691
302.721
302.751
302.781
302.81
302.839
302.868
302.897
302.924
302.952
302.978
303.004
303.029
303.053
303.076
303.098
303.118
303.136
303.152
303.167
303.178
303.187
303.193
303.197
300.22
300.223
300.229
300.237
300.248
300.261
300.277
300.294
300.313
300.333
300.354
300.377
300.4
300.425
300.45
300.476
300.502
300.528
300.555
300.583
300.61
300.638
300.666
300.695
300.723
300.752
300.78
300.809
300.838
300.867
300.896
300.925
300.954
300.983
301.012
301.042
301.071
301.1
301.129
301.158
301.188
301.217
301.246
301.275
301.305
301.334
301.363
301.393
301.422
301.451
301.481
301.51
301.539
301.568
301.598
301.627
301.656
301.686
301.715
301.744
301.774
301.803
301.832
301.861
301.891
301.92
301.949
301.979
302.008
302.037
302.066
302.096
302.125
302.154
302.183
302.212
302.242
302.271
302.3
302.329
302.358
302.387
302.416
302.444
302.473
302.502
302.53
302.558
302.586
302.614
302.642
302.669
302.696
302.723
302.749
302.775
302.8
302.824
302.848
302.87
302.892
302.912
302.931
302.948
302.964
302.977
302.988
302.996
303.002
303.005
300.465
300.474
300.49
300.513
300.542
300.576
300.614
300.656
300.702
300.751
300.802
300.855
300.911
300.968
301.026
301.086
301.147
301.209
301.271
301.335
301.398
301.463
301.528
301.593
301.658
301.724
301.79
301.856
301.923
301.989
302.056
302.122
302.189
302.256
302.323
302.39
302.457
302.524
302.591
302.658
302.725
302.792
302.86
302.927
302.994
303.061
303.129
303.196
303.263
303.33
303.397
303.465
303.532
303.599
303.666
303.734
303.801
303.868
303.935
304.003
304.07
304.137
304.204
304.272
304.339
304.406
304.473
304.541
304.608
304.675
304.742
304.809
304.876
304.943
305.01
305.077
305.144
305.211
305.278
305.345
305.411
305.478
305.544
305.61
305.676
305.742
305.807
305.873
305.937
306.002
306.066
306.129
306.191
306.253
306.314
306.374
306.433
306.49
306.545
306.598
306.65
306.698
306.744
306.786
306.824
306.858
306.887
306.91
306.926
306.935
300.464
300.473
300.489
300.511
300.54
300.573
300.611
300.653
300.698
300.747
300.798
300.851
300.906
300.962
301.02
301.08
301.14
301.202
301.264
301.327
301.39
301.454
301.519
301.584
301.649
301.714
301.78
301.845
301.911
301.977
302.044
302.11
302.176
302.243
302.309
302.376
302.443
302.509
302.576
302.643
302.709
302.776
302.843
302.91
302.977
303.043
303.11
303.177
303.244
303.311
303.378
303.445
303.511
303.578
303.645
303.712
303.779
303.846
303.913
303.979
304.046
304.113
304.18
304.247
304.314
304.38
304.447
304.514
304.581
304.648
304.714
304.781
304.848
304.915
304.981
305.048
305.114
305.181
305.247
305.313
305.38
305.446
305.512
305.577
305.643
305.708
305.773
305.838
305.903
305.967
306.03
306.093
306.155
306.217
306.277
306.337
306.395
306.452
306.507
306.56
306.61
306.659
306.704
306.746
306.784
306.817
306.846
306.868
306.884
306.893
300.463
300.471
300.487
300.509
300.537
300.57
300.608
300.649
300.694
300.742
300.792
300.845
300.899
300.956
301.013
301.072
301.132
301.193
301.255
301.317
301.38
301.444
301.508
301.572
301.637
301.702
301.767
301.832
301.898
301.963
302.029
302.095
302.161
302.227
302.293
302.359
302.425
302.491
302.557
302.624
302.69
302.756
302.822
302.889
302.955
303.021
303.088
303.154
303.22
303.287
303.353
303.42
303.486
303.552
303.619
303.685
303.751
303.818
303.884
303.951
304.017
304.083
304.15
304.216
304.282
304.349
304.415
304.481
304.548
304.614
304.68
304.746
304.813
304.879
304.945
305.011
305.077
305.143
305.209
305.275
305.341
305.406
305.472
305.537
305.602
305.667
305.731
305.796
305.86
305.923
305.986
306.049
306.11
306.171
306.231
306.29
306.348
306.404
306.459
306.512
306.562
306.61
306.655
306.696
306.733
306.767
306.795
306.817
306.833
306.841
300.46
300.469
300.484
300.506
300.534
300.566
300.603
300.644
300.689
300.736
300.786
300.838
300.892
300.948
301.005
301.063
301.123
301.183
301.244
301.306
301.369
301.431
301.495
301.559
301.623
301.687
301.751
301.816
301.881
301.946
302.011
302.076
302.142
302.207
302.273
302.338
302.404
302.469
302.535
302.601
302.666
302.732
302.798
302.864
302.929
302.995
303.061
303.127
303.192
303.258
303.324
303.39
303.456
303.521
303.587
303.653
303.719
303.785
303.85
303.916
303.982