/*--------------------------------*- C++ -*----------------------------------*\
| =========                 |                                                 |
| \\      /  F ield         | OpenFOAM: The Open Source CFD Toolbox           |
|  \\    /   O peration     | Version:  5.0                                   |
|   \\  /    A nd           | Web:      www.OpenFOAM.org                      |
|    \\/     M anipulation  |                                                 |
\*---------------------------------------------------------------------------*/
FoamFile
{
    version     2.0;
    format      ascii;
    class       volScalarField;
    location    "0";
    object      yPlus;
}
// * * * * * * * * * * * * * * * * * * * * * * * * * * * * * * * * * * * * * //

dimensions      [0 0 0 0 0 0 0];

internalField   uniform 0;

boundaryField
{
    inlet
    {
        type            calculated;
        value           uniform 0;
    }
    outlet
    {
        type            calculated;
        value           uniform 0;
    }
    upperWall
    {
        type            calculated;
        value           nonuniform List<scalar> 
223
(
6.96341
6.84222
6.73071
6.6138
6.50039
6.39147
6.2978
6.21594
6.14876
6.0939
6.0541
6.02322
6.00611
5.99356
5.99398
5.99686
6.00477
6.01802
6.02906
6.03593
6.04445
6.05468
6.06661
6.08024
6.09559
6.11259
6.13121
6.15136
6.173
6.19598
6.22024
6.24564
6.27206
6.29938
6.32747
6.3562
6.38545
6.41509
6.44501
6.47509
6.5052
6.53526
6.56516
6.59481
6.62413
6.65303
6.68146
6.70934
6.73663
6.76326
6.78919
6.8144
6.83885
6.86251
6.88537
6.90741
6.92862
6.94899
6.96853
6.98723
7.00511
7.02216
7.0384
7.05385
7.06851
7.08241
7.09556
7.10799
7.1197
7.13073
7.14109
7.15081
7.15991
7.16841
7.17633
7.1837
7.19054
7.19685
7.20267
7.20802
7.21291
7.21736
7.22139
7.225
7.22822
7.23107
7.23354
7.23565
7.23742
7.23884
7.23993
7.24069
7.24113
7.24125
7.24106
7.24055
7.23973
7.23859
7.23713
7.23535
7.23325
7.23081
7.22804
7.22492
7.22146
7.21762
7.21341
7.20882
7.20382
7.19842
7.19258
7.18632
7.17958
7.17238
7.16467
7.15647
7.14771
7.13844
7.12856
7.11814
7.10705
7.09538
7.08302
7.07001
7.05629
7.04183
7.02679
7.01092
6.99459
6.97729
6.95926
6.94028
6.91983
6.89846
6.87625
6.85319
6.82921
6.80451
6.77969
6.75134
6.72516
6.69433
6.66637
6.63504
6.6045
6.57192
6.53824
6.50372
6.4681
6.43163
6.39418
6.35574
6.31645
6.27626
6.23526
6.19334
6.15074
6.10725
6.06307
6.01809
5.97232
5.92586
5.87844
5.83045
5.78157
5.7321
5.68177
5.63111
5.57971
5.52801
5.4756
5.42294
5.36967
5.31629
5.26232
5.20819
5.15343
5.09849
5.04305
4.9876
4.93173
4.87578
4.81933
4.76279
4.70572
4.64857
4.59088
4.53309
4.47442
4.41596
4.35604
4.29659
4.23443
4.17337
4.10898
4.04211
3.98156
3.76394
4.12442
4.04902
3.93021
3.83029
3.76225
3.70344
3.64826
3.59699
3.551
3.50456
3.45816
3.4113
3.36342
3.31527
3.26571
3.21701
3.16691
3.11807
3.06761
3.02072
2.96935
2.92785
2.87377
2.83088
2.82245
)
;
    }
    lowerWall
    {
        type            calculated;
        value           nonuniform List<scalar> 
250
(
5.25954
5.12123
4.99892
4.86018
4.74588
4.64897
4.58337
4.53952
4.54
4.55303
4.58756
4.62676
4.70063
4.74947
4.8347
4.88902
4.98164
5.0177
0.330368
0.751773
1.10241
1.40375
1.6542
1.86297
2.03613
2.17772
2.29098
2.37863
2.44323
2.48735
2.5138
2.52239
2.51983
2.51145
2.49496
2.47807
2.46452
2.45553
2.45307
2.45593
2.46122
2.46398
2.49939
3.27476
6.76447
0.330368
1.71264
2.34525
2.78468
3.14329
3.50318
3.87905
4.28544
4.72405
5.18517
5.65463
6.11954
6.57056
7.00174
7.40967
7.79263
8.14994
8.48166
8.78836
9.07105
9.33116
9.57042
9.79077
9.99414
10.1819
10.3544
10.5109
10.6538
10.7793
10.8694
10.9132
10.8905
10.778
10.4987
10.6745
10.8648
11.0459
11.1398
11.2913
11.4261
11.5457
11.5973
11.6192
12.0271
12.23
12.5306
12.7887
13.0674
13.336
13.6088
13.8785
14.1487
14.4175
14.6858
14.9531
15.2197
15.4855
15.7504
16.0145
16.2777
16.54
16.8013
17.0616
17.3209
17.5789
17.8357
18.0912
18.3452
18.5977
18.8486
19.0977
19.345
19.5902
19.8334
20.0743
20.3129
20.5489
20.7823
21.0129
21.2405
21.4652
21.6866
21.9046
22.1192
22.3301
22.5372
22.7404
22.9394
23.1341
23.3243
23.5098
23.6903
23.8656
24.0353
24.1992
24.3571
24.5091
24.6558
24.7986
24.9351
25.0666
25.1926
25.3132
25.4282
25.5376
25.6413
25.7393
25.8314
25.9176
25.9978
26.0721
26.1403
26.2024
26.2584
26.3082
26.3518
26.3893
26.4205
26.4455
26.4642
26.4768
26.4831
26.4833
26.4773
26.4652
26.4469
26.4225
26.3919
26.3562
26.315
26.2668
26.2122
26.1515
26.0864
26.0165
25.9401
25.8585
25.7716
25.6794
25.5822
25.4801
25.3731
25.2616
25.1455
25.0249
24.9
24.7709
24.6377
24.5007
24.36
24.2156
24.0679
23.9169
23.7628
23.6058
23.4461
23.2837
23.119
22.952
22.7831
22.6124
22.4406
22.2695
22.1177
22.0131
21.9173
21.8216
21.7251
21.6279
21.53
21.4314
21.332
21.2317
21.1302
21.0269
20.9205
20.8085
20.6836
20.5306
20.0665
20.3256
20.4457
20.4576
20.4002
20.3006
20.1828
20.0483
19.8977
19.7337
19.5571
19.3685
19.1683
18.9565
18.7331
18.4989
18.2536
17.9991
17.7341
17.4679
17.1765
16.932
16.5826
16.4327
16.0046
16.0482
)
;
    }
    frontAndBack
    {
        type            empty;
    }
}


// ************************************************************************* //
