/*--------------------------------*- C++ -*----------------------------------*\
  =========                 |
  \\      /  F ield         | OpenFOAM: The Open Source CFD Toolbox
   \\    /   O peration     | Website:  https://openfoam.org
    \\  /    A nd           | Version:  6
     \\/     M anipulation  |
\*---------------------------------------------------------------------------*/
FoamFile
{
    version     2.0;
    format      ascii;
    class       volScalarField;
    location    "100";
    object      alphat;
}
// * * * * * * * * * * * * * * * * * * * * * * * * * * * * * * * * * * * * * //

dimensions      [1 -1 -1 0 0 0 0];

internalField   nonuniform List<scalar> 
16000
(
3.2597853e-06
2.474133e-05
2.7173807e-05
3.5465657e-05
2.8180926e-05
3.2254688e-05
2.8787857e-05
2.9592745e-05
2.8087509e-05
2.8049032e-05
2.7623254e-05
2.7521229e-05
2.76039e-05
2.7744571e-05
2.8166295e-05
2.8625377e-05
2.9330141e-05
3.0090255e-05
3.1030714e-05
3.2035888e-05
3.3181499e-05
3.4428607e-05
3.5845188e-05
3.7448075e-05
3.9294025e-05
4.1399957e-05
4.3784116e-05
4.64464e-05
4.9403631e-05
5.269334e-05
5.6415934e-05
6.0687194e-05
6.5631999e-05
7.1429383e-05
7.8103069e-05
8.5780419e-05
9.4665989e-05
0.00010510611
0.00011759556
0.00013250854
0.00015031216
0.00017171724
0.0001976202
0.00022908949
0.00026745761
0.00031443974
0.00037216716
0.00044331627
0.00053125724
0.00064014829
0.00077502809
0.00094177562
0.0011467552
0.00121303
0.001214047
0.0012141345
0.0012135377
0.0012125333
0.0012113194
0.0012099283
0.0012083078
0.0012063784
0.0012040226
0.0012010935
0.0011974761
0.0011932624
0.0011893975
0.0011861535
0.0011834599
0.0011812248
0.0011793013
0.001177759
0.001176314
0.0011755492
0.0011743473
0.0011750738
0.001173442
0.0011765498
0.0011707469
0.0011760376
2.8106097e-06
2.4284577e-05
2.5264278e-05
3.2602605e-05
2.6240625e-05
3.0068894e-05
2.7014153e-05
2.7739334e-05
2.6499423e-05
2.6318244e-05
2.5982567e-05
2.57394e-05
2.5826813e-05
2.5849226e-05
2.6227409e-05
2.6580034e-05
2.7208361e-05
2.786034e-05
2.870142e-05
2.9592737e-05
3.062575e-05
3.1751897e-05
3.3038911e-05
3.4493022e-05
3.6162901e-05
3.805833e-05
4.0196238e-05
4.2581229e-05
4.5238407e-05
4.821257e-05
5.1572186e-05
5.5383821e-05
5.9776931e-05
6.4895633e-05
7.0898764e-05
7.7971596e-05
8.6209728e-05
9.5751197e-05
0.00010694613
0.00012038002
0.00013648359
0.00015577768
0.0001790618
0.00020732674
0.0002417106
0.00028369099
0.00033512253
0.00039826361
0.00047592862
0.00057153089
0.00068906201
0.00083301561
0.0010079404
0.0012119293
0.0012131544
0.0012133772
0.0012128342
0.0012118284
0.0012106042
0.0012092131
0.0012076069
0.00120571
0.0012034043
0.0012005243
0.001196911
0.0011926348
0.0011889486
0.0011858991
0.0011833609
0.001181214
0.001179338
0.0011777654
0.0011763292
0.0011754497
0.0011742939
0.0011747649
0.0011732748
0.0011762859
0.001170856
0.0011759325
2.5022996e-06
2.3875918e-05
2.3659638e-05
3.0034067e-05
2.4571347e-05
2.7827895e-05
2.5447546e-05
2.5736475e-05
2.4985862e-05
2.4459153e-05
2.4349617e-05
2.3884367e-05
2.4049493e-05
2.3934197e-05
2.4308572e-05
2.4560026e-05
2.5136568e-05
2.5694126e-05
2.6454746e-05
2.7248511e-05
2.8186199e-05
2.92085e-05
3.0383823e-05
3.1709221e-05
3.3226732e-05
3.4940995e-05
3.686854e-05
3.9017672e-05
4.1417237e-05
4.4111978e-05
4.7166183e-05
5.0656348e-05
5.467096e-05
5.9287507e-05
6.4665853e-05
7.1000123e-05
7.8550363e-05
8.7463961e-05
9.7787431e-05
0.00010994793
0.00012459342
0.00014220412
0.00016336716
0.00018901486
0.00022019013
0.00025814076
0.00030450328
0.00036122827
0.00043067442
0.00051568296
0.00061944704
0.00074542222
0.0008968955
0.0010763999
0.0012122629
0.0012126358
0.001212155
0.0012111455
0.0012099044
0.0012085061
0.0012069069
0.0012050365
0.0012027793
0.0011999561
0.0011963548
0.0011921938
0.0011886775
0.0011857706
0.0011833258
0.0011812234
0.0011793641
0.0011777684
0.001176339
0.0011753818
0.0011742802
0.0011745382
0.0011732088
0.0011760545
0.0011707589
0.0011755704
2.2347232e-06
2.3408725e-05
2.2092965e-05
2.7584163e-05
2.2944315e-05
2.5619977e-05
2.390895e-05
2.3790959e-05
2.3498936e-05
2.2669203e-05
2.2759022e-05
2.2116159e-05
2.2341724e-05
2.2124076e-05
2.248784e-05
2.2663515e-05
2.3189824e-05
2.3672139e-05
2.4360214e-05
2.5073034e-05
2.5926805e-05
2.6859635e-05
2.7935018e-05
2.9145115e-05
3.0525244e-05
3.207867e-05
3.3822944e-05
3.5771258e-05
3.7955115e-05
4.0417849e-05
4.321733e-05
4.6419743e-05
5.0101986e-05
5.4358477e-05
5.9300977e-05
6.505872e-05
7.1846893e-05
7.9996154e-05
8.9689265e-05
0.00010095793
0.00011431869
0.00013048531
0.00014993077
0.00017338802
0.00020188841
0.00023651668
0.00027868467
0.0003301268
0.00039283395
0.00046919221
0.00056180635
0.00067338541
0.00080642704
0.00096279616
0.001143455
0.0012119114
0.0012115033
0.0012104877
0.0012092226
0.0012078095
0.0012062093
0.0012043582
0.0012021472
0.00119939
0.0011958048
0.0011918137
0.0011884582
0.0011856634
0.0011832819
0.001181204
0.0011793534
0.0011777419
0.0011763257
0.0011753111
0.001174275
0.0011743331
0.0011731609
0.0011756779
0.0011708319
0.0011753508
2.0009716e-06
2.2900701e-05
2.0542604e-05
2.5301671e-05
2.1407636e-05
2.3473466e-05
2.2435638e-05
2.1891684e-05
2.2032447e-05
2.0913034e-05
2.1182295e-05
2.0392422e-05
2.0667243e-05
2.0374663e-05
2.0724851e-05
2.0844585e-05
2.1323625e-05
2.1745393e-05
2.2367884e-05
2.3011747e-05
2.3789978e-05
2.4643086e-05
2.5627221e-05
2.6732841e-05
2.7989512e-05
2.9401276e-05
3.0986848e-05
3.2763185e-05
3.4762405e-05
3.7025332e-05
3.960358e-05
4.2556281e-05
4.5953397e-05
4.9878582e-05
5.4438103e-05
5.9768516e-05
6.6008443e-05
7.3385039e-05
8.229113e-05
9.2883577e-05
0.00010528634
0.00012010911
0.00013807026
0.00015967976
0.00018586291
0.000217666
0.00025627566
0.00030324552
0.00036029596
0.00042943981
0.00051285988
0.00061275594
0.00073117979
0.00086978842
0.0010299231
0.0012111868
0.0012108674
0.0012098461
0.0012085516
0.0012071178
0.0012055099
0.0012036717
0.0012015047
0.0011988283
0.0011953233
0.0011915225
0.001188295
0.0011855726
0.0011832233
0.0011811543
0.0011793094
0.001177693
0.0011762958
0.0011752435
0.0011742741
0.001174155
0.0011731516
0.0011753693
0.0011708822
0.0011751023
1.7961446e-06
2.2344015e-05
1.9020322e-05
2.3175458e-05
1.9965027e-05
2.1414517e-05
2.1029202e-05
2.0074362e-05
2.058812e-05
1.9221003e-05
1.9630317e-05
1.8738144e-05
1.9043033e-05
1.8706985e-05
1.9038069e-05
1.9121922e-05
1.9556311e-05
1.9931597e-05
2.049567e-05
2.108199e-05
2.1793402e-05
2.2576815e-05
2.3479743e-05
2.4493521e-05
2.5643081e-05
2.6934426e-05
2.8387022e-05
3.0020195e-05
3.1865132e-05
3.3959439e-05
3.634923e-05
3.908807e-05
4.2240618e-05
4.5886256e-05
5.0123449e-05
5.5073125e-05
6.0890654e-05
6.774159e-05
7.5886935e-05
8.5732922e-05
9.7387841e-05
0.00011116476
0.00012780339
0.00014790517
0.00017215234
0.00020158669
0.00023724741
0.00028049647
0.00033286913
0.00039608077
0.00047201337
0.00056254797
0.00066953301
0.00079472108
0.0009400743
0.0011084637
0.0012102409
0.0012092165
0.001207888
0.0012064284
0.001204807
0.0012029751
0.0012008479
0.0011982624
0.0011948959
0.0011912697
0.0011881343
0.0011854546
0.0011831211
0.0011810598
0.0011792274
0.0011776212
0.0011762482
0.0011751764
0.0011742677
0.0011739974
0.0011731461
0.0011750177
0.0011709945
0.0011749444
1.6234673e-06
2.172772e-05
1.7724877e-05
2.119869e-05
1.8597623e-05
1.9438474e-05
1.9664955e-05
1.8335884e-05
1.9139491e-05
1.7586136e-05
1.8086629e-05
1.7143264e-05
1.7457419e-05
1.7108889e-05
1.7415923e-05
1.7481712e-05
1.7874634e-05
1.8215415e-05
1.8728097e-05
1.9266566e-05
1.991929e-05
2.0641977e-05
2.1473501e-05
2.2407638e-05
2.3465698e-05
2.4655804e-05
2.5997469e-05
2.7510979e-05
2.9225664e-05
3.1176062e-05
3.3403943e-05
3.5958812e-05
3.8901487e-05
4.230649e-05
4.626649e-05
5.0895599e-05
5.6333941e-05
6.2756778e-05
7.0348705e-05
7.9460771e-05
9.0402588e-05
0.00010338882
0.0001188825
0.00013768594
0.00016033079
0.00018775088
0.00022093984
0.00026107338
0.00030955022
0.00036787332
0.00043772028
0.0005208148
0.00061899231
0.00073430395
0.00086946097
0.0010286517
0.0012096138
0.0012085925
0.0012072266
0.0012057374
0.0012040977
0.0012022661
0.0012001723
0.0011976801
0.0011944995
0.0011910208
0.0011879467
0.0011852916
0.0011829696
0.0011809226
0.0011791137
0.0011775316
0.0011761866
0.0011751103
0.001174253
0.0011738599
0.0011731533
0.0011746942
0.0011710956
0.0011747971
1.4798924e-06
2.001738e-05
1.6656767e-05
1.9317727e-05
1.7304012e-05
1.7587187e-05
1.8338052e-05
1.6674632e-05
1.768345e-05
1.601296e-05
1.6557134e-05
1.5612723e-05
1.5917977e-05
1.558394e-05
1.5864038e-05
1.5926347e-05
1.6282101e-05
1.6598454e-05
1.7067174e-05
1.7566536e-05
1.816905e-05
1.8840087e-05
1.9610731e-05
2.0477845e-05
2.1459824e-05
2.2566583e-05
2.3817002e-05
2.523133e-05
2.6836857e-05
2.8665572e-05
3.0756159e-05
3.3155144e-05
3.5920354e-05
3.9122522e-05
4.2848867e-05
4.7207327e-05
5.232961e-05
5.8375814e-05
6.5547813e-05
7.408913e-05
8.4370563e-05
9.6633896e-05
0.00011126482
0.00012892435
0.0001502413
0.00017597464
0.00020709999
0.00024465633
0.00028992577
0.00034427961
0.00040927447
0.00048660433
0.00057823401
0.00068663569
0.00081531561
0.00096965758
0.0011580836
0.0012079685
0.001206563
0.0012050415
0.0012033799
0.0012015432
0.0011994744
0.0011970677
0.0011940923
0.0011907376
0.0011877052
0.0011850697
0.0011827659
0.001180746
0.0011789726
0.0011774261
0.0011761122
0.0011750443
0.0011742282
0.001173742
0.0011731536
0.0011743104
0.0011712238
0.0011746879
1.3535192e-06
1.7537842e-05
1.5584817e-05
1.750573e-05
1.609513e-05
1.5869719e-05
1.7057493e-05
1.5107614e-05
1.6234479e-05
1.4517661e-05
1.5060783e-05
1.415808e-05
1.4438894e-05
1.4139021e-05
1.4390421e-05
1.4459046e-05
1.4781993e-05
1.5081172e-05
1.5512844e-05
1.5980347e-05
1.6540626e-05
1.7168459e-05
1.7888296e-05
1.8700066e-05
1.9619751e-05
2.0658389e-05
2.1833898e-05
2.316596e-05
2.4680073e-05
2.6406344e-05
2.8381277e-05
3.0649163e-05
3.3265316e-05
3.6297109e-05
3.9827634e-05
4.3959512e-05
4.8817139e-05
5.4555792e-05
6.1371517e-05
6.945815e-05
7.9178226e-05
9.0811063e-05
0.00010471726
0.00012142358
0.00014162845
0.00016597605
0.00019539272
0.00023084217
0.00027351062
0.00032470477
0.0003859392
0.00045897724
0.00054601692
0.00065001629
0.00077525687
0.00092814996
0.0011182463
0.0012073388
0.0012058926
0.0012043374
0.0012026518
0.0012008054
0.0011987526
0.0011964153
0.0011936336
0.0011903928
0.0011873965
0.001184788
0.0011825158
0.0011805365
0.0011788092
0.0011773072
0.0011760277
0.0011749785
0.0011741946
0.0011736459
0.0011731624
0.0011739725
0.0011713498
0.0011745948
1.2383691e-06
1.5834841e-05
1.4438555e-05
1.5768002e-05
1.4968154e-05
1.4295293e-05
1.5810763e-05
1.3644054e-05
1.4798511e-05
1.3108383e-05
1.36114e-05
1.278503e-05
1.3030314e-05
1.2777609e-05
1.3000723e-05
1.308181e-05
1.3377013e-05
1.3664585e-05
1.40661e-05
1.4508265e-05
1.503422e-05
1.5626988e-05
1.6305715e-05
1.7072853e-05
1.7942436e-05
1.8926038e-05
2.0040535e-05
2.1304928e-05
2.2743332e-05
2.438455e-05
2.6263518e-05
2.8422683e-05
3.0915214e-05
3.3805672e-05
3.71736e-05
4.1116644e-05
4.5754286e-05
5.1236815e-05
5.7742655e-05
6.547714e-05
7.474984e-05
8.5854482e-05
9.9113829e-05
0.0001150696
0.00013435567
0.00015758503
0.00018561545
0.00021937831
0.0002599974
0.00030876659
0.00036722982
0.00043729299
0.00052145325
0.0006231692
0.00074741907
0.00090140933
0.0010953393
0.0012066983
0.0012052114
0.0012036223
0.0012019116
0.0012000527
0.0011980077
0.001195719
0.0011930892
0.0011899717
0.0011870185
0.0011844518
0.0011822271
0.0011803004
0.0011786275
0.0011771761
0.0011759354
0.0011749141
0.0011741548
0.0011735708
0.0011731759
0.0011736751
0.0011714901
0.0011745207
1.1356565e-06
1.5075434e-05
1.3301244e-05
1.4100956e-05
1.3902277e-05
1.285116e-05
1.4568641e-05
1.2275602e-05
1.3374774e-05
1.1780792e-05
1.2215623e-05
1.1490973e-05
1.1696056e-05
1.1497983e-05
1.1696129e-05
1.1793483e-05
1.2067004e-05
1.2347654e-05
1.26823e-05
1.309773e-05
1.3591002e-05
1.4151092e-05
1.4792534e-05
1.5519267e-05
1.6343439e-05
1.7276585e-05
1.8334456e-05
1.9535259e-05
2.0901875e-05
2.2461988e-05
2.4249163e-05
2.6303959e-05
2.8677501e-05
3.1431741e-05
3.4642919e-05
3.840437e-05
4.2831537e-05
4.8069196e-05
5.4636153e-05
6.2086958e-05
7.1013526e-05
8.1689543e-05
9.4414027e-05
0.00010977343
0.00012831366
0.00015065231
0.00017758821
0.0002100432
0.0002491197
0.00029613884
0.00035273299
0.00042099983
0.00050376421
0.00060495169
0.00073009416
0.0008868715
0.0010855347
0.0012060422
0.0012045157
0.0012028936
0.0012011582
0.0011992854
0.0011972428
0.0011949836
0.0011924354
0.0011894723
0.0011865784
0.0011840717
0.0011819085
0.0011800433
0.0011784307
0.0011770354
0.001175839
0.0011748528
0.001174113
0.0011735175
0.0011731955
0.0011734252
0.0011716401
0.0011744596
1.0461265e-06
1.4309351e-05
1.2230069e-05
1.2531971e-05
1.2874301e-05
1.1517606e-05
1.3312095e-05
1.0992911e-05
1.1973227e-05
1.0531519e-05
1.0883808e-05
1.0275108e-05
1.044157e-05
1.0300516e-05
1.0438204e-05
1.0538749e-05
1.0788343e-05
1.1061084e-05
1.1418845e-05
1.1825826e-05
1.2303306e-05
1.284567e-05
1.3464711e-05
1.4165832e-05
1.4960076e-05
1.58591e-05
1.6878012e-05
1.8034608e-05
1.9351052e-05
2.0854353e-05
2.2577271e-05
2.455892e-05
2.6849041e-05
2.9507825e-05
3.2609304e-05
3.6243771e-05
4.0523755e-05
4.5590994e-05
5.1604001e-05
5.8781216e-05
6.7373224e-05
7.7620237e-05
9.0542063e-05
0.00010543882
0.00012339325
0.00014504563
0.00017116138
0.00020266275
0.00024067219
0.00028657032
0.00034212016
0.00040963615
0.00049226006
0.00059429762
0.00072161832
0.00088196412
0.0010849802
0.0012053667
0.0012038025
0.0012021492
0.0012003905
0.0011985045
0.0011964625
0.0011942254
0.0011917361
0.0011889037
0.0011860886
0.0011836583
0.0011815677
0.0011797707
0.0011782228
0.0011768875
0.0011757416
0.0011747966
0.0011740735
0.0011734846
0.0011732199
0.0011732282
0.0011718062
0.0011744036
9.678451e-07
1.3506093e-05
1.1216382e-05
1.1101007e-05
1.1898434e-05
1.0281956e-05
1.2038409e-05
9.7923742e-06
1.0613462e-05
9.3609807e-06
9.6286701e-06
9.139239e-06
9.2125022e-06
9.108517e-06
9.2648847e-06
9.3970155e-06
9.6466191e-06
9.9262608e-06
1.0278358e-05
1.0680098e-05
1.114673e-05
1.1676474e-05
1.2279225e-05
1.2961368e-05
1.3733129e-05
1.4606228e-05
1.5595344e-05
1.6717955e-05
1.7995676e-05
1.9454988e-05
2.1128151e-05
2.3052989e-05
2.5278272e-05
2.7862909e-05
3.0879303e-05
3.4415497e-05
3.8581225e-05
4.3516402e-05
4.9374696e-05
5.6372632e-05
6.4751689e-05
7.4728932e-05
8.6646231e-05
0.00010106709
0.00011847563
0.0001406487
0.00016620716
0.00019709285
0.0002344832
0.00027984436
0.00033509233
0.00040275642
0.00048624156
0.00059009013
0.0007202267
0.00088400507
0.0010899104
0.0012046685
0.0012030696
0.0012013877
0.0011996079
0.0011977104
0.0011956696
0.0011934518
0.0011910112
0.0011882811
0.0011855627
0.0011832219
0.0011812118
0.0011794874
0.0011780075
0.0011767358
0.0011756461
0.0011747468
0.0011740408
0.0011734719
0.0011732484
0.0011730882
0.0011719809
0.0011743136
8.9931948e-07
1.262805e-05
1.0259384e-05
9.7971585e-06
1.0958245e-05
9.13807e-06
1.0753898e-05
8.6729421e-06
9.3167353e-06
8.2703711e-06
8.3910124e-06
7.9842145e-06
8.0800793e-06
8.0458183e-06
8.2083822e-06
8.3675962e-06
8.6196905e-06
8.9066078e-06
9.2565938e-06
9.6561307e-06
1.0116383e-05
1.063813e-05
1.1230022e-05
1.1899133e-05
1.2655109e-05
1.3509721e-05
1.447738e-05
1.5575318e-05
1.6824681e-05
1.8251509e-05
1.9818691e-05
2.1686568e-05
2.3846351e-05
2.6355722e-05
2.9285485e-05
3.2721648e-05
3.697593e-05
4.181431e-05
4.7558466e-05
5.4423648e-05
6.2657227e-05
7.2442883e-05
8.412332e-05
9.8271308e-05
0.00011540211
0.00013610733
0.00016117501
0.00019321716
0.00023040612
0.00027576166
0.0003313525
0.0003998899
0.00048494452
0.00059110313
0.00072403799
0.00089034251
0.0010971075
0.0012039458
0.0012023155
0.0012006083
0.0011988104
0.001196904
0.001194866
0.0011926671
0.0011902692
0.0011876214
0.0011850136
0.001182771
0.0011808469
0.0011791988
0.0011777892
0.0011765831
0.0011755543
0.0011747044
0.0011740186
0.0011734787
0.0011732808
0.0011730019
0.0011721734
0.001174258
8.3940293e-07
1.1648955e-05
9.3531576e-06
8.6072954e-06
1.0029666e-05
8.0783265e-06
9.4734545e-06
7.631897e-06
8.1009735e-06
7.1485737e-06
7.2421881e-06
6.9689972e-06
7.0695219e-06
7.093331e-06
7.2639595e-06
7.4464895e-06
7.7035537e-06
7.9983508e-06
8.3494268e-06
8.7496024e-06
9.2074557e-06
9.7254025e-06
1.0311308e-05
1.0952497e-05
1.1692887e-05
1.2529284e-05
1.3475646e-05
1.4548736e-05
1.5769032e-05
1.7161746e-05
1.8757625e-05
2.0594376e-05
2.2718308e-05
2.5186643e-05
2.8069486e-05
3.1452306e-05
3.5443437e-05
4.0174734e-05
4.5792583e-05
5.2515288e-05
6.0595138e-05
7.0706786e-05
8.2228119e-05
9.6218673e-05
0.00011320541
0.00013377023
0.00015874354
0.00018912809
0.00022829523
0.00027410892
0.00033056491
0.00040049164
0.00048749314
0.00059599264
0.00073116078
0.00089867812
0.0011044437
0.0012031976
0.0012015401
0.0011998113
0.0011979988
0.0011960866
0.0011940542
0.0011918757
0.001189518
0.0011869405
0.0011844519
0.0011823133
0.0011804789
0.0011789098
0.0011775718
0.0011764323
0.0011754667
0.0011746687
0.0011740095
0.0011735049
0.001173317
0.0011729612
0.0011723682
0.001174234
7.8741685e-07
1.0551892e-05
8.4922724e-06
7.5199291e-06
9.0900886e-06
7.0972136e-06
8.2213568e-06
6.6178566e-06
6.825382e-06
6.149106e-06
6.2296487e-06
6.0669482e-06
6.1749226e-06
6.246537e-06
6.4272748e-06
6.6301187e-06
6.8943697e-06
7.1978114e-06
7.5527797e-06
7.9562134e-06
8.4014037e-06
8.9151261e-06
9.4951227e-06
1.0148695e-05
1.0885311e-05
1.1716189e-05
1.2655212e-05
1.3719028e-05
1.4927835e-05
1.6306659e-05
1.7886014e-05
1.9703343e-05
2.1804806e-05
2.4247408e-05
2.7100785e-05
3.0450291e-05
3.4405315e-05
3.9094536e-05
4.4660909e-05
5.1337449e-05
5.9377675e-05
6.8884358e-05
8.0221535e-05
9.4054811e-05
0.00011181987
0.00013241592
0.00015751012
0.00018816398
0.00022576968
0.00027463592
0.00033232749
0.00040392023
0.00049291022
0.00060339222
0.00073993709
0.00090744834
0.0011111655
0.0012024244
0.0012007442
0.0011989979
0.0011971746
0.0011952602
0.0011932367
0.0011910813
0.0011887645
0.0011862513
0.0011838867
0.0011818551
0.0011801132
0.0011786249
0.0011773588
0.0011762854
0.0011753834
0.0011746388
0.0011740143
0.00117355
0.0011733593
0.001172958
0.0011725619
0.0011742358
7.4294018e-07
9.3332942e-06
7.6802556e-06
6.5243432e-06
8.1219303e-06
6.1901325e-06
7.0250443e-06
5.5988085e-06
5.7442115e-06
5.2710789e-06
5.3449635e-06
5.2722229e-06
5.3907728e-06
5.5013114e-06
5.6940178e-06
5.9148906e-06
6.18816e-06
6.5011073e-06
6.8504533e-06
7.2563651e-06
7.7162878e-06
8.2345039e-06
8.8176675e-06
9.4733103e-06
1.021087e-05
1.1041534e-05
1.1979121e-05
1.3040257e-05
1.4244866e-05
1.5617924e-05
1.7189847e-05
1.8998034e-05
2.1088778e-05
2.351914e-05
2.6358548e-05
2.9693548e-05
3.3634826e-05
3.8306067e-05
4.3852361e-05
5.0532009e-05
5.8573718e-05
6.8032464e-05
7.9342411e-05
9.3234483e-05
0.00011018857
0.00013081834
0.00015738153
0.00018853988
0.00022690429
0.00027429361
0.00033615296
0.00040944498
0.00050018613
0.00061208202
0.00074919611
0.00091600454
0.0011176792
0.001201628
0.0011999298
0.0011981706
0.0011963404
0.0011944273
0.0011924161
0.0011902871
0.0011880145
0.0011855649
0.0011833256
0.0011814024
0.0011797543
0.0011783477
0.0011771533
0.0011761446
0.0011753044
0.0011746128
0.0011740313
0.0011736117
0.0011734142
0.0011729948
0.001172764
0.0011742422
7.0638415e-07
8.0082441e-06
6.9395902e-06
5.6136668e-06
7.1155308e-06
5.3550362e-06
5.7220178e-06
4.7111747e-06
4.8126007e-06
4.5074134e-06
4.5801158e-06
4.5786022e-06
4.7111954e-06
4.8533532e-06
5.0594572e-06
5.2968213e-06
5.5708676e-06
5.8917326e-06
6.2590551e-06
6.6740986e-06
7.1418884e-06
7.6672809e-06
8.2568929e-06
8.9183773e-06
9.6611573e-06
1.0496324e-05
1.1437641e-05
1.2479431e-05
1.3678806e-05
1.5044024e-05
1.6605181e-05
1.8399458e-05
2.047304e-05
2.2882745e-05
2.5697863e-05
2.9006689e-05
3.2919534e-05
3.7554406e-05
4.3069715e-05
5.0067759e-05
5.8128812e-05
6.7567403e-05
7.8941354e-05
9.2996676e-05
0.000110155
0.00013110925
0.00015680757
0.00019008601
0.00022938634
0.00027798398
0.00033810414
0.00041629879
0.00050839896
0.00062116029
0.00075836791
0.00092446109
0.0011249668
0.0012008117
0.0011991009
0.0011973333
0.0011955003
0.0011935919
0.0011915956
0.001189496
0.0011872713
0.0011848906
0.0011827758
0.0011809607
0.0011794065
0.0011780815
0.0011769578
0.0011760124
0.0011752304
0.0011745885
0.0011740538
0.0011736825
0.0011734823
0.0011730636
0.0011729663
0.00117424
6.792814e-07
6.7379646e-06
6.2543821e-06
4.7817267e-06
6.0791985e-06
4.4262648e-06
5.1203646e-06
3.9709874e-06
4.0111228e-06
3.8454566e-06
3.9274504e-06
3.9801397e-06
4.1296463e-06
4.2981761e-06
4.5114976e-06
4.7618985e-06
5.0555256e-06
5.3892965e-06
5.767723e-06
6.1933615e-06
6.6711306e-06
7.20624e-06
7.8052852e-06
8.4759482e-06
9.2175566e-06
1.0057457e-05
1.1002013e-05
1.2067435e-05
1.3273628e-05
1.4645081e-05
1.6212026e-05
1.8011983e-05
2.0091605e-05
2.2507978e-05
2.5331528e-05
2.8653516e-05
3.2583334e-05
3.7236578e-05
4.2795993e-05
4.9544388e-05
5.7564841e-05
6.7443771e-05
7.8976114e-05
9.3262912e-05
0.00011071755
0.00013211149
0.00015840819
0.00019082486
0.00023290129
0.00028270958
0.00034413196
0.00041964166
0.00051683306
0.00063011629
0.00076737733
0.00093330409
0.0011339601
0.0011999808
0.0011982626
0.0011964916
0.00119466
0.0011927593
0.0011907796
0.0011887097
0.0011865352
0.0011842367
0.0011822439
0.001180535
0.0011790736
0.001177829
0.0011767749
0.0011758908
0.0011751628
0.0011745653
0.0011740758
0.0011737531
0.001173555
0.0011731428
0.0011731823
0.0011742307
6.6442094e-07
5.5498702e-06
5.6038148e-06
4.0367035e-06
5.2280304e-06
3.9155509e-06
3.7701385e-06
3.3028221e-06
3.3519541e-06
3.2758779e-06
3.3780814e-06
3.4732555e-06
3.6405153e-06
3.8250545e-06
4.0579741e-06
4.3252515e-06
4.6324066e-06
4.9792124e-06
5.3697534e-06
5.8073946e-06
6.2970277e-06
6.8440633e-06
7.4496549e-06
8.1300087e-06
8.8906246e-06
9.7423749e-06
1.0698481e-05
1.177512e-05
1.2992242e-05
1.4374448e-05
1.5952258e-05
1.7763706e-05
1.9855925e-05
2.2286339e-05
2.5127621e-05
2.8474186e-05
3.2431701e-05
3.7116577e-05
4.2744118e-05
4.9583035e-05
5.7641683e-05
6.7113256e-05
7.9360335e-05
9.3936722e-05
0.00011177105
0.00013368905
0.00016066223
0.00019392741
0.00023708574
0.00028799729
0.00035050739
0.00042695599
0.00052501704
0.00063874562
0.0007763713
0.00094296137
0.0011451018
0.0011991412
0.0011974215
0.0011956525
0.001193827
0.0011919372
0.0011899751
0.0011879314
0.0011857965
0.0011836107
0.0011817356
0.0011801297
0.0011787583
0.001177592
0.0011766055
0.0011757805
0.0011751022
0.0011745441
0.0011740953
0.0011738093
0.001173602
0.001173212
0.0011733572
0.0011742223
6.6603917e-07
4.5216236e-06
4.9759094e-06
4.1236975e-06
4.7236636e-06
2.9860278e-06
3.0419569e-06
2.7446317e-06
2.8090881e-06
2.8049231e-06
2.9255016e-06
3.0555118e-06
3.2336177e-06
3.4431732e-06
3.6916361e-06
3.9740684e-06
4.2945512e-06
4.6546044e-06
5.0581334e-06
5.5089652e-06
6.0119712e-06
6.5690989e-06
7.1923538e-06
7.8869264e-06
8.6617635e-06
9.5276538e-06
1.0497744e-05
1.158822e-05
1.2819085e-05
1.4215141e-05
1.5807309e-05
1.7634241e-05
1.9743405e-05
2.2193194e-05
2.5059796e-05
2.8438901e-05
3.2428494e-05
3.7158283e-05
4.2888836e-05
4.9833782e-05
5.7917399e-05
6.7980694e-05
8.0011817e-05
9.4933958e-05
0.00011320278
0.00013568573
0.00016335445
0.00019743841
0.0002415455
0.00029337901
0.0003567393
0.00043389829
0.00053265649
0.00064696103
0.00078542419
0.00095349364
0.0011581482
0.0011983003
0.0011965849
0.0011948237
0.0011930097
0.0011911361
0.0011891949
0.0011871781
0.0011850768
0.0011830191
0.0011812559
0.0011797481
0.0011784626
0.0011773709
0.0011764492
0.0011756802
0.0011750476
0.0011745258
0.0011741132
0.0011738509
0.0011736321
0.0011732819
0.001173476
0.0011742056
6.862023e-07
4.7663976e-06
4.4179389e-06
3.8927278e-06
3.7060678e-06
2.3895782e-06
2.4718384e-06
2.2917525e-06
2.3697214e-06
2.4241861e-06
2.5618551e-06
2.7157986e-06
2.9136276e-06
3.1412875e-06
3.4039171e-06
3.70041e-06
4.0342113e-06
4.4078085e-06
4.8250291e-06
5.2899172e-06
5.8054242e-06
6.37985e-06
7.0183203e-06
7.7282487e-06
8.5184888e-06
9.3997515e-06
1.0385127e-05
1.1490807e-05
1.273689e-05
1.4148472e-05
1.5756972e-05
1.760153e-05
1.9730052e-05
2.2203173e-05
2.5100818e-05
2.8514908e-05
3.2538348e-05
3.7339436e-05
4.3209143e-05
5.0211255e-05
5.8672886e-05
6.8500935e-05
8.0892765e-05
9.6162777e-05
0.00011488066
0.00013790926
0.00016622815
0.00020102943
0.00024587748
0.00029841893
0.0003624115
0.00044013042
0.0005395094
0.00065459951
0.00079433356
0.0009644565
0.0011721709
0.001197466
0.0011957607
0.001194013
0.0011922167
0.0011903649
0.0011884509
0.0011864669
0.0011844052
0.001182467
0.0011808083
0.0011793921
0.0011781867
0.0011771648
0.0011763037
0.0011755867
0.0011749959
0.001174508
0.0011741285
0.0011738818
0.0011736517
0.0011733434
0.0011735589
0.0011741354
6.234753e-07
5.0152663e-06
3.7079151e-06
2.3429049e-06
2.4115234e-06
1.974511e-06
1.9952274e-06
1.9391694e-06
2.0251295e-06
2.1239907e-06
2.2779184e-06
2.4540741e-06
2.6672866e-06
2.9102052e-06
3.1862453e-06
3.4962902e-06
3.8435406e-06
4.2309403e-06
4.6622646e-06
5.1416167e-06
5.6737493e-06
6.2623004e-06
6.9162166e-06
7.6416901e-06
8.4474903e-06
9.3442469e-06
1.0345051e-05
1.1466119e-05
1.2727714e-05
1.4155192e-05
1.5780433e-05
1.7642935e-05
1.9791615e-05
2.2290329e-05
2.5220409e-05
2.8666047e-05
3.2730493e-05
3.7832844e-05
4.3861577e-05
5.0891943e-05
5.9047153e-05
6.9169171e-05
8.1886651e-05
9.7470124e-05
0.00011661838
0.00014012994
0.0001689984
0.00020615858
0.00024969426
0.00030272287
0.00036715544
0.00044532749
0.00054525388
0.00066127786
0.00080251156
0.00097487536
0.0011856432
0.0011966473
0.0011949572
0.0011932283
0.0011914548
0.0011896306
0.0011877492
0.0011858037
0.001183787
0.0011819581
0.0011803951
0.0011790626
0.0011779303
0.0011769721
0.0011761666
0.0011754968
0.0011749437
0.0011744877
0.0011741375
0.0011739006
0.0011736635
0.0011734003
0.0011736148
0.0011740437
4.6595503e-07
2.6339123e-06
2.7124081e-06
1.889059e-06
1.864706e-06
1.6142901e-06
1.6383754e-06
1.6540633e-06
1.7609172e-06
1.8905042e-06
2.0611477e-06
2.2561024e-06
2.4833395e-06
2.7400413e-06
3.0290918e-06
3.3523201e-06
3.7128275e-06
4.1137465e-06
4.5587891e-06
5.0520485e-06
5.5982038e-06
6.2025942e-06
6.8714337e-06
7.6120578e-06
8.4332778e-06
9.3458354e-06
1.0362977e-05
1.1501173e-05
1.2781023e-05
1.4228478e-05
1.5876093e-05
1.7763918e-05
1.9942803e-05
2.2480375e-05
2.5455268e-05
2.8945991e-05
3.3088465e-05
3.8139214e-05
4.4214405e-05
5.1175176e-05
5.941605e-05
6.983125e-05
8.2815542e-05
9.8695155e-05
0.00011819239
0.00014327818
0.00017274834
0.00020873245
0.0002525683
0.00030584711
0.00037051761
0.00045324683
0.00054930236
0.00066621887
0.0008088519
0.00098317648
0.0011964419
0.0011958535
0.0011941831
0.0011924775
0.0011907313
0.0011889391
0.001187095
0.0011851928
0.0011832258
0.0011814945
0.0011800167
0.0011787589
0.0011776919
0.0011767906
0.0011760346
0.0011754069
0.0011748879
0.0011744617
0.0011741365
0.0011739057
0.0011736701
0.001173449
0.0011736339
0.0011739209
3.6634353e-07
1.9292414e-06
2.0697797e-06
1.4942192e-06
1.4554181e-06
1.3301953e-06
1.3741492e-06
1.4385434e-06
1.5653022e-06
1.7175183e-06
1.9023911e-06
2.1126465e-06
2.3520684e-06
2.6208905e-06
2.9217004e-06
3.2567768e-06
3.6291265e-06
4.0419508e-06
4.4989071e-06
5.0040627e-06
5.5620465e-06
6.1781463e-06
6.8585116e-06
7.610409e-06
8.4425739e-06
9.3656755e-06
1.0392887e-05
1.1540648e-05
1.2829688e-05
1.4286165e-05
1.5942483e-05
1.7839067e-05
2.0029442e-05
2.2581922e-05
2.5566855e-05
2.9069806e-05
3.3277591e-05
3.8420613e-05
4.442681e-05
5.1281745e-05
5.9705122e-05
7.0922324e-05
8.4187199e-05
0.00010040037
0.00012025492
0.00014452673
0.00017415558
0.0002102457
0.00025412472
0.00030740593
0.00037548801
0.00045466392
0.00055103651
0.00066858174
0.00081218663
0.00098779497
0.0011967152
0.0011950958
0.0011934484
0.001191769
0.001190053
0.0011882955
0.0011864917
0.0011846361
0.0011827233
0.0011810761
0.0011796721
0.0011784787
0.0011774681
0.0011766161
0.0011759031
0.0011753117
0.001174823
0.0011744243
0.0011741208
0.0011738958
0.0011736708
0.0011734927
0.0011736463
0.0011738187
2.8365278e-07
1.4737641e-06
1.5308806e-06
1.2032381e-06
1.1584059e-06
1.1172756e-06
1.1829515e-06
1.2837087e-06
1.4284749e-06
1.5989913e-06
1.7972931e-06
2.0211788e-06
2.2728407e-06
2.5536909e-06
2.8662159e-06
3.2127287e-06
3.5965043e-06
4.0206438e-06
4.4887818e-06
5.0049866e-06
5.5738708e-06
6.2007017e-06
6.8915958e-06
7.6537714e-06
8.4959065e-06
9.4286147e-06
1.0465043e-05
1.1621664e-05
1.2919325e-05
1.4384117e-05
1.6048401e-05
1.7954072e-05
2.0157201e-05
2.2721482e-05
2.5801829e-05
2.9356357e-05
3.3680208e-05
3.886546e-05
4.4758579e-05
5.1667008e-05
6.0410808e-05
7.1349718e-05
8.4685365e-05
0.0001009977
0.00012090282
0.00014518553
0.00017475055
0.00021257984
0.0002565707
0.00030998818
0.00037491086
0.00045394543
0.00055033231
0.0006680507
0.0008119386
0.00098786422
0.0011959784
0.0011943831
0.0011927613
0.0011911101
0.0011894253
0.0011877028
0.0011859381
0.0011841267
0.0011822781
0.0011807002
0.0011793569
0.0011782168
0.0011772526
0.0011764412
0.0011757634
0.0011752016
0.0011747383
0.0011743629
0.0011740763
0.0011738563
0.0011736461
0.0011735018
0.0011736123
0.001173687
1.8658681e-07
1.1908411e-06
1.1055881e-06
9.7417113e-07
9.4361592e-07
9.582882e-07
1.0436227e-06
1.1682326e-06
1.3253502e-06
1.5071149e-06
1.7135218e-06
1.9447552e-06
2.2025851e-06
2.4888887e-06
2.8060356e-06
3.156617e-06
3.5435806e-06
3.9701918e-06
4.4400788e-06
4.9573024e-06
5.5264657e-06
6.152823e-06
6.8424621e-06
7.602578e-06
8.4418026e-06
9.3706538e-06
1.0402175e-05
1.1552784e-05
1.2843209e-05
1.4299201e-05
1.5953268e-05
1.7849178e-05
2.0041843e-05
2.2585272e-05
2.5551358e-05
2.9104601e-05
3.3426511e-05
3.8429226e-05
4.4092275e-05
5.1035029e-05
5.9860832e-05
7.069754e-05
8.4529092e-05
0.00010074392
0.00012049642
0.0001445473
0.00017379797
0.00020935016
0.00025255859
0.00030511164
0.00036911694
0.0004471914
0.00054254857
0.00065909842
0.00080158484
0.00097578777
0.0011887897
0.0011937525
0.0011921595
0.001190539
0.0011888874
0.001187201
0.0011854763
0.0011837094
0.0011819164
0.0011803874
0.001179087
0.0011779845
0.0011770532
0.0011762704
0.001175617
0.0011750757
0.00117463
0.0011742707
0.0011739939
0.0011737769
0.0011735832