/*--------------------------------*- C++ -*----------------------------------*\
  =========                 |
  \\      /  F ield         | OpenFOAM: The Open Source CFD Toolbox
   \\    /   O peration     | Website:  https://openfoam.org
    \\  /    A nd           | Version:  6
     \\/     M anipulation  |
\*---------------------------------------------------------------------------*/
FoamFile
{
    version     2.0;
    format      ascii;
    class       volScalarField;
    location    "100";
    object      k;
}
// * * * * * * * * * * * * * * * * * * * * * * * * * * * * * * * * * * * * * //

dimensions      [0 2 -2 0 0 0 0];

internalField   nonuniform List<scalar> 
16000
(
0.096372685
0.035885791
0.02360076
0.017448307
0.015891271
0.014431606
0.013560669
0.012897074
0.012413682
0.012083289
0.011829158
0.011638405
0.011486285
0.01136565
0.011266914
0.011185832
0.011118041
0.011060985
0.011012383
0.010970676
0.010934572
0.0109031
0.010875472
0.010851076
0.010829419
0.010810102
0.010792801
0.01077724
0.010763189
0.010750452
0.010738848
0.010728193
0.010718114
0.010708825
0.010700032
0.010691811
0.010684195
0.010677043
0.010670272
0.010663838
0.010657616
0.010651477
0.010645329
0.010639134
0.010632873
0.010626483
0.010619893
0.010613031
0.010605827
0.010598203
0.010590083
0.010581383
0.010572012
0.010561867
0.010550822
0.010538706
0.010525296
0.010510295
0.010493314
0.010473819
0.010451015
0.010423682
0.010390032
0.010347828
0.010295401
0.010234243
0.010179032
0.010133563
0.010097063
0.010067459
0.010043789
0.010024845
0.010010595
0.010002386
0.0099969499
0.010006666
0.010007235
0.010039865
0.010003561
0.010046143
0.084673525
0.036047868
0.02282554
0.017210939
0.015533914
0.014206865
0.013341413
0.012731047
0.012281047
0.011975128
0.011738315
0.011561061
0.011419322
0.011307064
0.01121509
0.011139603
0.011076466
0.011023339
0.010978078
0.010939238
0.010905612
0.010876298
0.010850561
0.010827828
0.010807637
0.010789615
0.010773456
0.010758902
0.010745737
0.010733779
0.010722872
0.01071288
0.010703675
0.010695107
0.010686834
0.010679025
0.01067148
0.010664446
0.010657773
0.010651397
0.010645205
0.010639073
0.010632892
0.010626625
0.010620266
0.010613761
0.010607041
0.010600038
0.010592686
0.010584911
0.010576638
0.010567788
0.010558273
0.010547994
0.010536834
0.01052464
0.010511205
0.010496255
0.010479428
0.010460235
0.010437941
0.01041139
0.010378777
0.010337586
0.01028545
0.010223591
0.01017127
0.010128952
0.010094854
0.01006685
0.010043757
0.010024916
0.010010221
0.010001495
0.0099951712
0.010003544
0.01000316
0.010038308
0.010004287
0.010046721
0.076538402
0.036259032
0.022062806
0.016969621
0.015193414
0.013991449
0.013134951
0.01257376
0.012155554
0.011872684
0.011652413
0.011487974
0.01135617
0.011251909
0.011166419
0.01109629
0.011037623
0.010988268
0.010946217
0.010910131
0.010878886
0.010851644
0.01082772
0.010806579
0.010787789
0.010771002
0.010755929
0.010742331
0.010730005
0.01071878
0.010708509
0.010699068
0.010690347
0.010682235
0.010674632
0.010667324
0.010660175
0.010653138
0.010646459
0.010640099
0.010633894
0.010627718
0.010621459
0.010615072
0.010608567
0.010601897
0.010594997
0.010587804
0.010580254
0.010572276
0.010563802
0.010554752
0.010545043
0.01053458
0.010523252
0.010510918
0.01049739
0.010482415
0.010465657
0.010446668
0.010424784
0.010398933
0.010367349
0.0103273
0.010275588
0.010215761
0.010166198
0.010126221
0.010093643
0.010066516
0.010043667
0.010024838
0.010009936
0.010000911
0.0099943223
0.010001456
0.010000982
0.010037182
0.010001686
0.010043363
0.06928791
0.03622868
0.021324033
0.016718746
0.014869914
0.013777855
0.012940456
0.012424538
0.012036724
0.011775526
0.011571095
0.011418806
0.01129652
0.011199884
0.011120608
0.011055606
0.011001224
0.010955481
0.010916509
0.010883063
0.010854099
0.010828841
0.010806651
0.01078703
0.010769575
0.01075396
0.010739916
0.010727219
0.01071568
0.010705137
0.010695455
0.010686516
0.010678218
0.010670468
0.010663175
0.01065625
0.010649578
0.01064283
0.010636087
0.010629656
0.010623411
0.010617155
0.010610778
0.010604234
0.010597543
0.010590669
0.010583553
0.010576131
0.010568345
0.010560129
0.010551414
0.010542128
0.010532188
0.010521505
0.01050997
0.010497453
0.010483782
0.010468723
0.010451964
0.010433101
0.010411536
0.010386301
0.010355732
0.010316983
0.010265779
0.010208809
0.010161873
0.010123767
0.010092274
0.010065689
0.01004303
0.010024222
0.010009379
0.010000086
0.0099937474
0.0099993076
0.0099993354
0.0100333
0.010001861
0.010041111
0.062838125
0.036000071
0.020605854
0.016454446
0.014561811
0.013563128
0.0127565
0.012283359
0.011924589
0.011683731
0.01149446
0.01135368
0.011240506
0.011151134
0.011077809
0.011017706
0.010967428
0.010925144
0.01088912
0.0108582
0.010831419
0.010808056
0.010787518
0.010769342
0.010753152
0.010738644
0.010725567
0.010713711
0.0107029
0.010692983
0.010683832
0.010675338
0.010667405
0.010659948
0.010652888
0.010646148
0.010639646
0.010633277
0.010626753
0.01062012
0.010613769
0.010607403
0.010600859
0.010594113
0.010587194
0.010580072
0.010572698
0.010565006
0.010556946
0.010548451
0.010539458
0.010529896
0.010519687
0.010508745
0.010496965
0.010484223
0.010470362
0.010455165
0.010438345
0.010419533
0.010398201
0.010373494
0.010343914
0.010306702
0.010257007
0.010203177
0.010158372
0.010121534
0.010090675
0.010064384
0.010041906
0.010023221
0.010008617
0.0099991886
0.009993343
0.0099973784
0.0099982626
0.010030212
0.010001496
0.01003791
0.057107437
0.035548051
0.01990313
0.016173916
0.014268522
0.013344304
0.01258266
0.012150009
0.011818993
0.011597194
0.011422426
0.011292539
0.01118808
0.011105621
0.011037987
0.01098256
0.010936206
0.010897225
0.010864017
0.010835509
0.010810809
0.010789248
0.010770278
0.01075347
0.010738471
0.010725
0.010712822
0.010701742
0.010691595
0.010682241
0.010673561
0.010665452
0.010657825
0.010650601
0.010643707
0.010637076
0.010630644
0.010624333
0.010618051
0.010611456
0.01060484
0.010598335
0.010591593
0.010584597
0.010577412
0.010570003
0.010562332
0.010554334
0.010545963
0.010537155
0.01052785
0.010517979
0.01050747
0.010496235
0.010484178
0.010471179
0.010457089
0.010441711
0.010424778
0.010405955
0.010384777
0.010360508
0.010331856
0.010296338
0.010249048
0.010198105
0.01015489
0.010118874
0.010088408
0.010062382
0.010040208
0.010021836
0.010007607
0.0099981922
0.0099928935
0.009995561
0.0099973339
0.010026144
0.010001964
0.010035554
0.052020691
0.034846712
0.019215371
0.015875963
0.013989848
0.013119654
0.012419791
0.012024447
0.011719894
0.011515932
0.011355012
0.011235425
0.011139287
0.011063401
0.011001199
0.010950228
0.010907619
0.010871786
0.010841262
0.010815048
0.010792325
0.010772471
0.010754982
0.010739457
0.010725571
0.01071306
0.010701708
0.010691331
0.010681778
0.010672917
0.010664638
0.010656845
0.010649457
0.010642399
0.010635606
0.010629017
0.010622575
0.01061622
0.010609879
0.010603435
0.010596581
0.010589879
0.010582916
0.010575622
0.01056813
0.010560395
0.01055239
0.010544051
0.010535335
0.010526183
0.010516535
0.010506327
0.010495486
0.010483932
0.010471568
0.010458282
0.010443933
0.010428337
0.010411249
0.010392364
0.010371272
0.010347347
0.010319521
0.010285727
0.010241562
0.010193087
0.010150996
0.010115528
0.010085395
0.010059734
0.010038032
0.010020154
0.010006384
0.0099971185
0.0099923305
0.0099938741
0.0099965001
0.01002226
0.010001996
0.010033001
0.047507398
0.033677937
0.018558486
0.015559684
0.013725153
0.012906912
0.012267635
0.011906592
0.011627209
0.011439933
0.011292207
0.011182355
0.011094145
0.011024502
0.010967474
0.010920744
0.010881699
0.010848859
0.010820883
0.010796845
0.010775989
0.010757743
0.010741641
0.01072731
0.01071445
0.010702816
0.010692207
0.010682453
0.010673413
0.010664968
0.010657012
0.010649459
0.010642234
0.010635269
0.010628506
0.010621889
0.010615369
0.010608895
0.010602413
0.010595836
0.010589017
0.010581942
0.01057473
0.010567097
0.010559257
0.010551161
0.010542787
0.010534077
0.010524988
0.010515463
0.010505448
0.010494877
0.010483682
0.010471784
0.010459091
0.010445495
0.010430862
0.010415021
0.010397746
0.010378758
0.010357693
0.010334023
0.010306888
0.010274689
0.010233928
0.01018756
0.010146298
0.010111305
0.010081603
0.01005649
0.010035442
0.010018209
0.010004959
0.0099959582
0.0099916033
0.0099923054
0.0099955606
0.010017208
0.010002201
0.010030722
0.043506776
0.032045998
0.017944681
0.015222842
0.013472802
0.012708199
0.01212589
0.01179637
0.011540867
0.011369206
0.01123402
0.011133368
0.011052695
0.010988978
0.010936867
0.010894163
0.0108585
0.010828496
0.010802931
0.010780943
0.010761841
0.010745096
0.010730278
0.010717044
0.010705114
0.010694264
0.010684306
0.010675083
0.010666468
0.010658348
0.010650628
0.01064323
0.010636084
0.010629132
0.010622321
0.010615602
0.010608931
0.010602269
0.010595565
0.010588771
0.010581842
0.010574412
0.010566928
0.010558929
0.010550702
0.010542215
0.010533444
0.010524337
0.01051485
0.010504932
0.010494527
0.010483575
0.010472007
0.010459748
0.010446708
0.010432785
0.01041785
0.010401744
0.010384259
0.010365138
0.010344057
0.010320563
0.010293969
0.010263103
0.010225555
0.01018114
0.010140618
0.010106204
0.010077133
0.010052764
0.01003252
0.010016041
0.010003364
0.0099947232
0.0099907218
0.0099908756
0.0099946752
0.010012615
0.010002107
0.01002842
0.039964096
0.030269382
0.017365774
0.014863192
0.013231684
0.012523091
0.011994234
0.011693703
0.011460793
0.011303757
0.011180462
0.011088505
0.011014982
0.010956879
0.01090943
0.01087054
0.010838076
0.010810748
0.010787448
0.01076738
0.01074991
0.010734549
0.010720904
0.010708657
0.010697551
0.010687378
0.010677967
0.010669173
0.010660879
0.010652985
0.010645405
0.010638066
0.01063091
0.010623884
0.010616942
0.010610043
0.01060315
0.010596226
0.010589234
0.010582141
0.010574882
0.010567235
0.010559416
0.010551022
0.010542376
0.010533472
0.01052428
0.010514754
0.010504852
0.010494523
0.010483715
0.010472368
0.010460415
0.010447783
0.010434386
0.010420123
0.010404876
0.010388494
0.010370784
0.010351512
0.010330384
0.010307004
0.010280811
0.010250946
0.01021595
0.010173623
0.010133944
0.010100329
0.010072114
0.010048657
0.010029326
0.01001368
0.010001632
0.0099934333
0.0099897143
0.0099895779
0.0099938053
0.010008391
0.010001943
0.010026102
0.036825988
0.028476347
0.01681169
0.014480175
0.013000873
0.012351271
0.011872387
0.01159855
0.011386937
0.011243616
0.011131561
0.011047819
0.01098106
0.010928271
0.010885227
0.010849937
0.010820484
0.010795668
0.010774481
0.010756192
0.01074022
0.010726114
0.010713516
0.010702133
0.010691729
0.010682113
0.01067313
0.010664648
0.010656562
0.010648782
0.010641234
0.010633853
0.010626589
0.010619397
0.01061224
0.010605082
0.010597893
0.010590644
0.010583307
0.010575856
0.010568211
0.010560322
0.010552094
0.010543277
0.010534188
0.010524845
0.010515215
0.010505256
0.010494926
0.010484178
0.010472958
0.010461209
0.010448865
0.010435855
0.010422095
0.01040749
0.010391927
0.010375264
0.010357323
0.01033789
0.010316699
0.010293396
0.010267501
0.010238323
0.010204786
0.010165013
0.010126409
0.010093851
0.010066692
0.010044266
0.01002592
0.010011166
0.0099998134
0.0099921246
0.0099886356
0.0099884154
0.0099929605
0.010004646
0.010001585
0.010023777
0.034042964
0.026854634
0.016279508
0.014096691
0.012778926
0.012192443
0.011760089
0.011510876
0.011319262
0.011188817
0.011087356
0.011011375
0.010950997
0.010903226
0.010864327
0.01083242
0.010805785
0.010783305
0.010764067
0.010747402
0.010732778
0.010719783
0.010708088
0.010697428
0.010687585
0.01067839
0.010669699
0.010661398
0.010653393
0.010645606
0.010637974
0.010630441
0.010622968
0.010615518
0.010608059
0.010600566
0.010593014
0.010585379
0.010577642
0.010569781
0.010561726
0.010553534
0.010544846
0.01053559
0.010526044
0.010516249
0.010506172
0.010495774
0.010485013
0.010473842
0.010462209
0.010450058
0.010437324
0.010423937
0.010409817
0.010394872
0.010378995
0.010362053
0.010343884
0.01032429
0.010303031
0.01027979
0.010254144
0.01022552
0.010193079
0.010155473
0.010118221
0.010086953
0.010060998
0.010039681
0.010022366
0.010008549
0.0099979603
0.009990835
0.0099875439
0.0099873809
0.0099921303
0.010001436
0.010001137
0.010021458
0.031569184
0.02537079
0.01577034
0.013747039
0.012573635
0.012046232
0.01165706
0.011430628
0.011257738
0.011139401
0.011047901
0.010979243
0.010924867
0.01088182
0.010846804
0.010818056
0.010794032
0.010773699
0.010756231
0.010741016
0.010727571
0.010715518
0.010704561
0.01069446
0.010685019
0.010676087
0.010667538
0.010659272
0.010651209
0.010643284
0.010635446
0.010627651
0.010619867
0.010612067
0.010604227
0.010596328
0.010588351
0.010580278
0.010572094
0.010563784
0.010555286
0.010546686
0.010537571
0.010527867
0.010517859
0.010507608
0.010497086
0.010486249
0.01047506
0.01046347
0.010451431
0.010438884
0.010425768
0.010412013
0.010397541
0.010382266
0.010366084
0.010348873
0.010330483
0.010310737
0.010289414
0.010266231
0.010240817
0.010212681
0.010181156
0.01014526
0.010109612
0.010079807
0.010055152
0.010034993
0.010018737
0.010005885
0.0099961199
0.0099895993
0.0099865018
0.0099864765
0.0099913116
0.0099988139
0.010000606
0.010018573
0.029365157
0.023993285
0.015283487
0.013429099
0.012386587
0.011912316
0.011563081
0.011357787
0.011202376
0.011095431
0.011013271
0.010951514
0.010902761
0.010864138
0.010832739
0.010806911
0.010785272
0.010766873
0.010750971
0.010737004
0.010724539
0.010713234
0.010702822
0.010693092
0.010683871
0.010675027
0.010666453
0.010658065
0.010649798
0.010641601
0.010633435
0.010625268
0.010617078
0.010608844
0.010600551
0.010592186
0.010583735
0.010575184
0.010566525
0.010557737
0.010548768
0.01053971
0.010530199
0.010520025
0.01050956
0.01049886
0.010487898
0.010476633
0.010465026
0.010453031
0.010440597
0.010427669
0.010414184
0.010400076
0.010385268
0.010369677
0.010353206
0.010335742
0.010317147
0.01029726
0.010275886
0.01025277
0.010227584
0.010199901
0.010169172
0.010134656
0.010100794
0.010072563
0.010049267
0.010030294
0.010015109
0.010003231
0.0099943264
0.0099884416
0.0099855651
0.0099857149
0.0099905078
0.0099967313
0.010000241
0.01001625
0.027396403
0.022688476
0.01481848
0.013140704
0.012216704
0.011790351
0.011477955
0.011292333
0.011153204
0.011056983
0.010983556
0.010928284
0.010884784
0.010850275
0.010822203
0.010799028
0.01077952
0.01076281
0.010748231
0.010735276
0.010723559
0.010712773
0.010702687
0.010693115
0.010683911
0.010674964
0.010666187
0.010657515
0.010648897
0.010640297
0.010631688
0.010623051
0.01061437
0.010605634
0.010596832
0.010587959
0.010579002
0.010569949
0.010560798
0.010551526
0.010542081
0.010532577
0.010522645
0.010511997
0.010501087
0.010489951
0.010478567
0.010466892
0.010454886
0.010442504
0.010429695
0.010416405
0.010402572
0.010388131
0.010373009
0.010357125
0.010340387
0.010322691
0.01030391
0.010283902
0.010262493
0.010239459
0.010214509
0.010187272
0.010157272
0.010123924
0.010091953
0.010065353
0.010043449
0.010025677
0.010011555
0.010000638
0.0099926036
0.0099873758
0.009984779
0.0099851206
0.0099897322
0.0099950541
0.0099997945
0.010014428
0.025633297
0.0214211
0.014374318
0.012879824
0.012062982
0.011680009
0.011401528
0.011234264
0.01111028
0.011024146
0.010958883
0.010909681
0.010871038
0.010840305
0.010815233
0.010794406
0.01077673
0.010761418
0.010747877
0.010735657
0.010724416
0.01071389
0.01070388
0.010694232
0.010684827
0.010675579
0.010666421
0.010657306
0.0106482
0.01063908
0.010629932
0.010620744
0.010611509
0.010602222
0.010592878
0.010583471
0.010573994
0.010564437
0.010554799
0.010545045
0.010535134
0.010525209
0.010514844
0.010503732
0.010492399
0.010480851
0.010469069
0.010457008
0.010444628
0.010431884
0.010418726
0.0104051
0.010390947
0.0103762
0.010360791
0.010344641
0.010327663
0.010309761
0.01029082
0.010270713
0.010249289
0.010226354
0.010201658
0.010174875
0.010145585
0.010113284
0.010083245
0.010058294
0.010037795
0.010021226
0.010008147
0.0099981575
0.0099909692
0.0099864042
0.0099841703
0.0099847289
0.0099890483
0.0099937072
0.0099992485
0.010012992
0.024049881
0.020154097
0.013954946
0.012644666
0.011924551
0.011581021
0.011333732
0.011183625
0.011073708
0.010997086
0.010939403
0.010895822
0.010861602
0.010834255
0.010811805
0.010792964
0.010776764
0.010762504
0.010749665
0.010737855
0.010726781
0.010716226
0.010706024
0.010696056
0.010686231
0.010676488
0.010666782
0.010657084
0.010647374
0.010637643
0.010627884
0.010618093
0.010608269
0.01059841
0.010588514
0.010578575
0.010568586
0.01055854
0.010548434
0.01053822
0.010527876
0.010517578
0.010506755
0.0104952
0.010483474
0.010471547
0.010459397
0.010446981
0.01043426
0.010421186
0.01040771
0.010393779
0.010379336
0.010364316
0.010348652
0.010332268
0.010315084
0.010297008
0.010277935
0.010257755
0.010236337
0.010213519
0.010189093
0.010162781
0.010134215
0.010102921
0.010074806
0.010051497
0.010032396
0.010017016
0.010004949
0.0099958408
0.0099894443
0.0099855197
0.0099837266
0.0099845495
0.0099885499
0.0099927434
0.0099988607
0.010011674
0.022625229
0.018855097
0.013583372
0.0124337
0.011800716
0.011493183
0.01127458
0.011140541
0.011043702
0.010975974
0.010925247
0.010886781
0.010856485
0.010832061
0.01081178
0.010794487
0.010779338
0.010765722
0.010753196
0.010741432
0.010730191
0.0107193
0.010708634
0.010698108
0.010687662
0.010677255
0.010666865
0.010656477
0.010646084
0.010635685
0.01062528
0.01061487
0.010604454
0.010594032
0.010583601
0.010573155
0.010562684
0.010552186
0.010541646
0.010531005
0.010520295
0.010509661
0.010498347
0.010486398
0.010474316
0.01046205
0.01044957
0.010436836
0.010423808
0.01041044
0.010396683
0.010382483
0.010367786
0.01035253
0.010336647
0.010320068
0.010302714
0.0102845
0.010265331
0.010245108
0.010223719
0.010201031
0.01017688
0.010151049
0.010123236
0.010092995
0.010066762
0.010045064
0.010027336
0.010013119
0.010002027
0.0099937469
0.0099880651
0.0099847156
0.0099833867
0.0099845192
0.0099882529
0.0099921119
0.0099986286
0.010010282
0.021343322
0.017737694
0.013254422
0.012245418
0.011690976
0.0114164
0.011224155
0.011105199
0.011020442
0.010960937
0.010916473
0.010882523
0.010855557
0.010833495
0.010814835
0.010798566
0.010783968
0.010770532
0.010757892
0.010745787
0.010734037
0.010722514
0.010711136
0.010699848
0.010688618
0.010677426
0.010666264
0.010655129
0.010644022
0.010632945
0.010621901
0.010610892
0.010599915
0.010588969
0.010578049
0.010567143
0.010556241
0.01054534
0.010534411
0.010523399
0.010512397
0.010501405
0.010489621
0.010477351
0.010464957
0.010452394
0.010439627
0.010426617
0.010413323
0.0103997
0.0103857
0.010371272
0.010356361
0.010340907
0.010324848
0.010308115
0.010290634
0.010272324
0.010253098
0.010232867
0.010211532
0.010188984
0.010165098
0.010139723
0.010112665
0.010083651
0.010059231
0.010039091
0.010022693
0.010009599
0.0099994406
0.0099919358
0.0099868854
0.0099840131
0.0099830929
0.0099845321
0.0099881012
0.0099917086
0.0099986713
0.010008788
0.020186666
0.016773326
0.012964032
0.012078962
0.011595009
0.011350654
0.011182864
0.011077884
0.011004106
0.010952032
0.01091301
0.010882833
0.010858471
0.01083808
0.010820385
0.010804533
0.010789934
0.010776178
0.010762985
0.010750167
0.010737597
0.010725195
0.010712914
0.010700725
0.010688616
0.010676583
0.010664626
0.010652747
0.010640948
0.010629233
0.010617601
0.010606049
0.010594575
0.010583171
0.010571826
0.010560526
0.010549259
0.010538019
0.010526753
0.010515428
0.010504193
0.010492839
0.01048065
0.010468113
0.010455455
0.010442641
0.010429631
0.010416389
0.010402872
0.010389037
0.010374836
0.010360221
0.010345138
0.01032953
0.010313337
0.010296495
0.010278932
0.010260574
0.010241338
0.010221142
0.010199897
0.010177506
0.010153866
0.010128862
0.010102367
0.010075016
0.01005232
0.010033662
0.010018533
0.010006507
0.0099972332
0.0099904501
0.0099859535
0.0099834637
0.0099828454
0.0099844449
0.0099877676
0.0099911612
0.0099980986
0.01000746
0.019140691
0.015940239
0.012708781
0.011934145
0.011512868
0.0112961
0.011150313
0.011058729
0.010994726
0.010949079
0.010914494
0.010887162
0.010864516
0.010844979
0.010827511
0.01081142
0.010796249
0.010781694
0.01076756
0.010753723
0.010740107
0.010726668
0.010713383
0.010700244
0.010687249
0.010674398
0.010661693
0.010649133
0.010636719
0.010624447
0.010612313
0.010600309
0.010588424
0.010576647
0.01056496
0.010553343
0.01054179
0.010530277
0.010518731
0.010507166
0.010495775
0.010484069
0.010471513
0.010458759
0.010445887
0.010432871
0.010419666
0.010406237
0.010392542
0.010378539
0.010364181
0.010349421
0.01033421
0.010318492
0.010302211
0.010285306
0.01026771
0.010249354
0.01023016
0.010210052
0.010188948
0.010166758
0.010143389
0.010118735
0.010092685
0.010067204
0.010046119
0.010028847
0.010014903
0.010003874
0.0099954249
0.009989303
0.0099852909
0.0099831187
0.0099827162
0.0099843186
0.0099872935
0.0099905305
0.0099971556
0.0100062
0.018193406
0.01522363
0.012485632
0.011810744
0.011444728
0.011252852
0.011127387
0.011047733
0.010991998
0.010951465
0.010920062
0.010894444
0.010872493
0.010852928
0.01083493
0.010817975
0.010801735
0.010786003
0.010770658
0.010755626
0.010740865
0.010726354
0.010712083
0.01069805
0.01068425
0.01067068
0.010657337
0.010644213
0.010631301
0.01061859
0.010606067
0.010593717
0.010581525
0.01056947
0.01055753
0.010545687
0.010533929
0.010522208
0.010510451
0.010498759
0.010487285
0.010475158
0.0104623
0.010449384
0.010436354
0.010423185
0.010409834
0.010396266
0.010382439
0.010368312
0.010353842
0.010338982
0.010323686
0.010307903
0.010291579
0.010274658
0.010257078
0.010238774
0.010219676
0.010199713
0.010178809
0.010156884
0.01013385
0.010109613
0.010084075
0.010060311
0.010040702
0.010024699
0.010011835
0.010001716
0.0099940161
0.0099884868
0.0099848944
0.0099829893
0.009982745
0.0099842724
0.0099868842
0.0099899358
0.009996069
0.010004386
0.017335821
0.014611224
0.012290413
0.011704956
0.0113895
0.011221109
0.011113637
0.011044059
0.010994768
0.010957771
0.010928112
0.010902979
0.010880696
0.01086027
0.010841097
0.010822806
0.010805177
0.010788079
0.010771435
0.010755202
0.010739355
0.010723876
0.010708752
0.010693972
0.010679525
0.010665397
0.010651574
0.010638039
0.010624773
0.010611758
0.010598973
0.010586396
0.010574003
0.01056177
0.01054967
0.010537688
0.010525798
0.01051393
0.010502069
0.010490386
0.010478674
0.010466115
0.010453145
0.010440116
0.010426983
0.010413712
0.010400265
0.010386605
0.010372693
0.010358489
0.010343951
0.010329036
0.0103137
0.010297895
0.010281573
0.01026468
0.010247162
0.010228958
0.010210006
0.01019024
0.010169593
0.010147991
0.010125354
0.010101598
0.010076634
0.010054411
0.010036127
0.010021256
0.010009353
0.010000039
0.0099930015
0.0099879909
0.009984761
0.009983085
0.0099829485
0.0099843471
0.0099866216
0.0099894999
0.0099950815
0.01000252
0.016558948
0.014070665
0.012122793
0.011614087
0.011346554
0.011200624
0.011107913
0.011046103
0.011001067
0.010965816
0.010936407
0.010910591
0.010887102
0.010865204
0.010844469
0.010824639
0.010805562
0.010787145
0.010769328
0.01075207
0.010735339
0.010719109
0.010703352
0.010688044
0.010673158
0.010658668
0.010644547
0.010630767
0.010617302
0.010604123
0.010591203
0.010578513
0.010566025
0.010553707
0.010541537
0.010529494
0.010517533
0.010505581
0.010493709
0.010482084
0.010470062
0.010457208
0.010444188
0.010431101
0.010417917
0.010404596
0.010391103
0.010377401
0.010363451
0.010349216
0.010334655
0.010319729
0.010304397
0.010288613
0.010272335
0.010255513
0.010238098
0.010220037
0.010201272
0.010181747
0.010161402
0.010140172
0.010117984
0.010094765
0.010070432
0.010049557
0.010032426
0.010018539
0.010007467
0.009998846
0.0099923752
0.0099878038
0.009984883
0.0099834096
0.009983353
0.0099846112
0.0099866049
0.0099893029
0.0099942413
0.010000538
0.015863626
0.013581199
0.011983499
0.011543089
0.011316385
0.011189333
0.011107638
0.011050909
0.011007835
0.010972624
0.010942222
0.010914906
0.010889735
0.010866158
0.010843854
0.010822618
0.010802319
0.010782863
0.01076418
0.010746209
0.010728901
0.010712209
0.01069609
0.0106805
0.010665399
0.010650749
0.010636512
0.010622652
0.010609133
0.010595921
0.010582984
0.010570289
0.010557802
0.010545492
0.010533338
0.010521309
0.010509334
0.010497388
0.010485628
0.010474004
0.010461614
0.010448602
0.010435588
0.010422504
0.010409323
0.010396005
0.010382517
0.010368822
0.010354883
0.010340664
0.010326127
0.010311236
0.01029595
0.010280231
0.010264036
0.010247323
0.010230047
0.01021216
0.010193614
0.010174358
0.010154342
0.01013351
0.010111802
0.010089158
0.01006551
0.010045771
0.010029612
0.010016549
0.010006171
0.0099981248
0.0099921202
0.0099879052
0.009985237
0.0099839347
0.0099839429
0.0099850956
0.009986923
0.0099895383
0.0099940031
0.0099994246
0.015257765
0.013174626
0.01187239
0.011489775
0.011295919
0.011183304
0.011108707
0.011054378
0.011011362
0.010975025
0.010943014
0.010913997
0.010887229
0.010862246
0.01083875
0.01081654
0.010795462
0.010775401
0.01075626
0.010737953
0.010720408
0.010703559
0.010687345
0.010671711
0.010656606
0.010641981
0.010627791
0.010613993
0.010600548
0.010587417
0.010574566
0.010561958
0.010549557
0.010537335
0.01052527
0.010513312
0.010501386
0.010489569
0.010478018
0.010466131
0.010453416
0.010440486
0.010427525
0.010414502
0.010401377
0.010388117
0.010374686
0.010361049
0.010347172
0.01033302
0.010318556
0.010303747
0.010288554
0.010272942
0.010256871
0.010240304
0.010223199
0.010205514
0.010187206
0.010168231
0.010148545
0.0101281
0.010106846
0.01008473
0.01006191
0.010043077
0.010027688
0.010015276
0.01000544
0.0099978389
0.0099921885
0.009988237
0.0099857524
0.0099845688
0.009984601
0.0099856493
0.0099873581
0.0099898904
0.009993902
0.0099985096
0.014768789
0.012861999
0.01179051
0.011452677
0.011281999
0.011178744
0.011107639
0.011053663
0.01100964
0.010971857
0.01093838
0.01090807
0.010880242
0.010854436
0.010830332
0.010807691
0.010786329
0.010766099
0.010746881
0.010728571
0.010711075
0.010694315
0.010678219
0.010662723
0.010647768
0.010633302
0.010619276
0.010605643
0.01059236
0.01057939
0.010566693
0.010554233
0.010541976
0.0105299
0.010517968
0.0105061
0.010494295
0.01048272
0.01047127
0.010459072
0.01044625
0.010433449
0.010420609
0.010407703
0.010394693
0.010381546
0.010368228
0.010354705
0.010340945
0.010326912
0.010312575
0.010297899
0.01028285
0.010267392
0.010251491
0.01023511
0.010218211
0.010200757
0.010182709
0.010164029
0.01014468
0.010124623
0.010103816
0.010082219
0.010060088
0.01004184
0.010026948
0.010014951
0.010005456
0.0099981262
0.0099926801
0.009988867
0.0099864659
0.0099853177
0.0099853082
0.0099862332
0.0099878452
0.0099902968
0.0099939156
0.0099978851
0.014328956
0.012603013
0.011716185
0.011415099
0.01126042
0.011163885
0.011095355
0.011041993
0.010997767
0.010959646
0.010925899
0.010895457
0.010867627
0.010841928
0.010818015
0.010795625
0.010774556
0.010754645
0.010735758
0.010717781
0.010700617
0.010684182
0.010668401
0.010653208
0.010638545
0.010624358
0.0106106
0.010597224
0.010584187
0.010571451
0.010558976
0.010546727
0.010534677
0.010522803
0.010511043
0.010499328
0.010487782
0.01047655
0.010464853
0.010452347
0.010439723
0.010427095
0.010414429
0.010401691
0.010388848
0.010375867
0.010362715
0.010349361
0.010335772
0.010321917
0.010307762
0.010293275
0.010278423
0.010263172
0.010247488
0.010231336
0.01021468
0.010197483
0.010179707
0.010161318
0.010142277
0.010122547
0.010102089
0.010080862
0.01005925
0.01004141
0.010026858
0.01001514
0.010005866
0.0099987037
0.0099933713
0.00998962
0.0099872373
0.0099860615
0.0099859539
0.0099867265
0.0099882153
0.0099905034
0.0099936735
0.0099971359
0.013666452
0.012326952
0.011614241
0.011353728
0.011215543
0.011127365
0.011063867
0.011014052
0.010972618
0.010936737
0.010904842
0.010875981
0.010849527
0.01082504
0.010802204
0.010780777
0.01076057
0.010741433
0.010723241
0.010705891
0.010689291
0.010673366
0.010658048
0.010643274
0.01062899
0.010615144
0.010601717
0.010588661
0.010575935
0.010563498
0.010551312
0.010539341
0.010527564
0.010515938
0.010504396
0.010492968
0.010481802
0.01047056
0.010458593
0.010446198
0.010433835
0.01042146
0.010409044
0.010396552
0.010383955
0.010371221
0.010358318
0.010345216
0.010331884
0.010318293
0.01030441
0.010290204
0.010275645
0.010260699
0.010245334
0.010229517
0.010213213
0.01019639
0.01017901
0.01016104
0.010142446
0.010123191
0.01010324
0.010082556
0.010061101
0.010043034
0.010028309
0.010016459
0.010007079
0.009999829
0.0099944135
0.0099905785
0.0099881093
0.0099868319
0.0099865899
0.0099872195
0.0099886015
0.0099907273
0.0099935349
0.0099966907
0.013496179
0.012252549
0.01154827
0.011299336
0.011167702
0.011084465
0.011024671
0.010977846
0.010938857
0.010905108
0.010875128
0.010848018
0.010823185
0.010800218
0.010778814
0.010758747
0.010739837
0.01072194
0.010704938
0.01068873
0.010673228
0.010658358
0.010644052
0.010630251
0.0106169
0.010603953
0.01059134
0.010579026
0.010566977
0.010555157
0.010543539
0.010532103
0.010520819
0.01050962
0.010498484
0.010487556
0.010476841
0.010465496
0.010453479
0.010441496
0.010429506
0.010417489
0.010405412
0.010393248
0.010380968
0.010368542
0.010355944
0.010343143
0.01033011
0.010316817
0.010303234
0.010289331
0.010275077
0.01026044
0.010245391
0.010229896
0.010213923
0.010197438
0.010180406
0.010162794
0.010144568
0.010125694
0.010106136
0.010085858
0.010064822
0.010046356
0.010031278
0.01001911
0.010009445
0.010001932
0.0099962723
0.0099922094
0.0099895252
0.0099880359
0.0099875798
0.0099880102
0.0099892164
0.0099911245
0.0099936355
0.0099966096
51.75799
92.226885
51.96151
33.938813
23.03239
16.049709
11.380648
8.1647643
5.8895366
4.2613793
3.079243
2.2254492
1.6016098
1.149825
0.81680729
0.5748496
0.40335712
0.2819473
0.19650493
0.13682239
0.095499529
0.06717683
0.047980471
0.03512655
0.026620425
0.021069971
0.017489268
0.01521018
0.013770651
0.012872465
0.012312654
0.01196026
0.011734093
0.011584174
0.011480192
0.01140407
0.011345182
0.011297356
0.011256999
0.011221991
0.011191007
0.011163129
0.011138476
0.011115992
0.011094968
0.011074499
0.011051573
0.011020368
0.010980341
0.010933942
0.010883894
0.010833959
0.010785379