/*--------------------------------*- C++ -*----------------------------------*\
  =========                 |
  \\      /  F ield         | OpenFOAM: The Open Source CFD Toolbox
   \\    /   O peration     | Website:  https://openfoam.org
    \\  /    A nd           | Version:  6
     \\/     M anipulation  |
\*---------------------------------------------------------------------------*/
FoamFile
{
    version     2.0;
    format      ascii;
    class       volScalarField;
    location    "100";
    object      nut;
}
// * * * * * * * * * * * * * * * * * * * * * * * * * * * * * * * * * * * * * //

dimensions      [0 2 -1 0 0 0 0];

internalField   nonuniform List<scalar> 
16000
(
2.7996904e-06
2.1177167e-05
2.3280584e-05
3.036879e-05
2.4141325e-05
2.7626006e-05
2.4662046e-05
2.5349555e-05
2.4062468e-05
2.4028308e-05
2.3664098e-05
2.3575482e-05
2.3645634e-05
2.3764505e-05
2.4124116e-05
2.4515082e-05
2.5116193e-05
2.5764148e-05
2.6566094e-05
2.7422882e-05
2.8399347e-05
2.9462064e-05
3.0669166e-05
3.2034959e-05
3.36079e-05
3.5402328e-05
3.7433718e-05
3.9701839e-05
4.2220941e-05
4.5022965e-05
4.8193503e-05
5.1831252e-05
5.6042591e-05
6.0979477e-05
6.6669566e-05
7.3214117e-05
8.0787097e-05
8.9684233e-05
0.00010032864
0.00011303879
0.00012821225
0.00014645543
0.00016853248
0.0001953538
0.0002280552
0.0002680989
0.00031730178
0.00037794558
0.00045290375
0.00054572189
0.00066069682
0.0008028425
0.0009775879
0.0010341005
0.001034991
0.0010350979
0.0010346298
0.0010338223
0.0010328442
0.0010317227
0.0010304134
0.0010288484
0.0010269278
0.0010245258
0.0010215452
0.0010180618
0.0010148866
0.0010122414
0.0010100856
0.0010083034
0.0010068399
0.0010056254
0.0010046553
0.0010040019
0.0010034759
0.0010037667
0.0010034952
0.0010049597
0.0010024496
0.0010041818
2.4138698e-06
2.0783032e-05
2.1642996e-05
2.7912963e-05
2.2476116e-05
2.5749225e-05
2.3138278e-05
2.3756753e-05
2.2696793e-05
2.2539921e-05
2.2252589e-05
2.2042712e-05
2.2116557e-05
2.2133787e-05
2.2455695e-05
2.27551e-05
2.3290299e-05
2.3845221e-05
2.4561597e-05
2.5320435e-05
2.6200015e-05
2.7158697e-05
2.8254384e-05
2.9492314e-05
3.091402e-05
3.2527748e-05
3.4347856e-05
3.6378159e-05
3.8639991e-05
4.1171493e-05
4.4030997e-05
4.7275142e-05
5.1014184e-05
5.5371009e-05
6.0480339e-05
6.6502124e-05
7.3521756e-05
8.1649785e-05
9.1185699e-05
0.00010262947
0.00011634767
0.00013278423
0.0001526206
0.00017670089
0.00020599489
0.00024176201
0.00028558297
0.0003393828
0.00040556067
0.00048702665
0.0005871843
0.00070986589
0.00085895198
0.0010328229
0.0010339097
0.0010341504
0.0010337459
0.0010329543
0.0010319836
0.0010308774
0.0010295948
0.0010280713
0.0010262061
0.0010238581
0.0010208918
0.0010173657
0.0010143508
0.0010118823
0.0010098619
0.0010081702
0.0010067395
0.0010055307
0.0010045353
0.0010038522
0.0010032755
0.0010034896
0.0010031632
0.0010047658
0.0010023806
0.0010040934
2.1488981e-06
2.0429055e-05
2.0265463e-05
2.5708346e-05
2.1042021e-05
2.3824304e-05
2.1790925e-05
2.2035198e-05
2.1394074e-05
2.0941004e-05
2.0847013e-05
2.0446754e-05
2.0586789e-05
2.0485871e-05
2.0804139e-05
2.1016624e-05
2.1507085e-05
2.1980813e-05
2.2627889e-05
2.3302827e-05
2.4100384e-05
2.4969762e-05
2.5969411e-05
2.7096729e-05
2.8387569e-05
2.9845795e-05
3.1485431e-05
3.3313473e-05
3.5354453e-05
3.764646e-05
4.0244235e-05
4.3212888e-05
4.6627702e-05
5.0554517e-05
5.5129547e-05
6.0517985e-05
6.6940275e-05
7.4530948e-05
8.3321298e-05
9.3674872e-05
0.00010614476
0.00012114041
0.00013916178
0.00016100303
0.00018755272
0.00021987407
0.00025936168
0.0003076779
0.00036683318
0.00043924954
0.00052764958
0.00063498038
0.00076404668
0.00091701215
0.0010328202
0.001033208
0.0010328751
0.001032098
0.0010311298
0.0010300335
0.0010287721
0.0010272855
0.0010254752
0.0010231882
0.0010202437
0.0010168269
0.0010139659
0.0010116288
0.0010096939
0.0010080515
0.0010066343
0.0010054258
0.0010044181
0.0010037175
0.001003125
0.0010032682
0.0010029357
0.0010045951
0.0010021253
0.0010037907
1.9187464e-06
2.0023074e-05
1.8918901e-05
2.3603671e-05
1.964259e-05
2.1926209e-05
2.0465911e-05
2.0361326e-05
2.011253e-05
1.939992e-05
1.9476204e-05
1.8923827e-05
1.9115199e-05
1.8926507e-05
1.9235283e-05
1.9382631e-05
1.9829665e-05
2.0238629e-05
2.0823171e-05
2.1428417e-05
2.2153702e-05
2.2946059e-05
2.3859705e-05
2.488787e-05
2.6060655e-05
2.7380764e-05
2.8863101e-05
3.0518841e-05
3.2374783e-05
3.4467804e-05
3.6847151e-05
3.9569126e-05
4.2699117e-05
4.6317413e-05
5.051903e-05
5.5413899e-05
6.1185184e-05
6.8113373e-05
7.6362607e-05
8.5952925e-05
9.7322605e-05
0.0001110816
0.00012763266
0.00014759947
0.00017186072
0.00020134052
0.00023724171
0.00028104222
0.00033443881
0.00039946533
0.00047834276
0.00057338169
0.00068671399
0.00081993366
0.00097386709
0.0010322627
0.0010320127
0.0010312505
0.0010302808
0.0010291899
0.0010279445
0.0010264901
0.0010247339
0.0010225166
0.001019598
0.0010163372
0.0010136229
0.0010113906
0.0010095164
0.0010079041
0.001006497
0.0010052889
0.0010042837
0.0010035671
0.0010029879
0.0010030416
0.0010027364
0.0010042693
0.0010020267
0.0010035587
1.7175667e-06
1.9580846e-05
1.7585403e-05
2.1641561e-05
1.8319602e-05
2.0080038e-05
1.9195808e-05
1.8726455e-05
1.8847574e-05
1.7887202e-05
1.811656e-05
1.7438492e-05
1.767158e-05
1.7418714e-05
1.7715467e-05
1.7814732e-05
1.8220912e-05
1.857774e-05
1.9105749e-05
1.9651605e-05
2.0311827e-05
2.1035549e-05
2.1870676e-05
2.2809002e-05
2.3875704e-05
2.5074166e-05
2.6420285e-05
2.7928454e-05
2.9625988e-05
3.1547607e-05
3.3737211e-05
3.6245073e-05
3.9130655e-05
4.2465053e-05
4.6338611e-05
5.086741e-05
5.6169271e-05
6.2437434e-05
7.0005008e-05
7.9016018e-05
8.9565511e-05
0.00010217379
0.00011745413
0.00013583966
0.00015811844
0.00018518183
0.00021804054
0.00025801829
0.0003065812
0.00036544483
0.00043647051
0.00052153467
0.00062238909
0.00074045028
0.00087686707
0.0010313087
0.0010311567
0.0010304108
0.0010294361
0.0010283465
0.0010271121
0.0010256851
0.0010239813
0.0010218467
0.0010190088
0.0010159215
0.0010133261
0.0010111644
0.0010093252
0.0010077286
0.0010063307
0.0010051286
0.0010041359
0.0010034106
0.0010028583
0.0010028255
0.0010025679
0.0010039873
0.0010018997
0.0010032816
1.5411611e-06
1.9095515e-05
1.6275174e-05
1.9812672e-05
1.7076321e-05
1.8308421e-05
1.7982102e-05
1.7161332e-05
1.7600812e-05
1.6429e-05
1.6777554e-05
1.601228e-05
1.6270621e-05
1.5980608e-05
1.6260615e-05
1.6329014e-05
1.6696604e-05
1.7013366e-05
1.7491004e-05
1.7987266e-05
1.8589918e-05
1.9253609e-05
2.001884e-05
2.0878171e-05
2.1852815e-05
2.2947839e-05
2.4179777e-05
2.5565044e-05
2.7130145e-05
2.8907048e-05
3.0934949e-05
3.3259366e-05
3.5935233e-05
3.9029985e-05
4.2627281e-05
4.6829891e-05
5.1769856e-05
5.7587817e-05
6.4505632e-05
7.2869464e-05
8.277962e-05
9.4491966e-05
0.00010863976
0.00012573454
0.00014635664
0.00017139364
0.00020173053
0.00023852751
0.00028309295
0.00033688882
0.00040152003
0.00047859133
0.00056968094
0.00067628634
0.00080008444
0.00094352688
0.0010303032
0.001029577
0.0010285944
0.0010275024
0.0010262747
0.0010248699
0.0010232153
0.001021172
0.0010184645
0.0010155373
0.0010130301
0.0010109137
0.0010090955
0.0010075126
0.0010061305
0.0010049448
0.0010039721
0.0010032468
0.0010027245
0.0010026142
0.0010024066
0.0010036506
0.0010018216
0.0010030592
1.3923293e-06
1.8558086e-05
1.5158588e-05
1.8111566e-05
1.5896962e-05
1.6607829e-05
1.6803938e-05
1.5663675e-05
1.6349996e-05
1.5019726e-05
1.5445531e-05
1.4636955e-05
1.4902736e-05
1.4602158e-05
1.4861218e-05
1.4914026e-05
1.5245796e-05
1.5532772e-05
1.5966095e-05
1.6421088e-05
1.697317e-05
1.7584544e-05
1.8288312e-05
1.9079132e-05
1.997512e-05
2.0983154e-05
2.2119807e-05
2.3402304e-05
2.4855558e-05
2.6508911e-05
2.8397845e-05
3.0564409e-05
3.3060251e-05
3.5948653e-05
3.9308309e-05
4.3236145e-05
4.785119e-05
5.3302356e-05
5.9746376e-05
6.7481598e-05
7.6776381e-05
8.7811332e-05
0.00010097851
0.00011696161
0.00013621227
0.00015952594
0.00018774883
0.0002218823
0.00026311831
0.00031273781
0.00037217143
0.00044288969
0.0005264593
0.00062463138
0.00073971992
0.00087529729
0.0010294485
0.0010287478
0.0010277548
0.0010266574
0.0010254325
0.0010240446
0.0010224336
0.0010204833
0.0010179466
0.001015156
0.0010127107
0.0010106237
0.0010088227
0.0010072588
0.001005902
0.0010047428
0.0010037949
0.0010030771
0.0010025829
0.0010024092
0.0010022501
0.0010033252
0.001001722
0.0010028327
1.2684543e-06
1.7085767e-05
1.4236027e-05
1.649251e-05
1.4780371e-05
1.5014255e-05
1.5657352e-05
1.4232332e-05
1.509277e-05
1.36635e-05
1.4125856e-05
1.3316983e-05
1.3574688e-05
1.3286642e-05
1.3522328e-05
1.3572035e-05
1.3871709e-05
1.4137539e-05
1.4532944e-05
1.4954178e-05
1.5462981e-05
1.6029837e-05
1.6681183e-05
1.7414322e-05
1.8244877e-05
1.9181256e-05
2.0239484e-05
2.143675e-05
2.2796221e-05
2.4345056e-05
2.6116099e-05
2.814885e-05
3.0492396e-05
3.3206776e-05
3.6366019e-05
4.0061759e-05
4.4405856e-05
4.9534211e-05
5.5618316e-05
6.2865087e-05
7.1589105e-05
8.2005629e-05
9.4433243e-05
0.00010943679
0.00012755059
0.00014942081
0.00017587848
0.00020780825
0.00024630278
0.00029253069
0.00034781943
0.00041361384
0.00049159026
0.00058385754
0.00069340558
0.00082482352
0.00098528875
0.0010279217
0.0010269164
0.0010258112
0.0010245858
0.0010232098
0.0010216349
0.0010197707
0.0010174206
0.0010147461
0.0010123457
0.0010102836
0.0010085051
0.0010069703
0.0010056487
0.0010045245
0.0010036049
0.0010029012
0.0010024309
0.0010022102
0.0010020876
0.0010029353
0.0010016352
0.0010026279
1.1593296e-06
1.4957844e-05
1.3309785e-05
1.4932859e-05
1.3736028e-05
1.353562e-05
1.4550232e-05
1.2882049e-05
1.3841848e-05
1.2374382e-05
1.2835048e-05
1.2062471e-05
1.2298872e-05
1.2040166e-05
1.2251031e-05
1.2306012e-05
1.2577366e-05
1.2828272e-05
1.3191716e-05
1.3585418e-05
1.4057801e-05
1.4587397e-05
1.5194973e-05
1.588045e-05
1.6657393e-05
1.7535163e-05
1.8528962e-05
1.9655488e-05
2.0936376e-05
2.2397174e-05
2.4068856e-05
2.598901e-05
2.820457e-05
3.0772696e-05
3.3763882e-05
3.7265211e-05
4.1382263e-05
4.624686e-05
5.2025436e-05
5.8882635e-05
6.7125919e-05
7.6998826e-05
8.8805193e-05
0.00010299207
0.00012015346
0.0001408374
0.00016583304
0.00019596077
0.0002322315
0.00027575869
0.00032783367
0.00038995989
0.00046401158
0.00055251034
0.00065910502
0.00078925839
0.00095110786
0.0010270977
0.0010260786
0.001024964
0.0010237354
0.0010223669
0.0010208196
0.0010190271
0.0010168533
0.0010142859
0.0010119249
0.0010098932
0.0010081482
0.0010066535
0.0010053755
0.0010042925
0.0010034041
0.00100272
0.0010022695
0.0010020186
0.0010019287
0.0010025728
0.0010015353
0.0010024278
1.0598352e-06
1.3493309e-05
1.2319993e-05
1.3437409e-05
1.2761594e-05
1.2179901e-05
1.3472085e-05
1.1620851e-05
1.2602631e-05
1.1159501e-05
1.1585197e-05
1.0878461e-05
1.1084173e-05
1.0865875e-05
1.1052335e-05
1.1117831e-05
1.1365244e-05
1.1605999e-05
1.1943409e-05
1.2315179e-05
1.2757938e-05
1.3257258e-05
1.3829382e-05
1.4476382e-05
1.521016e-05
1.6040531e-05
1.6981805e-05
1.8050094e-05
1.9265852e-05
2.0653506e-05
2.2242686e-05
2.4069396e-05
2.6178731e-05
2.8625442e-05
3.1476984e-05
3.4816175e-05
3.8744387e-05
4.3389161e-05
4.890192e-05
5.54569e-05
6.3317216e-05
7.2734253e-05
8.3986283e-05
9.7529548e-05
0.00011390373
0.00013362987
0.00015743882
0.0001861233
0.00022064092
0.00026209397
0.0003117984
0.0003713785
0.00044296234
0.00052949668
0.00063522239
0.00076627819
0.00093135288
0.001026275
0.0010252412
0.0010241159
0.0010228823
0.0010215179
0.0010199904
0.001018251
0.001016217
0.0010137638
0.0010114476
0.0010094585
0.0010077595
0.0010063142
0.001005086
0.0010040486
0.0010031947
0.0010025351
0.0010021007
0.0010018347
0.0010017716
0.0010022333
0.0010014353
0.0010022323
9.7101473e-07
1.2833067e-05
1.1338065e-05
1.2003394e-05
1.1839407e-05
1.0936299e-05
1.2398254e-05
1.0441749e-05
1.137483e-05
1.0015325e-05
1.0382237e-05
9.7629028e-06
9.9340473e-06
9.7624589e-06
9.9274145e-06
1.0006657e-05
1.0235346e-05
1.0469961e-05
1.0750296e-05
1.1099024e-05
1.1513643e-05
1.1984803e-05
1.2524819e-05
1.3137032e-05
1.3831735e-05
1.461871e-05
1.5511307e-05
1.652496e-05
1.7679064e-05
1.8997086e-05
2.0507481e-05
2.2244633e-05
2.4251884e-05
2.6581753e-05
2.9298868e-05
3.2482351e-05
3.6230108e-05
4.0664959e-05
4.62262e-05
5.2537548e-05
6.0100908e-05
6.9147783e-05
7.9941475e-05
9.2972924e-05
0.00010870762
0.00012767032
0.00015054159
0.00017810596
0.00021130257
0.00025125668
0.00029935903
0.00035739651
0.00042777534
0.00051383882
0.00062029819
0.00075369451
0.00092276035
0.0010254531
0.0010244042
0.0010232676
0.0010220281
0.0010206654
0.001019152
0.0010174483
0.0010154932
0.0010131798
0.0010109212
0.0010089891
0.0010073473
0.0010059581
0.0010047839
0.0010037955
0.00100298
0.0010023489
0.001001928
0.0010016591
0.0010016175
0.0010019234
0.0010013286
0.0010020415
8.9350677e-07
1.2166816e-05
1.041295e-05
1.065433e-05
1.0949806e-05
9.7880607e-06
1.1312866e-05
9.3368905e-06
1.0167283e-05
8.9391196e-06
9.2352128e-06
8.7152484e-06
8.8532893e-06
8.7303614e-06
8.8438347e-06
8.9257476e-06
9.133906e-06
9.3615979e-06
9.6612212e-06
1.0002454e-05
1.0403305e-05
1.085903e-05
1.1379611e-05
1.1969633e-05
1.2638453e-05
1.3395949e-05
1.4254923e-05
1.5230456e-05
1.6341325e-05
1.7610414e-05
1.9065481e-05
2.0739671e-05
2.2675133e-05
2.4922871e-05
2.7545621e-05
3.0619902e-05
3.4241089e-05
3.8529393e-05
4.3619233e-05
4.9695897e-05
5.6972499e-05
6.5650687e-05
7.6605766e-05
8.923974e-05
0.00010447159
0.00012284537
0.00014501301
0.00017175929
0.00020404012
0.00024303102
0.00029023341
0.00034761804
0.00041786005
0.00050462559
0.00061291269
0.00074931511
0.00092205037
0.0010246321
0.0010235681
0.0010224201
0.0010211743
0.0010198125
0.0010183103
0.0010166348
0.0010147381
0.0010125432
0.0010103576
0.0010084955
0.0010069192
0.0010055906
0.001004473
0.0010035363
0.0010027632
0.0010021639
0.0010017552
0.0010014919
0.0010014662
0.0010016465
0.0010012211
0.0010018559
8.2563563e-07
1.1468673e-05
9.53731e-06
9.4242701e-06
1.0104941e-05
8.7244209e-06
1.0213997e-05
8.3032932e-06
8.9969732e-06
7.9313473e-06
8.1551095e-06
7.7371391e-06
7.7960322e-06
7.7048121e-06
7.8339704e-06
7.9425885e-06
8.1505338e-06
8.3838468e-06
8.6783812e-06
9.0148591e-06
9.4061711e-06
9.8508287e-06
1.0357206e-05
1.0930718e-05
1.1580029e-05
1.2315068e-05
1.3148269e-05
1.4094436e-05
1.5171875e-05
1.6403009e-05
1.7815161e-05
1.9440368e-05
2.1319938e-05
2.3503771e-05
2.6053201e-05
2.9042812e-05
3.2565591e-05
3.674012e-05
4.1696692e-05
4.7618961e-05
5.4712214e-05
6.3158772e-05
7.3258223e-05
8.5484263e-05
0.00010024788
0.00011905536
0.00014074343
0.00016695956
0.00019870606
0.00023723088
0.00028416506
0.00034166162
0.00041261906
0.00050090446
0.0006115627
0.0007508577
0.00092602075
0.0010238126
0.0010227339
0.0010215748
0.0010203229
0.0010189617
0.0010174697
0.0010158187
0.0010139704
0.0010118684
0.0010097699
0.0010079875
0.0010064823
0.0010052171
0.0010041577
0.0010032745
0.0010025474
0.0010019826
0.0010015863
0.0010013337
0.0010013181
0.0010014062
0.0010011133
0.0010016429
7.6611862e-07
1.0707123e-05
8.7105222e-06
8.3038815e-06
9.2909215e-06
7.7401872e-06
9.1074736e-06
7.3401397e-06
7.8822107e-06
6.9931067e-06
7.0920432e-06
6.7448945e-06
6.8228339e-06
6.7908305e-06
6.9250992e-06
7.0565444e-06
7.266388e-06
7.5056323e-06
7.7981069e-06
8.1324248e-06
8.5180152e-06
8.9555612e-06
9.4523819e-06
1.0014476e-05
1.0650014e-05
1.1368968e-05
1.2183538e-05
1.3108315e-05
1.4161199e-05
1.5364232e-05
1.6686311e-05
1.82626e-05
2.0085926e-05
2.2205132e-05
2.4680181e-05
2.7583908e-05
3.1179584e-05
3.5270487e-05
4.0128464e-05
4.5936089e-05
5.2903492e-05
6.1184856e-05
7.1079612e-05
8.3070535e-05
9.7594157e-05
0.0001151535
0.00013641924
0.00016360679
0.00019517447
0.0002336853
0.00028089978
0.0003391253
0.00041140105
0.00050163188
0.00061464844
0.00075606854
0.00093193802
0.0010229956
0.001021903
0.0010207336
0.0010194762
0.0010181161
0.001016634
0.0010150056
0.0010131989
0.0010111715
0.0010091704
0.0010074741
0.0010060433
0.0010048432
0.0010038428
0.0010030137
0.0010023351
0.0010018069
0.001001425
0.0010011858
0.0010011738
0.0010011999
0.0010010192
0.0010014657
7.1395238e-07
9.8603102e-06
7.9275932e-06
7.2819917e-06
8.4874562e-06
6.8289122e-06
8.0064016e-06
6.4451831e-06
6.8383696e-06
6.0307186e-06
6.1066703e-06
5.8731446e-06
5.9549603e-06
5.9721502e-06
6.113109e-06
6.2641394e-06
6.4779837e-06
6.7236662e-06
7.0168079e-06
7.3513919e-06
7.7346617e-06
8.1686859e-06
8.6601212e-06
9.1983821e-06
9.8204181e-06
1.0523627e-05
1.1319825e-05
1.2223197e-05
1.3251074e-05
1.442479e-05
1.5770358e-05
1.7319688e-05
1.9111972e-05
2.1195645e-05
2.3630057e-05
2.6487578e-05
2.9859938e-05
3.3858833e-05
3.8608295e-05
4.4293438e-05
5.1128455e-05
5.9681876e-05
6.9438884e-05
8.1293078e-05
9.5690722e-05
0.00011312658
0.00013430713
0.0001600851
0.00019332054
0.00023221196
0.0002801512
0.0003395451
0.00041346129
0.00050566591
0.00062056362
0.0007629965
0.00093799683
0.0010221832
0.0010210777
0.001019899
0.001018637
0.0010172786
0.0010158071
0.0010142008
0.0010124322
0.0010104673
0.0010085698
0.0010069628
0.0010056084
0.0010044745
0.001003533
0.0010027575
0.0010021281
0.001001638
0.0010012743
0.0010010501
0.0010010346
0.0010010204
0.0010009251
0.0010013204
6.6853214e-07
8.9146367e-06
7.1839866e-06
6.3488065e-06
7.67569e-06
5.9859458e-06
6.9317847e-06
5.5751783e-06
5.7470421e-06
5.1741237e-06
5.238986e-06
5.099198e-06
5.1872579e-06
5.2448263e-06
5.3941947e-06
5.5622302e-06
5.7819503e-06
6.0347182e-06
6.3309133e-06
6.6680016e-06
7.0404091e-06
7.4706269e-06
7.9568253e-06
8.5051943e-06
9.1237521e-06
9.8219944e-06
1.061167e-05
1.1506864e-05
1.2524661e-05
1.3686229e-05
1.5017376e-05
1.6549773e-05
1.8322473e-05
2.0383713e-05
2.2792422e-05
2.5620871e-05
2.896166e-05
3.2923749e-05
3.7628259e-05
4.3272754e-05
5.0072245e-05
5.811245e-05
6.7711593e-05
7.9429678e-05
9.4481345e-05
0.00011193989
0.00013321853
0.00015921975
0.00019112764
0.00023259775
0.00028157741
0.00034237619
0.00041797026
0.00051184702
0.0006279017
0.00077031578
0.00094355987
0.0010213777
0.0010202607
0.0010190739
0.0010178084
0.0010164529
0.0010149928
0.0010134092
0.0010116776
0.0010097688
0.0010079772
0.0010064608
0.0010051837
0.0010041162
0.0010032326
0.0010025092
0.001001928
0.0010014768
0.0010011364
0.001000929
0.0010009043
0.0010008639
0.0010008298
0.0010012003
6.2953202e-07
7.8680064e-06
6.4826288e-06
5.4952095e-06
6.8411999e-06
5.2074132e-06
5.9071609e-06
4.7035933e-06
4.8228402e-06
4.4223622e-06
4.4816257e-06
4.417947e-06
4.5148835e-06
4.6052237e-06
4.7645566e-06
4.9476385e-06
5.1747829e-06
5.4353701e-06
5.7267061e-06
6.0656969e-06
6.4502645e-06
6.8840541e-06
7.3727048e-06
7.9225998e-06
8.541729e-06
9.2395602e-06
1.0027782e-05
1.0920453e-05
1.1934427e-05
1.3090815e-05
1.4415337e-05
1.5939615e-05
1.77028e-05
1.9753163e-05
2.2149445e-05
2.4964896e-05
2.8293225e-05
3.223914e-05
3.6925569e-05
4.257136e-05
4.9370328e-05
5.7367818e-05
6.6943151e-05
7.870865e-05
9.3072702e-05
0.00011055665
0.00013307395
0.00015949868
0.00019204509
0.00023226017
0.00028476501
0.00034699893
0.00042407194
0.00051914113
0.00063567053
0.00077747779
0.00094897466
0.0010205824
0.0010194556
0.0010182621
0.0010169943
0.0010156427
0.0010141951
0.0010126352
0.0010109416
0.0010090867
0.0010074008
0.0010059747
0.0010047748
0.0010037732
0.001002946
0.0010022723
0.0010017366
0.0010013234
0.0010010111
0.0010008237
0.0010007887
0.0010007334
0.0010007479
0.0010010902
5.9720458e-07
6.7346044e-06
5.8426817e-06
4.715323e-06
5.9764546e-06
4.4916018e-06
4.7966812e-06
3.9453815e-06
4.0275574e-06
3.7692269e-06
3.8275652e-06
3.8239611e-06
3.9326719e-06
4.0495443e-06
4.2200296e-06
4.4168452e-06
4.6445634e-06
4.9116719e-06
5.2179244e-06
5.564434e-06
5.9554621e-06
6.3951363e-06
6.8890639e-06
7.4437289e-06
8.0671059e-06
8.7685802e-06
9.5597882e-06
1.0436134e-05
1.1445546e-05
1.2595158e-05
1.3910407e-05
1.5422724e-05
1.7171154e-05
1.9203746e-05
2.1579126e-05
2.4371985e-05
2.7675688e-05
3.1590181e-05
3.6249674e-05
4.2162641e-05
4.8976316e-05
5.6955506e-05
6.6584784e-05
7.8486684e-05
9.3021721e-05
0.00011077823
0.00013256239
0.00016077785
0.00019411424
0.00023535012
0.00028637908
0.00035276347
0.00043098539
0.00052678455
0.0006433881
0.0007845814
0.00095507661
0.0010198016
0.0010186669
0.0010174685
0.0010161998
0.0010148529
0.001013418
0.0010118825
0.0010102287
0.0010084306
0.0010068482
0.001005511
0.001004387
0.0010034499
0.0010026774
0.0010020507
0.0010015565
0.0010011779
0.0010008954
0.001000731
0.001000689
0.0010006262
0.0010006792
0.0010009792
5.7278684e-07
5.6504663e-06
5.2504336e-06
4.004099e-06
5.0892005e-06
3.6999502e-06
4.2772099e-06
3.3135883e-06
3.3445439e-06
3.2038556e-06
3.2700682e-06
3.3120357e-06
3.4348936e-06
3.5738246e-06
3.7503225e-06
3.9579889e-06
4.2019884e-06
4.4798114e-06
4.7952762e-06
5.1505804e-06
5.5498975e-06
5.9976516e-06
6.4994307e-06
7.0617423e-06
7.6841421e-06
8.3895566e-06
9.1834498e-06
1.0079526e-05
1.1094604e-05
1.2249378e-05
1.3569392e-05
1.5086357e-05
1.6839705e-05
1.8877698e-05
2.1259909e-05
2.4063545e-05
2.7381149e-05
3.1310646e-05
3.6006837e-05
4.1709032e-05
4.8487157e-05
5.6837953e-05
6.6600423e-05
7.8697161e-05
9.3481751e-05
0.00011160919
0.00013389858
0.00016138457
0.00019706877
0.00023932917
0.00029146067
0.00035556935
0.00043810479
0.00053434526
0.00065099194
0.00079204047
0.00096265801
0.0010190404
0.0010179001
0.0010166988
0.0010154307
0.0010140892
0.0010126667
0.0010111543
0.0010095404
0.001007809
0.0010063266
0.0010050755
0.0010040253
0.0010031509
0.0010024309
0.0010018486
0.0010013914
0.0010010424
0.0010007869
0.0010006454
0.0010006024
0.0010005368
0.0010006303
0.0010008656
5.585352e-07
4.6389587e-06
4.6881916e-06
3.3680903e-06
4.360074e-06
3.2602752e-06
3.1366246e-06
2.7448092e-06
2.7834534e-06
2.7181885e-06
2.8013569e-06
2.8789229e-06
3.016599e-06
3.1689274e-06
3.3617408e-06
3.5834583e-06
3.8387201e-06
4.1274049e-06
4.4529774e-06
4.8183109e-06
5.2275567e-06
5.6853071e-06
6.1926248e-06
6.7630971e-06
7.4014331e-06
8.1168297e-06
8.9204608e-06
9.8259988e-06
1.0850297e-05
1.2014139e-05
1.3343306e-05
1.4869937e-05
1.6633859e-05
1.8683626e-05
2.1080681e-05
2.390489e-05
2.7245657e-05
3.1201614e-05
3.595507e-05
4.1733239e-05
4.8542744e-05
5.6552071e-05
6.691691e-05
7.9258327e-05
9.4363738e-05
0.0001129344
0.0001357962
0.00016400064
0.0002006013
0.00024379703
0.00029685133
0.00036175723
0.00044503135
0.00054165083
0.00065860762
0.00080021903
0.00097209561
0.0010183046
0.0010171614
0.0010159598
0.0010146943
0.0010133593
0.0010119483
0.0010104544
0.00100887
0.00100723
0.0010058427
0.0010046737
0.0010036941
0.0010028795
0.0010022097
0.0010016689
0.0010012448
0.0010009202
0.0010006859
0.0010005594
0.0010005107
0.0010004442
0.0010005511
0.0010007642
5.5783745e-07
3.7648842e-06
4.1458065e-06
3.4260887e-06
3.9219375e-06
2.4751517e-06
2.5192191e-06
2.2704916e-06
2.3220793e-06
2.3171069e-06
2.4156604e-06
2.5223116e-06
2.6690831e-06
2.8422391e-06
3.0480074e-06
3.2823683e-06
3.5487685e-06
3.8485429e-06
4.1850081e-06
4.5614228e-06
4.9819205e-06
5.448221e-06
5.9703952e-06
6.5528804e-06
7.2032476e-06
7.9306204e-06
8.7461128e-06
9.6633966e-06
1.0699371e-05
1.1874981e-05
1.3216347e-05
1.4756118e-05
1.6534411e-05
1.8600586e-05
2.1019062e-05
2.3870735e-05
2.7238568e-05
3.1232462e-05
3.6072883e-05
4.1940217e-05
4.8770212e-05
5.7281139e-05
6.7464711e-05
8.0098978e-05
9.557235e-05
0.00011462178
0.00013807328
0.00016697236
0.00020437842
0.00024835769
0.00030213547
0.00036764699
0.00045151602
0.00054862784
0.00066629888
0.00080916928
0.00098318348
0.0010176006
0.0010164575
0.0010152586
0.0010139988
0.0010126729
0.001011275
0.0010097988
0.0010082375
0.0010067006
0.0010054025
0.0010043104
0.0010033969
0.0010026385
0.0010020155
0.0010015132
0.0010011184
0.0010008148
0.0010005971
0.0010004769
0.0010004167
0.0010003521
0.0010004556
0.0010006693
5.7216249e-07
3.950679e-06
3.6632244e-06
3.2184994e-06
3.0611649e-06
1.9703926e-06
2.0364566e-06
1.8862668e-06
1.9493037e-06
1.9932657e-06
2.1061143e-06
2.2327415e-06
2.3959377e-06
2.584188e-06
2.8017998e-06
3.0479353e-06
3.3255164e-06
3.6366803e-06
3.9846783e-06
4.3729518e-06
4.8040451e-06
5.2849375e-06
5.8199989e-06
6.4155092e-06
7.0789623e-06
7.8194135e-06
8.6479267e-06
9.5781817e-06
1.0627152e-05
1.1816032e-05
1.3171355e-05
1.4726179e-05
1.652099e-05
1.8607039e-05
2.1051887e-05
2.3933262e-05
2.7329875e-05
3.1384208e-05
3.6342219e-05
4.2257534e-05
4.9405664e-05
5.7723169e-05
6.8211915e-05
8.1141488e-05
9.6996002e-05
0.00011650883
0.00014051282
0.00017002201
0.00020805918
0.00025264235
0.00030696079
0.00037295238
0.00045735394
0.0005551384
0.00067389445
0.00081851483
0.00099513446
0.0010169351
0.0010157953
0.0010146024
0.0010133519
0.0010120388
0.0010106578
0.0010092033
0.001007669
0.0010062271
0.0010050109
0.0010039894
0.0010031364
0.0010024293
0.0010018493
0.0010013819
0.0010010129
0.0010007276
0.0010005232
0.0010004047
0.001000332
0.0010002672
0.0010003562
0.001000546
5.170727e-07
4.1348947e-06
3.0566651e-06
1.9255736e-06
1.9802018e-06
1.6188444e-06
1.6345804e-06
1.5875865e-06
1.6575122e-06
1.7383617e-06
1.8647871e-06
2.0099054e-06
2.1859491e-06
2.3869612e-06
2.6158291e-06
2.8733608e-06
3.1622764e-06
3.4850915e-06
3.8450152e-06
4.2455351e-06
4.6906876e-06
5.1835977e-06
5.7317921e-06
6.3405421e-06
7.0172664e-06
7.7709594e-06
8.6126775e-06
9.5561265e-06
1.0618412e-05
1.1820951e-05
1.3190657e-05
1.4760909e-05
1.6573026e-05
1.8680988e-05
2.1153516e-05
2.4061874e-05
2.7493535e-05
3.1801928e-05
3.6894312e-05
4.2833463e-05
4.9727828e-05
5.8294699e-05
6.9060095e-05
8.2256457e-05
9.8477204e-05
0.00011840139
0.00014287388
0.00017438291
0.00021131566
0.00025631725
0.00031101505
0.00037739801
0.00046227223
0.00056085767
0.00068089598
0.00082742927
0.0010066536
0.0010163159
0.0010151824
0.0010139987
0.0010127607
0.001011464
0.0010101036
0.0010086745
0.0010071712
0.0010058146
0.001004672
0.0010037138
0.0010029148
0.0010022534
0.0010017117
0.001001275
0.0010009289
0.0010006597
0.0010004658
0.0010003459
0.0010002617
0.0010001965
0.0010002667
0.0010004224
3.8387826e-07
2.1573312e-06
2.2207985e-06
1.542315e-06
1.5211353e-06
1.3153366e-06
1.3344387e-06
1.3469827e-06
1.4343487e-06
1.5406827e-06
1.6810443e-06
1.8418233e-06
2.0296183e-06
2.2422058e-06
2.4820357e-06
2.750696e-06
3.0508253e-06
3.3850947e-06
3.756662e-06
4.1690068e-06
4.6261036e-06
5.1324844e-06
5.6934185e-06
6.3151197e-06
7.005045e-06
7.7722771e-06
8.628011e-06
9.5861557e-06
1.0664113e-05
1.1883788e-05
1.3272685e-05
1.4864627e-05
1.6702594e-05
1.8843717e-05
2.1354486e-05
2.4301385e-05
2.7799489e-05
3.2065558e-05
3.7197457e-05
4.3078255e-05
5.0050048e-05
5.8865727e-05
6.9858808e-05
8.3307981e-05
9.9826966e-05
0.00012108558
0.00014607217
0.00017659262
0.00021378572
0.00025900632
0.00031391372
0.00038416828
0.00046577242
0.00056512634
0.00068636494
0.00083457734
0.0010159391
0.0010157511
0.0010146264
0.0010134546
0.001012232
0.0010109546
0.0010096181
0.0010082179
0.0010067489
0.0010054671
0.0010043888
0.0010034857
0.0010027336
0.0010021119
0.0010016032
0.0010011929
0.0010008666
0.0010006121
0.0010004269
0.0010003045
0.0010002114
0.0010001448
0.0010001896
0.0010002949
2.9936718e-07
1.5681697e-06
1.6815474e-06
1.2111834e-06
1.1791901e-06
1.0772038e-06
1.1130797e-06
1.1658696e-06
1.2697733e-06
1.3948657e-06
1.5471158e-06
1.7206808e-06
1.9187345e-06
2.1415513e-06
2.3913365e-06
2.6700467e-06
2.9802438e-06
3.3246556e-06
3.7063942e-06
4.1289187e-06
4.5961613e-06
5.1126103e-06
5.6834808e-06
6.3149297e-06
7.0143501e-06
7.7907644e-06
8.6553054e-06
9.6218603e-06
1.0707935e-05
1.193562e-05
1.3332284e-05
1.4932081e-05
1.6780243e-05
1.8934479e-05
2.1454318e-05
2.4412264e-05
2.796626e-05
3.231079e-05
3.7384894e-05
4.3178695e-05
5.0309092e-05
5.9803117e-05
7.103615e-05
8.4770647e-05
0.00010159587
0.00012217176
0.00014729798
0.00017791437
0.00021515116
0.00026038193
0.00031818954
0.00038544415
0.00046732915
0.0005672302
0.00068930948
0.00083863009
0.0010163228
0.0010152504
0.0010141365
0.0010129783
0.0010117728
0.0010105166
0.0010092059
0.0010078369
0.0010064056
0.0010051872
0.0010041631
0.0010033064
0.0010025937
0.0010020051
0.0010015238
0.0010011353
0.0010008256
0.0010005837
0.0010004062
0.0010002829
0.0010001867
0.0010001231
0.0010001508
0.0010002184
2.297405e-07
1.1879603e-06
1.2337016e-06
9.683573e-07
9.325544e-07
8.9988549e-07
9.5385923e-07
1.0365492e-06
1.1553721e-06
1.2956409e-06
1.4591201e-06
1.6441049e-06
1.8524702e-06
2.085453e-06
2.345174e-06
2.6336156e-06
2.9535591e-06
3.3076488e-06
3.6989783e-06
4.1310075e-06
4.6076546e-06
5.1333908e-06
5.7134025e-06
6.3538054e-06
7.0619457e-06
7.8468008e-06
8.7194805e-06
9.6939055e-06
1.0787677e-05
1.2022836e-05
1.342672e-05
1.5034734e-05
1.6894234e-05
1.9059084e-05
2.165979e-05
2.4662097e-05
2.8314902e-05
3.2695674e-05
3.7675266e-05
4.3520415e-05
5.0922814e-05
6.018545e-05
7.1481444e-05
8.5303629e-05
0.00010217614
0.00012276658
0.00014784494
0.00017994057
0.00021728098
0.00026263735
0.00031777933
0.00038492635
0.00046683766
0.00056690219
0.00068924101
0.00083885356
0.0010158868
0.0010148251
0.0010137234
0.0010125799
0.0010113919
0.0010101564
0.0010088703
0.0010075303
0.001006145
0.0010049772
0.0010039963
0.0010031764
0.0010024948
0.0010019321
0.0010014719
0.0010011
0.0010008028
0.0010005705
0.0010003978
0.001000273
0.0010001755
0.0010001139
0.001000124
0.0010001557
1.4964711e-07
9.5175786e-07
8.8406143e-07
7.7919873e-07
7.5585507e-07
7.6892294e-07
8.391526e-07
9.4145017e-07
1.0705665e-06
1.220257e-06
1.3906224e-06
1.5818943e-06
1.7955974e-06
2.0333458e-06
2.2971615e-06
2.5892543e-06
2.9121337e-06
3.2685772e-06
3.6616686e-06
4.0948604e-06
4.5720625e-06
5.0977332e-06
5.6770372e-06
6.3160686e-06
7.0221367e-06
7.8041386e-06
8.6731015e-06
9.6428996e-06
1.0731045e-05
1.1959295e-05
1.335512e-05
1.49555e-05
1.6806835e-05
1.8954839e-05
2.146044e-05
2.4462716e-05
2.8114715e-05
3.234224e-05
3.7130313e-05
4.3009364e-05
5.0482993e-05
5.9662269e-05
7.1380394e-05
8.5124524e-05
0.00010187307
0.0001222733
0.00014709247
0.00017726842
0.00021395447
0.00025858806
0.00031296371
0.00037930979
0.00046036318
0.00055945447
0.00068062527
0.00082880046
0.0010100154
0.0010145144
0.0010134264
0.0010122987
0.0010111288
0.0010099144
0.0010086528
0.0010073416
0.0010059947
0.0010048596
0.0010039069
0.0010031106
0.0010024487
0.0010019021
0.0010014546
0.001001092
0.0010008014