/*--------------------------------*- C++ -*----------------------------------*\
  =========                 |
  \\      /  F ield         | OpenFOAM: The Open Source CFD Toolbox
   \\    /   O peration     | Website:  https://openfoam.org
    \\  /    A nd           | Version:  6
     \\/     M anipulation  |
\*---------------------------------------------------------------------------*/
FoamFile
{
    version     2.0;
    format      ascii;
    class       volScalarField;
    location    "100";
    object      omega;
}
// * * * * * * * * * * * * * * * * * * * * * * * * * * * * * * * * * * * * * //

dimensions      [0 0 -1 0 0 0 0];

internalField   nonuniform List<scalar> 
16000
(
1248.7962
1694.551
859.22351
508.06415
365.12394
269.95243
208.04726
166.98361
135.37695
113.60421
95.897719
82.597922
71.572221
62.81459
55.479851
49.447483
44.347174
40.05627
36.389174
33.249746
30.534888
28.176412
26.112143
24.297066
22.693609
21.272957
20.010873
18.887204
17.88447
16.987777
16.184484
15.464164
14.817904
14.238467
13.719531
13.255639
12.841917
12.473864
12.147366
11.858634
11.604063
11.380312
11.184347
11.013455
10.86513
10.736991
10.626801
10.532501
10.452221
10.384292
10.327284
10.280064
10.242
10.213579
10.194119
10.181362
10.173006
10.166442
10.159628
10.151777
10.142545
10.131407
10.117588
10.100115
10.078262
10.052674
10.029724
10.011015
9.9962452
9.9845531
9.9755571
9.9687664
9.9642087
9.9625166
9.9623221
9.9691152
9.97238
9.990316
9.9791161
10.004307
1053.3355
1734.4855
859.26153
513.70998
364.19306
270.87096
207.03142
166.68084
134.78696
113.27735
95.501799
82.30776
71.281041
62.574086
55.256426
49.254252
44.173045
39.903288
36.252872
33.129055
30.427681
28.081774
26.029152
24.225125
22.632043
21.220975
19.967479
18.851293
17.854945
16.963665
16.165084
15.448992
14.806671
14.230689
13.714474
13.252619
12.840261
12.473322
12.147834
11.85995
11.606048
11.382823
11.187246
11.016611
10.868439
10.740378
10.630204
10.535862
10.455484
10.387389
10.330112
10.282428
10.243432
10.212782
10.191252
10.177088
10.168074
10.161393
10.154647
10.146924
10.137911
10.127109
10.113736
10.096698
10.074966
10.049081
10.027369
10.01001
9.9962722
9.985269
9.976521
9.969776
9.9650268
9.9631152
9.9625392
9.9687577
9.971618
9.9906938
9.9805269
10.005763
1082.0442
1774.8756
857.40174
518.67723
362.69498
271.54133
205.78299
166.24108
134.05853
112.84165
95.000038
81.922328
70.900784
62.25124
54.957434
48.991332
43.935326
39.691958
36.063396
32.959672
30.275978
27.94636
25.908809
24.118888
22.538931
21.139916
19.897261
18.790651
17.802687
16.918742
16.126591
15.416131
14.778875
14.207535
13.695667
13.237606
12.828352
12.463649
12.140022
11.853888
11.601524
11.379595
11.185101
11.015355
10.867901
10.740419
10.630707
10.536716
10.456591
10.388646
10.331403
10.283598
10.244217
10.212606
10.188851
10.17309
10.163272
10.156414
10.149699
10.142066
10.13323
10.122729
10.1098
10.093255
10.0717
10.046706
10.026173
10.009819
9.9967355
9.9861126
9.9774729
9.9707381
9.9659048
9.9638706
9.9631869
9.968875
9.9717079
9.9912711
9.980475
10.005436
1108.6737
1809.3466
853.96451
522.79094
360.67401
271.76676
204.31283
165.61259
133.18845
112.26782
94.385088
81.425687
70.424814
61.837327
54.578062
48.653864
43.630808
39.419402
35.818614
32.739802
30.078391
27.769073
25.750264
23.977704
22.413787
21.029412
19.799935
18.705051
17.727501
16.852827
16.068958
15.365921
14.735323
14.169899
13.663376
13.210276
12.805635
12.444827
12.124141
11.840551
11.590561
11.370719
11.177991
11.009754
10.863573
10.737158
10.628339
10.53508
10.455541
10.38804
10.331097
10.283435
10.243989
10.211954
10.186928
10.169362
10.158578
10.151484
10.144772
10.137197
10.1285
10.118267
10.105777
10.089795
10.068457
10.044706
10.025299
10.00975
9.9971367
9.9867528
9.9782018
9.9714837
9.9666842
9.9645417
9.9639764
9.9689862
9.9720481
9.9906469
9.9816305
10.005505
1133.1791
1838.535
848.8963
525.89816
358.10356
271.43816
202.60437
164.78957
132.18486
111.55646
93.662164
80.820266
69.856648
61.334988
54.120925
48.244133
43.261516
39.087454
35.520153
32.470959
29.836297
27.551171
25.554654
23.802574
22.25746
20.890194
19.676157
18.59512
17.630007
16.766544
15.992795
15.29889
14.676537
14.118535
13.618667
13.17152
12.772327
12.416681
12.100433
11.820301
11.573401
11.356411
11.166131
10.999988
10.85561
10.730728
10.623211
10.531043
10.452402
10.385619
10.329218
10.28192
10.242645
10.210536
10.185013
10.165941
10.153997
10.146599
10.139867
10.132318
10.123725
10.113722
10.101662
10.086349
10.065671
10.043273
10.024781
10.009781
9.9974463
9.987197
9.9787339
9.972079
9.9673937
9.9652009
9.9648603
9.9692106
9.9726538
9.9903769
9.9825326
10.005078
1155.5307
1861.5917
842.01744
527.8455
354.9944
270.42337
200.69417
163.75854
131.0526
110.70056
92.831431
80.102876
69.195606
60.742925
53.585495
47.761659
42.827178
38.69592
35.167874
32.153058
29.549634
27.292622
25.321941
23.593454
22.069916
20.722253
19.525958
18.46094
17.510338
16.66006
15.89829
15.215243
14.602732
14.053617
13.561755
13.121818
12.729086
12.379323
12.068613
11.793243
11.550205
11.336736
11.149593
10.986123
10.844063
10.72117
10.615354
10.524624
10.447185
10.381383
10.325753
10.279025
10.240118
10.208159
10.18251
10.162866
10.149526
10.141748
10.134974
10.127427
10.118906
10.109096
10.09744
10.082864
10.063236
10.042079
10.024272
10.009632
9.9974758
9.9873517
9.9790314
9.9725237
9.9680122
9.9658348
9.9657418
9.9694985
9.9733324
9.9896749
9.9837769
10.004947
1175.7696
1877.7105
833.21556
528.52785
351.39304
268.60978
198.61236
162.52089
129.80294
109.70125
91.897143
79.275234
68.444026
60.063151
52.973697
47.208322
42.329434
38.246338
34.763136
31.787379
29.219544
26.994476
25.053067
23.351227
21.851989
20.526409
19.350168
18.303351
17.36933
16.534196
15.786232
15.115724
14.514607
13.975815
13.49328
13.06175
12.676604
12.333646
12.029108
11.759537
11.521307
11.312021
11.128631
10.968404
10.829136
10.708661
10.604916
10.515946
10.439987
10.375408
10.320761
10.274788
10.236422
10.204793
10.179245
10.159384
10.145173
10.136923
10.130091
10.122524
10.114047
10.10439
10.093096
10.07927
10.061001
10.040907
10.023589
10.009194
9.997192
9.9872384
9.979136
9.9728547
9.9685542
9.9664507
9.9665879
9.9698545
9.9740577
9.9890442
9.9848024
10.00466
1193.9745
1881.4797
823.13006
527.83521
347.32839
266.41132
196.38269
161.07643
128.4415
108.55738
90.859803
78.337358
67.602099
59.296359
52.286099
46.585065
41.769078
37.739621
34.306757
31.374741
28.846792
26.65746
24.748731
23.076588
21.60439
20.303416
19.149581
18.123174
17.207806
16.389752
15.657394
15.00107
14.412861
13.885787
13.413857
12.991907
12.615407
12.280235
11.982632
11.719482
11.487045
11.282605
11.103509
10.947065
10.811039
10.693373
10.592043
10.505127
10.430907
10.367775
10.314306
10.269266
10.231604
10.200469
10.175211
10.155414
10.140953
10.132114
10.125212
10.11761
10.109152
10.099612
10.088622
10.07549
10.0587
10.039516
10.022563
10.008383
9.9965813
9.9868787
9.9790736
9.9730853
9.9690222
9.967042
9.9673733
9.9702695
9.9747371
9.9878905
9.9858719
10.004431
1210.2745
1868.9395
812.51068
525.55274
342.79075
263.86324
194.02622
159.4237
126.97135
107.26805
89.718792
77.289622
66.669881
58.443764
51.523591
45.89329
41.147346
37.177089
33.799983
30.916387
28.432556
26.282728
24.410056
22.770671
21.328282
20.054465
18.925409
17.921618
17.026946
16.227868
15.512866
14.872315
14.298476
13.78446
13.324358
12.913094
12.546245
12.21977
11.929889
11.673821
11.447799
11.248888
11.074635
10.922433
10.790061
10.675548
10.576941
10.49234
10.420087
10.358604
10.306495
10.262551
10.225752
10.195266
10.170465
10.150931
10.136495
10.127317
10.120335
10.112685
10.10423
10.094774
10.084023
10.071472
10.056077
10.037742
10.021118
10.007201
9.9956859
9.9863206
9.9788785
9.9732309
9.9694271
9.9676109
9.9680988
9.9707484
9.9754357
9.9869198
9.9867741
10.004132
1224.8452
1842.6415
801.18246
521.38351
337.79224
260.97416
191.56865
157.56655
125.39635
105.83544
88.474146
76.134037
65.648032
57.507217
50.687405
45.134681
40.465643
36.560216
33.244185
30.413691
27.97817
25.871605
24.038368
22.434832
21.025051
19.780969
18.67907
17.700083
16.828106
16.04984
15.353894
14.730647
14.172573
13.672888
13.225772
12.826232
12.469964
12.153056
11.871605
11.623221
11.404105
11.211368
11.042428
10.894868
10.766515
10.655456
10.559842
10.477782
10.407698
10.348045
10.29746
10.25477
10.218985
10.189304
10.165118
10.146014
10.131795
10.122525
10.115458
10.107754
10.099289
10.089891
10.079321
10.067209
10.052922
10.035497
10.019248
10.005691
9.9945614
9.9856063
9.9785745
9.9733016
9.9697811
9.9681627
9.9687726
9.9712835
9.9761314
9.9860887
9.9876073
10.003771
1237.9059
1808.3475
788.63432
515.04061
332.36466
257.77912
189.03957
155.51912
123.72109
104.26592
87.12685
74.874273
64.537915
56.489299
49.779243
44.311284
39.725727
35.890745
32.641056
29.868346
27.485308
25.425768
23.635357
22.070801
20.696445
19.484681
18.412301
17.460262
16.612911
15.85722
15.181966
14.577473
14.036478
13.552315
13.119254
12.732383
12.387521
12.080986
11.808553
11.568426
11.356709
11.17062
11.007347
10.86479
10.740768
10.633413
10.541019
10.461691
10.393946
10.336281
10.287372
10.246083
10.21146
10.182731
10.159309
10.140782
10.126928
10.117736
10.110582
10.102822
10.09434
10.084986
10.074553
10.062745
10.049094
10.032783
10.017011
10.003925
9.9932686
9.9847757
9.9781856
9.9733122
9.9701026
9.9687092
9.9694143
9.9718713
9.9768232
9.9854404
9.9883147
10.003355
1249.7325
1776.2935
774.77564
507.0568
326.51134
254.32225
186.46066
153.29724
121.94604
102.56572
85.676386
73.513479
63.340289
55.392125
48.800483
43.424922
38.92931
35.17042
31.986854
29.276463
26.950263
24.941828
23.198008
21.67597
20.340235
19.163704
18.123496
17.200794
16.380201
15.649008
14.996251
14.412091
13.889596
13.422236
13.004387
12.631203
12.298603
12.003359
11.741623
11.510235
11.306347
11.127285
10.969931
10.832676
10.713238
10.609776
10.520788
10.444338
10.379072
10.323529
10.276431
10.236681
10.203359
10.175719
10.15319
10.135359
10.121971
10.11295
10.105711
10.097894
10.089395
10.080078
10.069764
10.058204
10.045034
10.029669
10.014495
10.001982
9.9918621
9.983865
9.9777363
9.9732808
9.9704103
9.9692625
9.9700445
9.9725034
9.9775014
9.9849956
9.9889398
10.002894
1260.5872
1745.9333
759.70576
498.60997
320.60062
250.63337
183.8384
150.91048
120.06481
100.73754
84.119289
72.05261
62.054452
54.216555
47.741902
42.464559
38.065175
34.389895
31.283281
28.641251
26.377142
24.424374
22.731126
21.255236
19.961268
18.822754
17.817193
16.926015
16.134073
15.429027
14.800353
14.237852
13.735024
13.285499
12.883783
12.525086
12.205301
11.92172
11.670411
11.448326
11.252735
11.081125
10.930776
10.799047
10.684387
10.584936
10.499498
10.426031
10.363349
10.31004
10.264867
10.226777
10.194878
10.168445
10.146911
10.129855
10.116988
10.108172
10.100852
10.092982
10.084468
10.075189
10.064985
10.053645
10.040881
10.026264
10.011797
9.9999326
9.9903915
9.9829106
9.9772546
9.9732282
9.9707204
9.9698331
9.9706854
9.9731755
9.9781596
9.9847738
9.989485
10.00214
1270.7867
1716.5272
743.45917
489.76265
314.77651
246.74591
181.1741
148.37036
118.07005
98.784493
82.452424
70.492588
60.658304
52.939157
46.598782
41.432313
37.1388
33.555671
30.533082
27.965567
25.768945
23.876453
22.237724
20.811618
19.562502
18.464697
17.496153
16.638578
15.877039
15.199575
14.596473
14.056798
13.574644
13.143824
12.759017
12.41553
12.108979
11.837503
11.596984
11.384495
11.19741
11.033236
10.889579
10.76364
10.654047
10.559312
10.477538
10.407111
10.347082
10.296087
10.252932
10.216598
10.186218
10.161076
10.140602
10.12436
10.112026
10.103408
10.096014
10.088097
10.079574
10.070336
10.060241
10.049108
10.036698
10.022688
10.009007
9.9978389
9.9889017
9.9819494
9.9767694
9.9731743
9.9710432
9.9704264
9.9713562
9.973888
9.9787946
9.9847509
9.9900589
10.001591
1280.63
1686.8312
726.06776
480.5584
309.09273
242.68724
178.45624
145.68478
115.9504
96.706608
80.634285
68.784624
59.143416
51.564081
45.37247
40.33022
36.152712
32.670602
29.73945
27.252735
25.129206
23.301669
21.721305
20.348631
19.147357
18.092815
17.163514
16.341484
15.611956
14.963172
14.385076
13.869261
13.408667
12.997312
12.630094
12.302605
12.010998
11.751924
11.522412
11.319693
11.141307
10.984581
10.84769
10.727585
10.622985
10.532679
10.454787
10.38795
10.330599
10.281963
10.24088
10.206364
10.177562
10.153756
10.134364
10.118934
10.107114
10.09867
10.091211
10.083256
10.074731
10.06554
10.05556
10.04463
10.032546
10.019051
10.006202
9.9957545
9.987435
9.9810169
9.9763089
9.973137
9.9713836
9.9710429
9.9720714
9.9746464
9.9794078
9.9848651
9.9905525
10.001223
1290.3982
1654.9555
707.50722
471.01338
303.58076
238.47602
175.65827
142.85637
113.69014
94.417963
78.637317
66.933242
57.508024
50.091703
44.064378
39.160578
35.109979
31.738165
28.906355
26.506818
24.462246
22.704414
21.186003
19.867406
18.716646
17.707668
16.819647
16.03501
15.339111
14.720688
14.169978
13.678841
13.240454
12.849058
12.499747
12.188285
11.910979
11.664618
11.44634
11.253555
11.084202
10.935892
10.805762
10.691529
10.591858
10.505969
10.431856
10.368432
10.314245
10.267966
10.228963
10.196278
10.169065
10.146594
10.128262
10.113609
10.102267
10.093975
10.086461
10.078478
10.069959
10.060824
10.050966
10.040243
10.028476
10.015445
10.003445
9.9937269
9.9860299
9.9801453
9.9758984
9.9731329
9.9717437
9.971678
9.9728372
9.9754612
9.9800231
9.9850812
9.9909576
10.000988
1300.45
1618.0626
688.05177
461.11592
298.2458
234.12546
172.73824
139.81963
111.13405
91.902763
76.451542
64.934701
55.750286
48.522682
42.676795
37.926655
34.014913
30.762992
28.039053
25.732915
23.768843
22.085171
20.63311
19.373951
18.276604
17.315436
16.470523
15.724888
15.063796
14.476652
13.954032
13.4881
13.072306
12.70114
12.36992
12.074607
11.811682
11.578073
11.370973
11.187905
11.027307
10.886713
10.763372
10.655227
10.561187
10.479705
10.40924
10.349101
10.297906
10.254389
10.217411
10.186511
10.160842
10.139661
10.122334
10.108402
10.097496
10.089345
10.081788
10.073787
10.065284
10.056212
10.046482
10.035975
10.024531
10.011945
10.000792
9.9917988
9.9847208
9.9793624
9.975561
9.9731788
9.9721271
9.9723228
9.9736427
9.9763319
9.9806778
9.9854203
9.9913877
10.000771
1310.8556
1572.063
669.34115
450.80356
293.05201
229.64187
169.64379
136.40807
108.27242
89.14662
74.065264
62.785007
53.869312
46.858817
41.213765
36.633369
32.873767
29.751264
27.137254
24.931799
23.057006
21.45251
20.070763
18.874113
17.832728
16.921137
16.120596
15.415259
14.789737
14.234399
13.740209
13.299675
12.906552
12.555609
12.24241
11.963139
11.71449
11.493543
11.29752
11.123849
10.971836
10.838635
10.721781
10.619466
10.530609
10.453723
10.387409
10.330376
10.28202
10.241103
10.206438
10.1772
10.152971
10.133
10.1166
10.103325
10.092816
10.084805
10.077221
10.069214
10.060737
10.051733
10.042134
10.031845
10.020737
10.008617
9.9982919
9.9900098
9.9835387
9.9786931
9.9753189
9.9732943
9.9725432
9.9729682
9.9744553
9.9772259
9.9813755
9.9858584
9.991842
10.000489
1321.5764
1526.6202
651.55705
439.92353
287.88435
225.01555
165.9674
132.56726
105.06349
86.13362
71.465296
60.479523
51.865711
45.103535
39.681766
35.287621
31.684326
28.702495
26.21187
24.114593
22.334922
20.814147
19.506179
18.374384
17.391138
16.530309
15.774466
15.108066
14.518376
13.994945
13.529164
13.113916
12.743293
12.412362
12.11695
11.853489
11.61892
11.410522
11.225727
11.062359
10.918689
10.79233
10.681639
10.584984
10.501122
10.428625
10.366196
10.312641
10.266884
10.228427
10.195881
10.168469
10.145502
10.126638
10.111076
10.098393
10.088251
10.080389
10.072794
10.064797
10.056355
10.047424
10.03795
10.027869
10.017097
10.005517
9.9959905
9.9883953
9.9825111
9.978159
9.9751916
9.973499
9.9730088
9.973617
9.9752439
9.9780918
9.9820883
9.9863483
9.9923733
10.000132
1332.3654
1479.8772
634.97034
428.25553
282.53079
219.67624
162.8186
128.31673
101.43965
82.841622
68.642559
58.015853
49.744241
43.264162
38.077773
33.887904
30.4617
27.632505
25.274183
23.291815
21.612297
20.178965
18.947645
17.881686
16.955261
16.145963
15.435626
14.809459
14.255375
13.763477
13.325633
12.935141
12.586457
12.274961
11.996755
11.748531
11.527467
11.331004
11.156738
11.002758
10.867471
10.748471
10.643501
10.552267
10.473175
10.404862
10.346093
10.295722
10.252714
10.216558
10.18595
10.16014
10.138466
10.120595
10.105784
10.093636
10.083835
10.076134
10.068547
10.060578
10.052187
10.043335
10.033977
10.024066
10.013547
10.002696
9.9939276
9.9869857
9.9816596
9.9777756
9.9751914
9.9738045
9.9735387
9.9742858
9.976003
9.9788623
9.9826693
9.9867252
9.9925912
9.9998182
1342.5238
1429.4063
619.90172
415.52825
277.36287
214.72093
157.91437
123.48582
97.37767
79.23602
65.593253
55.39875
47.51678
41.340035
36.420759
32.456319
29.222125
26.556355
24.337923
22.47579
20.900098
19.556473
18.400428
17.401682
16.5339
15.775894
15.11052
14.523844
14.004506
13.543221
13.132376
12.765715
12.438074
12.145154
11.883338
11.649591
11.441319
11.256113
11.091786
10.94665
10.819074
10.706559
10.60782
10.52171
10.447128
10.382773
10.327462
10.280091
10.239658
10.205619
10.176776
10.152409
10.131891
10.114901
10.100757
10.089093
10.079613
10.072079
10.064523
10.056603
10.048284
10.039529
10.030297
10.020546
10.010226
10.000196
9.9921361
9.985804
9.980998
9.9775491
9.9753194
9.9742095
9.9741354
9.9749909
9.9767592
9.9795599
9.9831337
9.9870145
9.9926032
9.9995071
1350.7511
1373.8092
607.0371
409.17459
273.72138
207.48602
152.12537
118.00695
92.862102
75.326527
62.333897
52.652473
45.188934
39.362016
34.736354
31.016088
27.98652
25.492618
23.419325
21.680463
20.210454
18.954885
17.87613
16.944018
16.133871
15.425877
14.804031
14.255347
13.769251
13.337114
12.951874
12.607742
12.299936
12.024478
11.778035
11.557829
11.361446
11.186654
11.031707
10.89498
10.77451
10.668437
10.574962
10.493646
10.423258
10.362578
10.310469
10.265856
10.227812
10.195671
10.168398
10.14531
10.125814
10.109597
10.096043
10.084815
10.075632
10.068267
10.060763
10.052916
10.044694
10.036062
10.026984
10.017421
10.007329
9.9980518
9.9906405
9.9848653
9.9805324
9.9774776
9.9755678
9.9747031
9.9747906
9.975731
9.9775245
9.980233
9.9835693
9.9872675
9.9925096
9.998926
1354.9082
1349.0213
596.36402
407.95919
270.09086
198.50077
145.50385
111.86985
87.908289
71.159684
58.90523
49.799851
42.810845
37.36811
33.057711
29.596024
26.779955
24.462932
22.53673
20.920528
19.553075
18.387397
17.384112
16.516483
15.761659
15.101317
14.520673
14.007737
13.55276
13.147793
12.786341
12.463081
12.173621
11.9143
11.682069
11.474351
11.288796
11.123263
10.977133
10.848373
10.734684
10.633845
10.545322
10.468397
10.401819
10.344452
10.295238
10.253035
10.217252
10.186767
10.160854
10.138878
10.120291
10.104742
10.091705
10.080863
10.071949
10.064743
10.057312
10.04956
10.041457
10.032973
10.024074
10.014725
10.004887
9.9962865
9.9894562
9.9841771
9.980263
9.9775554
9.9759257
9.9752723
9.9754951
9.9765034
9.9783005
9.9808951
9.9840092
9.9875368
9.992417
9.9982962
1351.5589
1359.6609
586.13086
392.56298
260.66937
188.65271
137.84403
105.27011
82.621078
66.841245
55.39839
46.920504
40.442246
35.407329
31.426036
28.230813
25.631742
23.492325
21.712118
20.21637
18.948611
17.865595
16.933754
16.126711
15.423512
14.807362
14.264711
13.784572
13.35801
12.977748
12.637846
12.333444
12.060534
11.815797
11.596491
11.400245
11.224845
11.068494
10.929989
10.807784
10.699361
10.603238
10.51923
10.446249
10.383055
10.328519
10.281992
10.242133
10.208059
10.17897
10.154185
10.133117
10.115389
10.100407
10.087814
10.077307
10.068627
10.061556
10.054214
10.046574
10.03861
10.030293
10.021595
10.012484
10.002923
9.994913
9.9885881
9.9837387
9.9801849
9.977774
9.9763813
9.9759033
9.9762379
9.977303
9.979093
9.9815718
9.9844939
9.9878562
9.9923463
9.9975905
1335.9935
1314.5347
572.52002
375.65475
249.11152
177.58833
129.26674
98.270473
77.146424
62.486679
51.918435
44.099993
38.152241
33.535581
29.887099
26.95772
24.571697
22.604468
20.964263
19.583048
18.409595
17.404746
16.538134
15.785885
15.129014
14.552273
14.043329
13.592164
13.190612
12.832016
12.510941
12.222931
11.96432
11.732107
11.523821
11.337275
11.170322
11.021538
10.889803
10.773075
10.668945
10.576752
10.496827
10.427436
10.367399
10.315632
10.271129
10.23297
10.200328
10.172396
10.148522
10.128338
10.111188
10.096671
10.084446
10.074221
10.065745
10.05876
10.051521
10.044004
10.036187
10.028049
10.019564
10.010705
10.001444
9.9939312
9.9880306
9.9835398
9.9802848
9.9781179
9.9769174
9.9765784
9.9770005
9.97811
9.9798892
9.982272
9.9850591
9.9883087
9.9924967
9.9972409
1304.0133
1255.7701
559.97252
356.16437
235.58451
165.59434
120.19134
91.187275
71.739929
58.281561
48.60902
41.45387
36.02383
31.813508
28.486151
25.812243
23.626078
21.818433
20.306584
19.029377
17.94084
17.005851
16.197147
15.493257
14.877056
14.334748
13.855136
13.429095
13.049166
12.709252
12.404357
12.130369
11.883909
11.662214
11.462929
11.284663
11.125037
10.982973
10.857042
10.744771
10.644614
10.556489
10.479681
10.413007
10.355273
10.30542
10.262473
10.225538
10.194098
10.167169
10.144143
10.124496
10.107781
10.093614
10.081666
10.071652
10.063325
10.056426
10.049295
10.041905
10.034236
10.026269
10.017984
10.009356
10.000456
9.9933383
9.987773
9.9835635
9.9805403
9.9785598
9.9775021
9.977262
9.9777427
9.9788763
9.9806308
9.9829239
9.9856053
9.9887531
9.9926626
9.9969533
1251.8823
1192.5298
550.7308
336.60501
221.02265
153.55664
111.41462
84.666677
66.90971
54.625212
45.799035
39.262515
34.294759
30.433851
27.373293
24.904664
22.882955
21.2052
19.796819
18.602748
17.581587
16.70166
15.938322
15.272101
14.687414
14.17166
13.714575
13.307767
12.944363
12.618732
12.326247
12.063111
11.826227
11.613051
11.42133
11.249009
11.094772
10.957569
10.835354
10.725756
10.628215
10.542605
10.467841
10.403266
10.347297
10.298924
10.257213
10.221317
10.190478
10.164029
10.141389
10.122054
10.105592
10.091627
10.079833
10.069925
10.061657
10.054817
10.047803
10.040544
10.033024
10.025228
10.017139
10.008739
10.00014
9.9932768
9.9879267
9.9838952
9.9810152
9.9791452
9.9781656
9.9779713
9.9784694
9.9795946
9.9813011
9.9835038
9.9860989
9.9891586
9.9928327
9.9967679
1184.7685
1129.9009
536.778
316.72257
204.4341
140.56227
102.35213
78.245608
62.274459
51.193086
43.210142
37.27906
32.755023
29.223875
26.411573
24.132116
22.256287
20.692318
19.373651
18.25104
17.287357
16.454094
15.728977
15.094326
14.535919
14.0422
13.603709
13.212692
12.862769
12.548684
12.266108
12.011489
11.781941
11.575006
11.389148
11.222066
11.072746
10.939599
10.820002
10.712681
10.61773
10.534414
10.461569
10.398123
10.343042
10.295361
10.25419
10.218715
10.18821
10.162029
10.13961
10.12046
10.104153
10.090314
10.078619
10.068786
10.060568
10.053757
10.046862
10.03973
10.032345
10.024691
10.016753
10.008513
10.000139
9.9934514
9.9882466
9.984332
9.9815426
9.9797377
9.9787977
9.9786175
9.9791079
9.9802018
9.9818423
9.9839507
9.9864592
9.9894089
9.9928406
9.9964999
1133.1609
1101.9565
530.44609
308.5121
197.60746
135.2951
98.621702
75.720122
60.564386
50.018643
42.393323
36.704864
32.347644
28.932682
26.202385
23.981561
22.148156
20.615201
19.319406
18.21379
17.26281
16.439097
15.72121
15.092082
14.537947
14.047586
13.611751
13.222812
12.87451
12.561677
12.280057
12.026176
11.79716
11.590499
11.404124
11.236659
11.08676
10.952122
10.830721
10.722234
10.626392
10.542125
10.468323
10.403938
10.347967
10.299467
10.257559
10.221439
10.190377
10.163723
10.140907
10.121424
10.104837
10.09076
10.078861
10.068849
10.060475
10.053522
10.046797
10.039846
10.032654
10.025206
10.017488
10.009483
10.001175
9.9943853
9.9891011
9.9851236
9.9822824
9.9804317
9.979447
9.9792205
9.9796619
9.9806984
9.9822652
9.9842941
9.9867366
9.989593
9.9928404
9.9963365
1140.8975
1161.5095
548.4851
319.0245
203.30322
138.49149
100.41833
76.776541
61.200258
50.410347
42.638677
36.861511
32.449888
29.001291
26.24997
24.015869
22.17397
20.635495
19.336037
18.227922
17.27519
16.450216
15.731405
15.101605
14.546992
14.056304
13.620337
13.231476
12.883397
12.570886
12.289676
12.036282
11.807698
11.601319
11.415355
11.248585
11.098858
10.963322
10.841095
10.732287
10.635955
10.550971
10.476317
10.411
10.354087
10.304687
10.261961
10.225124
10.193454
10.166293
10.143054
10.123218
10.106332
10.092002
10.079885
10.069688
10.061156
10.05407
10.047493
10.040695
10.033659
10.026374
10.018823
10.010992
10.002865
9.9958977
9.990455
9.9863347
9.9833635
9.9813931
9.9802965
9.9799652
9.9803074
9.9812462
9.9827145
9.9846518
9.9870135
9.9897712
9.992886
9.9963009
29316.485
33270.335
18058.408
12250.38
8710.5365
6290.3599
4590.1823
3390.6142
2534.0382
1914.3955
1454.6527
1115.2581
857.80516
665.26932
511.32505
390.37394
299.42589
230.89926
179.20604
140.43464
111.2423
89.316499
72.870921
60.422085
50.90962
43.628608
37.946843
33.462289
29.859641
26.941334
24.535538
22.516132
20.801953
19.333522
18.067958
16.970558
16.014962
15.180355
14.44938
13.810931
13.254364
12.769143
12.350409
11.986726
11.670699
11.397431
11.16249
10.961879
10.792457
10.65004
10.530808
10.433206
10.355461
10.295397
10.250027
10.215933
10.189571
10.168064
10.149361
10.132788
10.117525
10.104015
10.090553
10.078823
10.066766
10.055739
10.042441
10.032299
10.019059
10.012414
10.000424
10.000834
9.9834332
9.9977378
9.9664607
10.002688
9.9598647
10.01488
9.9581898
10.043745
39100.379
30881.356
22094.919
15794.921
11222.659
7991.0739
5728.5997
4150.8446
3044.9694
2257.7616
1688.788
1271.7544
963.05721
732.61549
559.36204
428.66017
329.83002
254.50234
197.35607
154.18608
121.59726
97.060548
78.631261
64.71814
54.11988
46.053479
39.78645
34.877499
30.95056
27.799161
25.223221
23.072724
21.255562
19.705481
18.375236
17.224652
16.225414
15.354778
14.593556
13.930246
13.35299
12.850997
12.416539
12.041077
11.71502
11.433422
11.191522
10.985078
10.810734
10.663718
10.541218
10.440996
10.361111
10.299399
10.252847
10.217985
10.191203
10.169515
10.150788
10.134265
10.119123
10.105751
10.092437
10.080749
10.068759
10.057641
10.044232
10.033806
10.020445
10.013644
10.001228
10.002001
9.9831543
9.9984603
9.9662251
10.00376
9.95999
10.015279
9.9583588
10.044175
42860.939
19581.338
12068.039
6984.4674
3518.9783
1640.6585
808.9506
469.20602
326.52969
253.25801
207.52432
173.70473
147.73458
127.22128
109.95767
95.986273
84.338545
74.333286
65.992164
58.905131
52.682905
47.393036
42.901243
38.914971
35.358558
32.397554
29.662383
27.313839
25.19546
23.382698
21.781574
20.340166
19.057241
17.925556
16.926614
16.03629
15.247372
14.547598
13.925661
13.380178
12.900796
12.479948
12.115528
11.793733
11.512519
11.268681
11.058373
10.878379
10.725579
10.596338
10.488684
10.400803
10.331214
10.277884
10.237727
10.207413
10.183632
10.163862
10.14643
10.130953
10.116701
10.104158
10.091417
10.080337
10.068579
10.057525
10.044028
10.033645
10.020301
10.01388
10.001082
10.002836
9.9824396
9.9997919
9.9647641
10.005869
9.9588386
10.017123
9.9580053
10.041802
40536.335
21488.002
12111.894
6008.5211
2558.4028
1037.9833
523.72695
349.19487
275.57346
226.8545
190.96529
161.50275
138.36063
119.88685
103.98614
91.181514
80.424516
71.089007
63.316192
56.642603
50.793612
45.819677
41.522091
37.689618
34.398033
31.514429
28.954792
26.693229
24.708619
22.948859
21.387619
20.002326
18.774062
17.684577
16.717267
15.858825
15.097568
14.421115
13.822779
13.295889
12.831564
12.423155
12.064878
11.751176
11.477432
11.24003
11.035178
10.859985
10.710294
10.584166
10.479321
10.393784
10.32615
10.274373
10.235353
10.20582
10.182589
10.163228
10.146186
10.131054
10.117196
10.104936
10.092636
10.081722
10.069995
10.058865
10.045292
10.034691
10.021359
10.014935
10.001643
10.003876
9.9827606
10.001354
9.9651231
10.007624
9.9595071
10.018412
9.9587291
10.036807
42354.209
21675.466
11817.09
5700.5249
2349.1083
936.18834
488.40285
335.70313
268.2241
220.88579
185.92624
157.27001
134.57724
115.95154
100.83365
88.244748
77.737528
68.856208
61.318763
54.836908
49.298891
44.494441
40.29667
36.662495
33.489726
30.703005
28.252343
26.095494
24.193796
22.508895
21.011344
19.682663
18.503212
17.455309
16.524098
15.696113
14.960239
14.305291
13.726103
13.215221
12.764075
12.366891
12.018014
11.712251
11.445404
11.213905
11.014098
10.842991
10.69689
10.573816
10.4715
10.388054
10.322154
10.271734
10.233689
10.204807
10.182029
10.163004
10.146297
10.131463
10.117956
10.105943
10.094054
10.083269
10.071518
10.060307
10.046617
10.035838
10.022447
10.016194
10.002157
10.005245
9.9822643
10.003107
9.9641237
10.009459
9.9598898
10.019411
9.9594675
10.031682
43095.96
21483.578
11431.326
5137.4853
1946.7994
754.76556
429.27471
313.36797
256.43429
211.67525
178.55291
150.93319
129.25677
111.42552
97.001703
84.951342
74.926282
66.426494
59.214873
53.039171
47.726425
43.132873
39.15802
35.690368
32.655715
29.992583
27.646877
25.577625
23.751879
22.130669
20.688445
19.407616
18.268997
17.255909
16.354264
15.551535
14.837288
14.201091
13.638838
13.141835
12.702222
12.314958
11.974465
11.675937
11.415422
11.189398
10.994312
10.827087
10.684441
10.564259
10.464331
10.382859
10.318594
10.269442
10.232296
10.204011
10.181651
10.162942
10.146554
10.132008
10.118835
10.107059
10.09555
10.084876
10.073091
10.061784
10.047966
10.037068
10.023547
10.01749
10.002708
10.00664
9.9826154
10.004949
9.9644116
10.011279
9.9605899
10.020092
9.9601984
10.026474
44124.386
21407.259
10896.614
4633.4783
1659.7692
650.64851
399.12843
301.80982
249.14415
205.3703
173.06497
146.12582
125.19124
107.92723
94.017901
82.373462
72.702193
64.495585
57.544965
51.583051
46.467386
42.044977
38.208937
34.865777
31.943284
29.376948
27.115978
25.120939
23.35965
21.793744
20.399043
19.159435
18.056363
17.073917
16.198716
15.418822
14.724128
14.105021
13.558147
13.073554
12.644464
12.266308
11.933593
11.641826
11.387252
11.166374
10.975725
10.812292
10.672962
10.555537
10.457876
10.378273
10.315547
10.267578
10.231256
10.203509
10.181526
10.163107
10.147014
10.132741
10.119875
10.108366
10.097128
10.08655
10.074723
10.063307
10.04934
10.038363
10.024633
10.018841
10.003279
10.008151
9.9828374
10.006825
9.9648043
10.013024
9.9613206
10.020358
9.9608231
10.021182
45018.626