/*--------------------------------*- C++ -*----------------------------------*\
  =========                 |
  \\      /  F ield         | OpenFOAM: The Open Source CFD Toolbox
   \\    /   O peration     | Website:  https://openfoam.org
    \\  /    A nd           | Version:  6
     \\/     M anipulation  |
\*---------------------------------------------------------------------------*/
FoamFile
{
    version     2.0;
    format      ascii;
    class       volScalarField;
    location    "100";
    object      p;
}
// * * * * * * * * * * * * * * * * * * * * * * * * * * * * * * * * * * * * * //

dimensions      [1 -1 -2 0 0 0 0];

internalField   nonuniform List<scalar> 
16000
(
98128.146
98197.288
98203.622
98270.394
98286.068
98347.264
98373.245
98429.324
98464.124
98517.053
98558.556
98610.323
98656.718
98708.765
98758.771
98811.936
98864.71
98919.362
98974.331
99030.513
99087.227
99144.764
99202.799
99261.366
99320.27
99379.436
99438.708
99497.963
99557.047
99615.819
99674.127
99731.721
99788.615
99844.309
99898.555
99951.406
100002.69
100052.61
100100.89
100147.27
100191.67
100234.01
100274.17
100312.06
100347.62
100380.79
100411.52
100439.78
100465.55
100488.84
100509.63
100527.95
100543.81
100557.23
100568.24
100576.86
100583.13
100587.08
100588.74
100588.2
100585.53
100580.93
100574.48
100566.64
100557.25
100547.31
100535.51
100524.55
100509.55
100498.88
100477.44
100471.24
100435.09
100447.02
100373.8
100439.28
100275.94
100468.67
100131.61
100520.42
98135.058
98208.888
98215.098
98287.267
98303.159
98369.494
98396.54
98457.201
98493.937
98550.933
98595.034
98650.516
98699.914
98755.468
98808.668
98865.211
98921.219
98979.13
99037.264
99096.556
99156.278
99216.715
99277.516
99338.696
99400.04
99461.452
99522.756
99583.813
99644.449
99704.502
99763.792
99822.152
99879.416
99935.318
99989.864
100042.53
100093.31
100141.94
100188.73
100233.46
100275.9
100316.02
100353.77
100389.05
100421.84
100452.1
100479.82
100505
100527.66
100547.81
100565.48
100580.72
100593.57
100604.08
100612.29
100618.27
100622.05
100623.7
100623.26
100620.81
100616.44
100610.27
100602.41
100593.13
100582.46
100570.87
100557.94
100544.82
100529.43
100515.54
100495.98
100483.69
100454.67
100453.24
100397.83
100436.56
100306.06
100457.96
100158.26
100514.36
98158.922
98238.488
98244.714
98322.615
98339.138
98410.659
98439.24
98504.422
98543.517
98604.513
98651.542
98710.71
98763.35
98822.421
98878.981
98938.932
98998.281
99059.482
99120.837
99183.245
99245.977
99309.277
99372.788
99436.49
99500.151
99563.649
99626.787
99689.402
99751.303
99812.306
99872.222
99930.865
99988.052
100043.61
100097.35
100149.14
100198.79
100245.94
100290.52
100332.85
100372.73
100409.96
100444.61
100476.63
100505.98
100532.69
100556.78
100578.28
100597.23
100613.69
100627.72
100639.39
100648.76
100655.9
100660.88
100663.77
100664.63
100663.52
100660.5
100655.64
100649.03
100640.78
100631.01
100619.89
100607.56
100594.27
100579.94
100565.06
100548.78
100532.74
100513.58
100497.59
100472.21
100462.25
100418.1
100437.68
100331.27
100450.98
100183.65
100510.53
98203.314
98289.135
98295.304
98379.59
98396.763
98474.055
98504.355
98574.538
98616.302
98681.707
98732.036
98795.257
98851.514
98914.439
98974.7
99038.355
99101.327
99166.054
99230.833
99296.511
99362.359
99428.574
99494.786
99560.938
99626.78
99692.157
99756.852
99820.675
99883.416
99944.875
100004.85
100063.14
100119.57
100173.95
100226.13
100275.97
100323.27
100368.06
100409.97
100448.83
100485.15
100518.62
100549.2
100577.02
100602.04
100624.32
100643.92
100660.91
100675.38
100687.4
100697.07
100704.49
100709.73
100712.91
100714.09
100713.36
100710.8
100706.48
100700.46
100692.83
100683.66
100673.06
100661.14
100648.06
100633.91
100618.89
100603.01
100586.5
100569.01
100551.23
100531.64
100513.15
100489.45
100473.93
100437.06
100442.92
100354.83
100448.55
100207.35
100513.65
98267.42
98360.383
98366.493
98457.891
98475.877
98559.473
98591.81
98667.385
98712.22
98782.347
98836.386
98903.941
98964.182
99031.219
99095.482
99163.063
99229.879
99298.291
99366.622
99435.641
99504.627
99573.717
99642.53
99710.963
99778.746
99845.689
99911.554
99976.124
100039.17
100100.48
100159.84
100217.04
100271.91
100324.28
100374
100420.93
100465
100506.07
100544.2
100579.09
100610.7
100639.46
100665.12
100687.85
100707.72
100724.77
100739.14
100750.92
100760.24
100767.2
100771.94
100774.56
100775.19
100773.93
100770.87
100766.13
100759.77
100751.88
100742.53
100731.8
100719.78
100706.56
100692.25
100676.98
100660.86
100644.01
100626.48
100608.37
100589.55
100570.28
100549.9
100529.62
100506.49
100487.22
100455.09
100450.63
100377.2
100449.15
100231.06
100520.28
98352.798
98453.735
98459.696
98558.978
98577.955
98668.432
98703.19
98784.6
98832.996
98908.226
98966.475
99038.722
99103.397
99174.879
99243.509
99315.297
99386.221
99458.509
99530.535
99602.965
99675.088
99746.972
99818.22
99888.683
99958.063
100026.14
100092.65
100157.35
100219.99
100280.37
100338.24
100393.43
100445.76
100495.07
100541.25
100584.2
100623.84
100660.15
100693.07
100722.79
100748.82
100771.83
100791.68
100808.41
100822.24
100833.25
100841.61
100847.47
100850.96
100852.26
100851.49
100848.81
100844.35
100838.22
100830.54
100821.42
100810.93
100799.17
100786.22
100772.16
100757.07
100741.06
100724.23
100706.67
100688.48
100669.75
100650.51
100630.82
100610.61
100589.97
100568.6
100546.94
100523.76
100501.92
100472.94
100460.6
100399.07
100452.61
100254.94
100530.37
98458.614
98568.572
98574.531
98682.71
98703.073
98801.203
98838.978
98926.807
98979.441
99060.264
99123.362
99200.747
99270.392
99346.711
99420.116
99496.41
99571.704
99648.038
99723.855
99799.698
99874.869
99949.356
100022.75
100094.84
100165.31
100233.9
100300.33
100364.34
100425.69
100484.13
100539.46
100591.51
100640.11
100685.16
100726.57
100764.29
100798.29
100828.6
100855.28
100878.26
100898.06
100914.1
100927.08
100936.88
100943.8
100947.99
100949.62
100948.9
100946
100941.1
100934.37
100925.96
100916.03
100904.71
100892.1
100878.33
100863.48
100847.65
100830.92
100813.37
100795.09
100776.18
100756.72
100736.8
100716.49
100695.83
100674.87
100653.6
100632
100610.07
100587.67
100564.88
100541.31
100517.72
100490.76
100472.44
100421.3
100458.32
100279.72
100542.71
98585.947
98706.275
98712.461
98830.728
98852.942
98959.609
99001.109
99096.001
99153.654
99240.607
99309.262
99392.265
99467.447
99549.006
99627.586
99708.664
99788.541
99869.024
99948.639
100027.79
100105.78
100182.52
100257.57
100330.69
100401.52
100469.78
100535.16
100597.41
100656.28
100711.53
100763
100810.53
100854.02
100893.38
100928.6
100959.68
100986.67
101009.67
101028.75
101044.12
101056.04
101064.21
101069.29
101071.33
101070.55
101067.22
101061.49
101053.64
101043.84
101032.32
101019.24
101004.78
100989.09
100972.32
100954.58
100935.98
100916.63
100896.6
100875.99
100854.88
100833.36
100811.51
100789.4
100767.11
100744.66
100722.1
100699.41
100676.6
100653.64
100630.49
100607.07
100583.34
100559.22
100534.49
100508.75
100486
100443.37
100466
100305.67
100556.68
98736.825
98869.337
98875.881
99005.54
99030.054
99146.14
99192.128
99294.695
99358.193
99451.792
99526.721
99615.804
99697.065
99784.23
99868.323
99954.389
100038.96
100123.57
100206.84
100289
100369.37
100447.78
100523.77
100597.03
100667.19
100733.96
100797.02
100856.12
100911.02
100961.55
101007.55
101048.94
101085.66
101117.72
101145.16
101168.06
101186.56
101200.82
101211.02
101217.48
101220.16
101219.7
101216.02
101209.53
101200.36
101188.87
101175.26
101159.82
101142.75
101124.27
101104.58
101083.85
101062.24
101039.89
101016.91
100993.42
100969.5
100945.25
100920.76
100896.11
100871.37
100846.61
100821.9
100797.26
100772.72
100748.28
100723.92
100699.63
100675.36
100651.08
100626.7
100602.18
100577.46
100552.06
100526.96
100501.12
100465.75
100475.43
100332.94
100572.1
98913.491
99060.184
99067.064
99209.488
99236.811
99363.171
99414.527
99525.386
99595.648
99696.44
99778.413
99874.063
99961.945
100055.06
100144.95
100236.12
100325.37
100413.93
100500.49
100585.13
100667.18
100746.36
100822.2
100894.36
100962.46
101026.19
101085.26
101139.45
101188.56
101232.48
101271.12
101304.47
101332.57
101355.52
101373.44
101386.54
101395.03
101399.15
101399.22
101395.53
101388.2
101378.06
101364.8
101349.03
101330.87
101310.74
101288.85
101265.5
101240.9
101215.29
101188.85
101161.77
101134.18
101106.23
101078.02
101049.66
101021.23
100992.84
100964.56
100936.46
100908.6
100881.04
100853.8
100826.91
100800.35
100774.11
100748.16
100722.47
100696.99
100671.68
100646.45
100621.27
100595.98
100570.27
100545.39
100517.65
100488.26
100486.44
100361.61
100589.01
99117.287
99280.152
99287.354
99444.152
99475.082
99612.758
99670.64
99790.569
99868.717
99977.38
100067.27
100170.03
100265.08
100364.47
100460.33
100556.59
100650.29
100742.35
100831.54
100917.78
101000.39
101079.02
101153.19
101222.53
101286.69
101345.37
101398.34
101445.43
101486.54
101521.62
101550.7
101573.88
101591.32
101603.21
101609.82
101611.45
101608.41
101601.06
101589.79
101574.91
101556.82
101536.15
101512.66
101487.05
101459.51
101430.42
101400.03
101368.62
101336.42
101303.64
101270.47
101237.07
101203.58
101170.13
101136.82
101103.73
101070.97
101038.6
101006.69
100975.32
100944.51
100914.29
100884.68
100855.66
100827.21
100799.29
100771.87
100744.9
100718.33
100692.11
100666.15
100640.43
100614.71
100588.96
100564.04
100535.48
100510.93
100498.89
100392.14
100606.28
99348.564
99530.43
99538.466
99711.719
99747.462
99897.767
99963.666
100093.61
100180.95
100298.26
100396.97
100507.4
100610.07
100715.91
100817.7
100918.73
101016.31
101111.04
101201.73
101288.17
101369.68
101445.86
101516.23
101580.47
101638.24
101689.33
101733.58
101770.95
101801.43
101825.13
101842.21
101852.9
101857.51
101856.37
101849.87
101838.42
101822.45
101802.42
101778.78
101751.9
101722.35
101690.48
101656.43
101620.72
101583.63
101545.5
101506.58
101467.15
101427.43
101387.61
101347.87
101308.35
101269.18
101230.45
101192.27
101154.72
101117.86
101081.78
101046.51
101012.09
100978.56
100945.9
100914.1
100883.13
100852.94
100823.5
100794.76
100766.66
100739.15
100712.16
100685.63
100659.5
100633.51
100607.91
100582.84
100554.38
100533.54
100512.85
100424.43
100623.64
99611.143
99815.159
99824.474
100016.37
100058.29
100222.55
100298.12
100439.03
100536.92
100663.61
100771.97
100890.47
101000.97
101113.14
101220.44
101325.49
101425.83
101521.77
101612.17
101696.72
101774.74
101845.83
101909.59
101965.71
102014.01
102054.37
102086.79
102111.37
102128.29
102137.82
102140.3
102136.13
102125.76
102109.69
102088.42
102062.49
102032.43
101998.75
101961.99
101922.56
101881.08
101837.8
101793.1
101747.27
101700.67
101653.61
101606.36
101559.14
101512.16
101465.6
101419.6
101374.29
101329.76
101286.12
101243.42
101201.75
101161.15
101121.68
101083.36
101046.21
101010.22
100975.37
100941.61
100908.9
100877.19
100846.42
100816.53
100787.48
100759.2
100731.61
100704.67
100678.27
100652.22
100626.91
100601.7
100574.1
100555.91
100528.31
100457.13
100640.28
99908.315
100138.26
100149.49
100362.49
100412.34
100591.97
100679.14
100832.03
100941.86
101078.63
101197.27
101323.99
101442.16
101560.05
101671.83
101779.44
101880.65
101975.5
102062.93
102142.56
102213.79
102276.27
102329.72
102373.99
102409.05
102434.99
102452.01
102460.43
102460.64
102453.13
102438.42
102417.11
102389.82
102357.16
102319.78
102278.3
102233.31
102185.41
102135.16
102082.97
102029.49
101975.01
101919.73
101864.02
101808.2
101752.58
101697.37
101642.79
101589
101536.15
101484.35
101433.7
101384.28
101336.17
101289.41
101244.05
101200.13
101157.67
101116.68
101077.13
101039
101002.24
100966.79
100932.58
100899.57
100867.69
100836.88
100807.07
100778.2
100750.2
100723.02
100696.53
100670.61
100645.68
100620.48
100594.32
100577.85
100545.13
100489.01
100655.67
100244.21
100504.62
100518.69
100755.56
100815.56
101012.06
101113.01
101278.88
101401.98
101549.33
101678.5
101813.1
101938.09
102060.32
102174.62
102282.3
102381.37
102471.67
102552.27
102622.81
102682.84
102732.19
102770.77
102798.68
102816.15
102823.55
102821.34
102810.1
102790.48
102763.19
102728.98
102688.6
102642.81
102592.36
102537.98
102480.35
102420.1
102357.85
102294.17
102229.41
102164.26
102099.02
102033.63
101968.56
101904.09
101840.48
101777.92
101716.57
101656.56
101598.01
101540.99
101485.58
101431.83
101379.79
101329.49
101280.95
101234.19
101189.19
101145.92
101104.36
101064.42
101026.07
100989.21
100953.79
100919.73
100886.98
100855.47
100825.12
100795.87
100767.66
100740.42
100714
100688.42
100663.94
100638.99
100614.65
100599.12
100563.3
100520.51
100670.46
100624.04
100920.46
100938.81
101202.62
101275.55
101490.4
101607.5
101787.19
101924.48
102082.48
102221.73
102362.96
102492.86
102616.78
102730.24
102834.04
102926.46
103007.26
103075.73
103131.67
103174.93
103205.62
103223.98
103230.45
103225.63
103210.19
103184.95
103150.77
103108.55
103059.22
103003.7
102942.9
102877.68
102808.87
102737.22
102663.43
102588.13
102511.95
102435.36
102358.62
102282.57
102207.38
102132.61
102058.95
101986.58
101915.77
101846.61
101779.24
101713.74
101650.2
101588.65
101529.15
101471.71
101416.36
101363.1
101311.93
101262.82
101215.74
101170.64
101127.44
101086.06
101046.44
101008.49
100972.14
100937.32
100903.96
100871.98
100841.32
100811.9
100783.67
100756.55
100730.4
100705.34
100681.39
100656.96
100634.61
100619.24
100582.01
100551.91
100684.52
101054.8
101393.61
101418.2
101712.15
101801.27
102035.81
102171.74
102365.97
102517.57
102685.21
102832.85
102977.96
103109.08
103230.22
103337.56
103431.58
103510.92
103575.5
103624.97
103659.49
103679.33
103685.05
103677.36
103657.13
103625.36
103583.12
103531.53
103471.74
103404.88
103332.03
103254.26
103172.53
103087.75
103000.75
102912.28
102822.99
102733.45
102644.26
102555.72
102468.05
102382.32
102298.17
102214.95
102133.68
102054.38
101977.29
101902.44
101829.92
101759.77
101692.04
101626.73
101563.86
101503.42
101445.41
101389.8
101336.56
101285.63
101236.94
101190.43
101145.99
101103.55
101063.01
101024.29
100987.31
100952
100918.28
100886.09
100855.34
100825.97
100797.93
100771.11
100745.42
100721.04
100697.7
100674.11
100653.79
100638.24
100601.2
100582.5
100697.13
101544.38
101933.29
101966.95
102294.13
102403.32
102658.5
102815.29
103024.44
103189.44
103363.73
103515.95
103660.01
103786.25
103897.63
103991.09
104067.09
104124.84
104164.65
104186.79
104191.99
104181.13
104155.34
104115.88
104064.11
104001.43
103929.28
103849.05
103762.09
103669.65
103572.93
103472.99
103370.82
103267.26
103163.1
103058.99
102955.47
102853.08
102752.26
102653.13
102556
102462.01
102369.92
102279.49
102191.77
102106.67
102024.36
101944.82
101868.1
101794.21
101723.13
101654.87
101589.39
101526.67
101466.66
101409.31
101354.56
101302.31
101252.49
101204.99
101159.71
101116.56
101075.44
101036.27
100998.96
100963.45
100929.64
100897.47
100866.86
100837.75
100810.08
100783.74
100758.7
100735.13
100712.51
100690.02
100671.74
100656.07
100620.28
100610.49
100707.76
102105.29
102553.2
102600.24
102963.82
103098.77
103375.87
103551.42
103769.34
103945.71
104121.95
104271.97
104406.94
104518.88
104610.3
104679.16
104726.31
104751.87
104756.89
104742.49
104710.15
104661.5
104598.3
104522.34
104435.43
104339.31
104235.65
104125.99
104011.76
103894.23
103774.56
103653.74
103532.63
103411.99
103292.46
103174.54
103058.65
102945.22
102834.54
102726.48
102621.62
102520.77
102422.05
102325.83
102232.92
102143.21
102056.78
101973.6
101893.66
101816.93
101743.39
101672.98
101605.65
101541.34
101479.98
101421.48
101365.75
101312.68
101262.17
101214.09
101168.35
101124.85
101083.49
101044.17
101006.83
100971.37
100937.72
100905.8
100875.54
100846.89
100819.77
100794.08
100769.85
100747.19
100725.39
100704.26
100688.04
100671.93
100637.1
100636.66
100717.38
102754.79
103272.55
103339.86
103739.39
103901.55
104193.63
104390.21
104615.18
104792.92
104961.35
105097.03
105209.76
105293.48
105350.89
105381.38
105386.73
105368.27
105328.08
105268.26
105191.15
105099.07
104994.33
104879.15
104755.6
104625.57
104490.78
104352.77
104212.86
104072.2
103931.79
103792.44
103654.85
103519.58
103387.08
103257.67
103131.66
103009.35
102890.74
102775.59
102664.84
102558.7
102454.84
102354.21
102257.35
102164.2
102074.76
101988.97
101906.79
101828.14
101752.97
101681.2
101612.74
101547.51
101485.4
101426.3
101370.09
101316.64
101265.85
101217.59
101171.74
101128.22
101086.92
101047.76
101010.64
100975.49
100942.22
100910.77
100881.06
100853.04
100826.63
100801.75
100778.46
100756.78
100735.9
100716.36
100701.85
100685.01
100652.84
100661.13
100724.67
103519.79
104117.67
104214.82
104640.97
104830.82
105135.77
105341.02
105561.81
105726.71
105870.38
105973.83
106045.92
106083.43
106089.92
106066.74
106016.96
105943.36
105849.08
105737.2
105610.72
105472.45
105325.01
105170.74
105011.71
104849.74
104686.37
104522.93
104360.5
104199.99
104042.12
103887.48
103736.52
103589.58
103446.91
103308.64
103174.98
103046.06
102921.5
102801.22
102686.64
102576.76
102468.99
102365.21
102265.61
102170.18
102078.81
101991.43
101907.93
101828.23
101752.23
101679.83
101610.91
101545.36
101483.04
101423.82
101367.58
101314.17
101263.48
101215.38
101169.76
101126.53
101085.58
101046.82
101010.18
100975.55
100942.88
100912.08
100883.09
100855.86
100830.29
100806.35
100784.11
100763.46
100743.65
100725.82
100712.65
100695.37
100667.27
100681.35
100728.9
104430.58
105098.11
105217.58
105668.76
105898.69
106216.52
106407.21
106598.59
106726.58
106820.37
106867.56
106876.61
106847.83
106786.23
106695.33
106579.6
106443.09
106289.78
106123.32
105947.01
105763.73
105576
105385.95
105195.38
105005.74
104818.25
104633.84
104453.26
104277.09
104105.75
103939.55
103778.69
103623.29
103473.38
103328.96
103190.15
103056.77
102928.19
102804.98
102688.51
102575.55
102465.15
102359.64
102258.55
102161.98
102069.71
101981.67
101897.72
101817.76
101741.66
101669.27
101600.48
101535.13
101473.08
101414.19
101358.3
101305.29
101255.04
101207.42
101162.32
101119.64
101079.29
101041.18
101005.21
100971.31
100939.4
100909.41
100881.28
100854.96
100830.36
100807.46
100786.34
100766.75
100748.16
100732.07
100719.92
100702.72
100679.38
100696.44
100730.08
105500.42
106239.5
106416.75
106900.19
107113.46
107389.4
107549.91
107680.43
107742.3
107757.71
107722.72
107646.79
107534.03
107391.23
107223.74
107037.05
106835.87
106624.43
106406.3
106184.51
105961.54
105739.42
105519.75
105303.79
105092.51
104886.62
104686.65
104492.94
104305.74
104125.16
103951.25
103783.98
103623.26
103468.95
103320.99
103179.34
103043.42
102912.8
102788.81
102671.29
102556.3
102445.06
102338.86
102237.41
102140.65
102048.4
101960.53
101876.9
101797.36
101721.77
101649.97
101581.8
101517.11
101455.73
101397.53
101342.34
101290.05
101240.53
101193.66
101149.33
101107.45
101067.91
101030.62
100995.51
100962.49
100931.49
100902.44
100875.29
100849.97
100826.42
100804.63
100784.65
100766.16
100748.89
100734.45
100723.06
100706.54
100688.08
100705.91
100727.87
106829.75
107626.37
107818.01
108255.38
108443.92
108640.69
108720.22
108749.02
108705.85
108612.16
108470.83
108293.16
108086.07
107857.33
107613.04
107358.65
107098.54
106836.33
106574.84
106316.28
106062.36
105814.3
105573.03
105339.17
105113.11
104895.1
104685.23
104483.52
104289.87
104104.14
103926.18
103755.76
103592.63
103436.54
103287.42
103144.92
103008.18
102877.51
102754.54
102636.59
102520.82
102409.86
102304.01
102203.16
102107.11
102015.69
101928.74
101846.09
101767.57
101693.03
101622.28
101555.16
101491.51
101431.15
101373.96
101319.77
101268.47
101219.93
101174.05
101130.7
101089.8
101051.25
101014.96
100980.84
100948.83
100918.85
100890.84
100864.74
100840.49
100818.03
100797.39
100778.56
100761.19
100745.29
100732.31
100721.54
100706.33
100692.32
100708.58
100721.82
108426.4
109198.37
109362.46
109705.91
109800.67
109864.32
109810.6
109697.28
109518.37
109295.8
109037.52
108755.42
108457.24
108150.16
107839.46
107529.37
107223
106922.65
106629.97
106346.08
106071.71
105807.28
105553
105308.89
105074.88
104850.77
104636.34
104431.29
104235.32
104048.11
103869.32
103698.58
103535.54
103379.96
103231.65
103089.85
102953.95
102825.27
102704.2
102585.94
102470.68
102361.09
102256.6
102157.2
102062.63
101972.72
101887.29
101806.15
101729.14
101656.06
101586.74
101521
101458.69
101399.64
101343.7
101290.75
101240.66
101193.31
101148.59
101106.39
101066.62
101029.19
100994
100960.98
100930.06
100901.17
100874.25
100849.24
100826.09
100804.75
100785.24
100767.51
100751.26
100736.69
100724.94
100714.71
100701.13
100691.04
100704.92
100710.74
110092.61
110851.87
110943.9
111112.15
111046.7
110919.29
110690.71
110410.67
110085.49
109735.36
109369.56
108997.9
108626.45
108260.03
107901.82
107554.03
107218.02
106894.59
106584.13
106286.73
106002.26
105730.47
105471.01
105223.45
104987.36
104762.26
104547.69
104343.16
104148.24
103962.46
103785.4
103616.6
103455.68
103302.44
103156.39
103016.52
102883.22
102758.12
102638.4
102520.75
102407.76
102300.2
102197.87
102100.55
102008.03
101920.13
101836.64
101757.4
101682.2
101610.88
101543.25
101479.14
101418.39
101360.85
101306.39
101254.86
101206.15
101160.15
101116.75
101075.84
101037.32
101001.11
100967.13
100935.3
100905.54
100877.8
100852.01
100828.12
100806.08
100785.85
100767.45
100750.78
100735.64
100722.32
100711.58
100701.91
100690.2
100683.19
100693.81
100694.58
112096.65
112508.04
112417.66
112278.46
111974.93
111615.06
111198.42
110759.83
110309.04
109859.29
109416.62
108986.17
108570.54
108171.41
107789.45
107424.85
107077.39
106746.64
106432.02
106132.85
105848.44
105578.06
105321.03
105076.64
104844.23
104623.18
104412.88
104212.77
104022.3
103840.99
103668.32
103503.83
103347.24
103198.23
103055.87
102919.66
102791.13
102670.32
102552.15
102436.79
102327.2
102222.83
102123.63
102029.29
101939.66
101854.5
101773.65
101696.91
101624.09
101555.03
101489.56
101427.51
101368.74
101313.09
101260.44
101210.67
101163.64
101119.26
101077.42
101038.01
101000.95
100966.15
100933.53
100903.01
100874.53
100848.02
100823.44
100800.71
100779.81
100760.69
100743.36
100727.72
100713.65
100701.44
100691.5
100682.44
100672.67
100667.82
100674.82
100672.52
113817.24
113692.25
113335.74
112887.91
112371.77
111834.75
111291.37
110757.8
110240.14
109743.29
109268.87
108817.66
108389.4
107983.46
107598.92
107234.71
106889.74
106562.93
106253.2
105959.54
105680.98
105416.63
105165.65
104927.25
104700.7
104485.34
104280.54
104085.74
103900.39
103723.99
103556
103396.05
103243.91
103098.91
102960.06
102828.19
102704.71
102585.61
102468.63
102356.67
102250.07
102148.65
102052.18
101960.45
101873.27
101790.45
101711.79
101637.12
101566.28
101499.09
101435.39
101375.03
101317.88
101263.78
101212.63
101164.28
101118.64
101075.59
101035.03
100996.86
100960.99
100927.34
100895.84
100866.4
100838.96
100813.46
100789.84
100768.06
100748.07
100729.83
100713.34
100698.5
100685.27
100673.86
100664.39
100655.94
100647.89
100643.94
100647.15
100644.27
114070.03
113685.85
113178.84
112601.39
112008.62
111421.53
110852.46
110307.69
109789.4
109298.46
108834.34
108396.06
107982.31
107591.69
107222.76
106874.13
106544.47
106232.54
105937.21
105657.38
105392.1
105140.45
104901.61
104674.8
104459.35
104254.6
104059.92
103874.74
103698.54
103530.78
103371.01
103218.94
103074.17
102935.82
102803.8
102679.4
102561.35
102445.95
102334.1
102227.68
102126.35
102029.97
101938.3
101851.16
101768.36
101689.71
101615.05
101544.18
101476.97
101413.23
101352.84
101295.64
101241.5
101190.28
101141.88
101096.17
101053.04
101012.4
100974.13
100938.16
100904.39
100872.74
100843.14
100815.51
100789.8
100765.93
100743.86
100723.54
100704.92
100687.97
100672.67
100658.95
100646.8
100636.32
100627.5
100619.91
100613.46
100609.72
100609.64
100608.12
112115.84
112147.5
111846.33
111455.87
111000.76
110530.74
110058
109595.92
109148.45
108719.07
108308.58
107917.39
107545.11
107191.18
106854.81
106535.17
106231.41
105942.68
105668.17
105407.09
105158.71
104922.35
104697.34
104483.1
104279.07
104084.68
103899.44
103722.88
103554.54
103394
103240.99
103095.25
102955.98
102822.62
102696.33
102577.63
102462.19
102349.36
102241.85
102139.2
102041.43
101948.26
101859.56
101775.13
101694.83
101618.48
101545.93
101477.03
101411.63
101349.59
101290.78
101235.07
101182.33
101132.45
101085.3
101040.77
100998.77
100959.19
100921.94
100886.93
100854.07
100823.28
100794.49
100767.63
100742.63
100719.44
100697.99
100678.24
100660.15
100643.67
100628.78
100615.43
100603.61
100593.34
100584.58
100577.22
100571.31
100567.15
100564.86
100563.79
112611.21
112594.44
112286.16
111836.63
111289.32
110689.7
110061.15
109422.3
108781.84
108151.66
107540.37
106947.28
106381.34
105838.12
105319.51
104846.12
104414.5
104025.18
103674
103359.83
103079.72
102830.16
102609.44
102417.09
102245.97
102095.61
101962.25
101843.46
101735.88
101636.78
101551.14
101474.71
101404.8
101340.07
101279.41
101222.53
101169.02
101118.5
101070.65
101024.98
100981.37
100939.81
100900.12
100862.68
100827.19
100793.6
100761.89
100731.91
100703.61
100676.93
100651.79
100628.1
100605.78
100584.76
100564.89
100546.19
100528.35
100511.64
100495.3
100480.33
100464.79
100451.52
100435.66
100424.59
100406.9
100399.5
100377.05
100376.23
100344.12
100355.82
100306.27
100339.94
100260.78
100332.7
100205.17
100336.58
100135.77
100354.97
100051.1
100401.25
95914.281
96352.154
96943.367
97511.811
98130.724
98655.62
99100.845
99516.398
99884.795
100203.19
100479.83
100720.55
100926.92
101099.02
101243.99
101365.5
101460.53
101535.64
101593.58
101630.22
101652.21
101665.18
101664.8
101651.79
101630.7
101601.46
101564.09
101521.62
101475.98
101427.57
101379.77
101331.29
101282.63
101234.29
101186.67
101139.07
101092.31
101046.97
101003.8
100963.1
100924.01
100886.84
100851.17
100816.94
100784.78
100754.3
100725.63
100698.62
100673.23
100649.35
100626.89
100605.77
100585.9
100567.21
100549.54
100532.94
100517.05
100502.19
100487.54
100474.16
100460.06
100448.12
100433.53
100423.4
100406.76
100400.15
100378.73
100378.16
100347.22
100358.86
100310.47
100344.07
100265.51
100336.97
100209.7
100342.01
100138.29
100363.78
100049.74
100408.4
104002.59
104050.5
104034.8
103994.32
103930.15
103849.63
103755.3
103651.41
103539.7
103423
103301.97
103177.93
103052.32
102928.77
102802.43
102679.77
102561.77
102443.44
102332.14
102228.56
102125.71
102028.74
101938.05
101843.51
101763.5
101686.04
101613.81
101546.82
101481.13
101425.53
101358.28
101295.51
101236.13
101180.97
101129.47
101081.1
101035.37
100992.08
100951.02
100912.22
100875.67
100841.24
100809.01
100778.39
100749.56
100722.23
100696.52
100672.23
100649.36
100627.85
100607.62
100588.61
100570.71
100553.89
100537.96
100522.99
100508.61
100495.18
100481.85
100469.71
100456.75
100445.9
100432.28
100422.95
100407.21
100401.23
100380.41
100380.42
100350.1
100362.11
100314.44
100348.15
100270.56
100341.22
100214.81
100345.91
100142.24
100367.66
100052.03
100410.29
101456.61
101460.78
101469.8
101488.8
101507.83
101527
101547.02
101568.36
101589
101609.23
101627.65
101643.53
101655.97
101666.17
101671.94
101673.01
101671.16
101663.65
101650.89
101635.06
101614.68
101589.21
101562.01
101532.13
101496.19
101456.15
101412.97
101370.12
101326.15
101281.45
101237.57
101193.6
101150.59
101108.13
101066.1
101025.28
100985.84
100947.8
100911.28
100876.42
100843.11
100811.47
100781.42
100752.97
100726
100700.55
100676.59
100654.04
100632.85
100612.97
100594.31
100576.81
100560.37
100544.95
100530.36
100516.67
100503.5
100491.21
100478.93
100467.8
100455.74
100445.76
100432.85
100424.24
100409.05
100403.72
100383.2
100383.9
100353.61
100366.31
100318.26
100352.24
100274.67
100346.12
100218.35
100351.6
100145.71
100373.43
100055.16
100415.58
101767.79
101778.81
101781.25
101784.08
101784.09
101783.19
101779.69
101775.46
101768.81
101761.74
101751.56
101740.59
101726.7
101709.54
101691.73
101670.38
101645.59
101620.8
101591.85
101559.47
101527.42
101491.28
101451.4
101412.44
101372.2
101331.44
101291.08
101251.14
101211.69
101172.86
101134.11
101095.85
101058.17
101021.26
100985.25
100950.31
100916.43
100883.73
100852.27
100822.13
100793.22
100765.68
100739.5
100714.66
100691.12
100668.9
100647.9
100628.18
100609.62
100592.21
100575.88
100560.56
100546.17
100532.66
100519.87
100507.85
100496.24
100485.38
100474.44
100464.52
100453.59
100444.6
100432.63
100424.82
100410.37
100405.64
100385.64
100387
100357.09
100369.95
100322.21
100356.69
100279.24
100350.7
100222.46
100356.28
100149.53
100378.42
100058.26
100422.09
101208.8
101217.46
101224.11
101232.55
101238.42
101246.46
101250.9
101257.35
101260.46
101264.46
101265.7
101267.13
101266.33
101264.72
101261.41
101256.84
101250.35
101242.67
101233.25
101222.15
101209.43
101195.14
101179.37
101161.75
101142.59
101121.8
101099.56
101076.09
101051.55
101026.12
101000.07
100973.5
100946.66
100919.68
100892.71
100865.97
100839.54
100813.65
100788.38
100763.9
100740.17
100717.35
100695.5
100674.65
100654.82
100636.05
100618.28
100601.55
100585.81
100571.04
100557.17
100544.16
100531.93
100520.44
100509.51
100499.23
100489.23
100479.84
100470.26
100461.56
100451.77
100443.74
100432.72
100425.71
100412
100407.84
100388.38
100390.24
100360.78
100373.59
100326.31
100360.77
100283.69
100355.16
100226.67
100361.1
100153.52
100383.3
100061.32
100427.51
100969.77
100979.96
100985.64
100994.22
101000.79
101008.78
101014.12
101021.44
101025.48
101031.28
101034.18
101037.86
101039.37
101040.72
101040.39
101039.28
101036.73
101033.05
101027.97
101021.6
101013.85
101004.77
100994.31
100982.63
100969.75
100955.74
100940.75
100924.84
100908.08
100890.66
100872.55
100853.87
100834.78
100815.39
100795.78
100776.13
100756.46
100737.02
100717.81
100699.04
100680.78
100663.02
100645.97
100629.61
100613.99
100599.15
100585.09
100571.81
100559.29
100547.53
100536.46
100526.07
100516.25
100507.01
100498.17
100489.79
100481.56
100473.78
100465.67
100458.27
100449.67
100442.69
100432.71
100426.49
100413.58
100409.97
100391.19
100393.27
100364.41
100377.19
100330.62
100365.01
100288.1
100359.49
100231.09
100365.48
100157.59
100387.98
100064.36
100433.55
100674.04
100684.35
100690.59
100700.06
100707.42
100717.18
100723.79