/*--------------------------------*- C++ -*----------------------------------*\
  =========                 |
  \\      /  F ield         | OpenFOAM: The Open Source CFD Toolbox
   \\    /   O peration     | Website:  https://openfoam.org
    \\  /    A nd           | Version:  6
     \\/     M anipulation  |
\*---------------------------------------------------------------------------*/
FoamFile
{
    version     2.0;
    format      ascii;
    class       surfaceScalarField;
    location    "100";
    object      phi;
}
// * * * * * * * * * * * * * * * * * * * * * * * * * * * * * * * * * * * * * //

dimensions      [1 0 -1 0 0 0 0];

internalField   nonuniform List<scalar> 
31760
(
-0.00072582551
-0.041545685
0.04227151
-0.0015986865
-0.046778677
0.047651537
-0.0024806072
-0.047795836
0.048677756
-0.0034129755
-0.050631334
0.051563702
-0.0043608567
-0.05248633
0.05343421
-0.0053531766
-0.055073992
0.056066312
-0.0063684477
-0.057341159
0.058356429
-0.0074270102
-0.059985321
0.061043883
-0.008515985
-0.062556609
0.063645583
-0.0096493159
-0.0653675
0.066500831
-0.010820427
-0.068221196
0.069392305
-0.012038535
-0.071259109
0.072477216
-0.013300719
-0.074399197
0.07566138
-0.014613412
-0.077706368
0.07901906
-0.015976429
-0.081149783
0.082512799
-0.017394361
-0.084761099
0.086179031
-0.018868278
-0.088532874
0.090006789
-0.020401658
-0.092482085
0.094015465
-0.02199642
-0.096611458
0.098206219
-0.023655741
-0.10093211
0.10259143
-0.02538181
-0.10545074
0.1071768
-0.027177707
-0.1101771
0.111973
-0.029045248
-0.11512039
0.11698793
-0.030987183
-0.12029139
0.12223332
-0.033005682
-0.12570143
0.12771993
-0.035102752
-0.13136365
0.13346072
-0.037280905
-0.1372903
0.13946845
-0.039542803
-0.14349508
0.14575697
-0.041890612
-0.14999117
0.15233898
-0.044326577
-0.15679263
0.1592286
-0.046853005
-0.16391394
0.16644036
-0.049472165
-0.17137181
0.17399097
-0.052178009
-0.17918222
0.18188807
-0.054970327
-0.18736548
0.1901578
-0.05785064
-0.19593079
0.19881111
-0.06082139
-0.20490489
0.20787565
-0.063889346
-0.21430368
0.21737163
-0.067049498
-0.22415959
0.22731974
-0.070299031
-0.23449283
0.23774236
-0.073635689
-0.24532762
0.24866428
-0.077056386
-0.25669095
0.26011164
-0.080556388
-0.26860965
0.27210966
-0.084131093
-0.28111236
0.28468707
-0.087774249
-0.29423137
0.29787452
-0.0914791
-0.30799842
0.31170327
-0.095237718
-0.32244822
0.32620684
-0.099040426
-0.33761659
0.3414193
-0.10287692
-0.35354178
0.35737828
-0.10673527
-0.37026346
0.3741218
-0.11060141
-0.3878241
0.39169024
-0.11446053
-0.40626709
0.41012621
-0.11829526
-0.42563874
0.42947348
-0.12208691
-0.44598673
0.44977837
-0.1258146
-0.46736061
0.4710883
-0.12945653
-0.48981058
0.49345252
-0.13298855
-0.51338833
0.51692036
-0.13638536
-0.53814545
0.54154226
-0.13961896
-0.56413392
0.56736752
-0.14265926
-0.59140479
0.59444509
-0.14547088
-0.62001168
0.6228233
-0.14801112
-0.6500119
0.65255215
-0.15022592
-0.68146731
0.68368212
-0.15204809
-0.71445275
0.71627492
-0.15338916
-0.74905061
0.75039168
-0.15415087
-0.78536364
0.78612535
-0.15420647
-0.82349197
0.82354757
-0.15344647
-0.86356316
0.86280316
-0.15171213
-0.90564685
0.9039125
-0.14893475
-0.94990512
0.94712774
-0.14488707
-0.99628554
0.99223786
-0.13959942
-1.045095
1.0398074
-0.13264335
-1.0959651
1.089009
-0.12429217
-1.1497636
1.1414124
-0.11362377
-1.2051747
1.1945063
-0.10150386
-1.2648236
1.2527037
-0.086080966
-1.3243605
1.3089376
-0.06920328
-1.3913146
1.3744369
-0.047931133
-1.4536541
1.4323819
-0.024788439
-1.5294357
1.5062929
-1.595452
1.5671544
-0.00068752267
-0.040858162
-0.0014963781
-0.045969821
-0.0023258124
-0.046966402
-0.003194439
-0.049762707
-0.0040848042
-0.051595965
-0.0050139821
-0.054144814
-0.005968646
-0.056386495
-0.0069632553
-0.058990712
-0.0079893616
-0.061530503
-0.0090574143
-0.064299447
-0.010163249
-0.067115361
-0.011314465
-0.070107893
-0.012509451
-0.073204211
-0.013754168
-0.07646165
-0.015048187
-0.079855764
-0.016396326
-0.083412961
-0.017799646
-0.087129554
-0.019261854
-0.091019876
-0.020784817
-0.095088495
-0.022371572
-0.099345351
-0.024024357
-0.10379795
-0.025745691
-0.10845577
-0.027538334
-0.11332775
-0.029404245
-0.11842548
-0.031345665
-0.12376001
-0.033365387
-0.12934393
-0.035465795
-0.13518989
-0.03764947
-0.1413114
-0.039918419
-0.14772222
-0.042275136
-0.15443591
-0.04472116
-0.16146791
-0.047258135
-0.16883483
-0.049886865
-0.17655349
-0.052608964
-0.18464338
-0.055416542
-0.19312322
-0.058309271
-0.20201217
-0.061285525
-0.21132742
-0.064356318
-0.2210888
-0.067517638
-0.23133151
-0.070764962
-0.24208029
-0.07409544
-0.25336047
-0.077505123
-0.26519997
-0.080989007
-0.27762848
-0.084541821
-0.29067855
-0.088156948
-0.30438329
-0.091827067
-0.31877811
-0.095543338
-0.33390032
-0.099296145
-0.34978897
-0.10307427
-0.36648533
-0.10686567
-0.3840327
-0.11065626
-0.4024765
-0.11443104
-0.42186396
-0.11817339
-0.44224437
-0.12186527
-0.46366873
-0.12548736
-0.48618849
-0.12901906
-0.50985664
-0.13243794
-0.53472657
-0.13572005
-0.5608518
-0.13883649
-0.58828836
-0.14175305
-0.61709512
-0.1444277
-0.64733724
-0.14680489
-0.67909012
-0.14881727
-0.71244037
-0.15038014
-0.74748774
-0.15139995
-0.78434384
-0.15177192
-0.82311999
-0.15139431
-0.86394077
-0.1501509
-0.90689026
-0.14795902
-0.952097
-0.14465812
-0.99958645
-0.14020562
-1.0495475
-0.13431215
-1.1018585
-0.12705071
-1.157025
-0.11783407
-1.2143913
-0.10709145
-1.2755662
-0.093588449
-1.3378635
-0.078483549
-1.4064195
-0.059601542
-1.4725361
-0.038908582
-1.5501287
-1.6206937
-0.00063409712
-0.040224065
-0.0013950281
-0.04520889
-0.0021641462
-0.046197284
-0.0029796869
-0.048947167
-0.0038111067
-0.050764545
-0.0046859311
-0.05326999
-0.0055827611
-0.055489665
-0.0065221609
-0.058051312
-0.0074908702
-0.060561794
-0.008503192
-0.063287126
-0.0095517739
-0.066066779
-0.010646098
-0.069013568
-0.011783662
-0.072066647
-0.012970368
-0.075274945
-0.014206741
-0.078619391
-0.015496453
-0.082123248
-0.016841578
-0.085784429
-0.018244801
-0.089616653
-0.019709027
-0.093624269
-0.021236641
-0.097817737
-0.02283038
-0.10220421
-0.024492982
-0.10679317
-0.026226025
-0.11159471
-0.028032831
-0.11661867
-0.029915566
-0.12187728
-0.031876561
-0.12738293
-0.033918399
-0.13314806
-0.036043546
-0.13918625
-0.038254644
-0.14551112
-0.040553612
-0.15213695
-0.0429417
-0.15907982
-0.045420771
-0.16635576
-0.047990945
-0.17398332
-0.050653465
-0.18198086
-0.053408375
-0.19036831
-0.056253691
-0.19916685
-0.059181084
-0.20840003
-0.062189418
-0.21808046
-0.065288493
-0.22823243
-0.068475887
-0.2388929
-0.071745654
-0.2500907
-0.075095008
-0.26185062
-0.078519618
-0.27420387
-0.082014381
-0.28718379
-0.085573163
-0.30082451
-0.089189002
-0.31516227
-0.092854318
-0.330235
-0.096560217
-0.34608308
-0.10029704
-0.36274851
-0.10405363
-0.3802761
-0.10781796
-0.39871217
-0.11157688
-0.41810504
-0.11531591
-0.43850534
-0.11902003
-0.45996462
-0.12267305
-0.48253547
-0.12625732
-0.50627237
-0.12975384
-0.53123005
-0.13314059
-0.55746505
-0.13639097
-0.58503798
-0.13947146
-0.61401462
-0.1423386
-0.64447011
-0.14493773
-0.67649099
-0.1472011
-0.710177
-0.14905065
-0.74563819
-0.15040122
-0.78299326
-0.1511623
-0.82235891
-0.15125504
-0.86384804
-0.15058324
-0.90756205
-0.14906876
-0.95361148
-0.14659106
-1.0020641
-0.14307093
-1.0530677
-0.13829534
-1.1066341
-0.13224109
-1.1630792
-0.12450173
-1.2221307
-0.11527879
-1.2847892
-0.10371069
-1.3494316
-0.090543343
-1.4195869
-0.074127791
-1.4889517
-0.055854489
-1.568402
-1.6428108
-0.00058660359
-0.039637461
-0.001301347
-0.044494147
-0.0020197773
-0.045478853
-0.0027893849
-0.048177559
-0.0035703944
-0.049983536
-0.0043981498
-0.052442234
-0.0052453608
-0.054642454
-0.0061370038
-0.057159669
-0.0070566882
-0.059642109
-0.0080208107
-0.062323003
-0.0090208915
-0.065066698
-0.010067028
-0.067967432
-0.011156205
-0.070977469
-0.012295105
-0.074136045
-0.013483361
-0.077431135
-0.014725635
-0.080880974
-0.016023245
-0.08448682
-0.017379895
-0.088260002
-0.01879768
-0.092206484
-0.020279847
-0.09633557
-0.021828617
-0.10065544
-0.023446543
-0.10517524
-0.025136542
-0.10990471
-0.026900911
-0.1148543
-0.02874194
-0.12003625
-0.030662578
-0.12546229
-0.032665065
-0.13114557
-0.034752273
-0.13709905
-0.036926179
-0.14333722
-0.039188816
-0.14987431
-0.041541562
-0.15672708
-0.043985534
-0.16391179
-0.046521869
-0.17144698
-0.049150557
-0.17935218
-0.051871563
-0.1876473
-0.054684904
-0.19635351
-0.057590919
-0.20549402
-0.060577883
-0.2150935
-0.06364316
-0.22516716
-0.066798846
-0.23573721
-0.070039499
-0.24685005
-0.073360459
-0.25852966
-0.076758445
-0.27080588
-0.080228801
-0.28371344
-0.083766091
-0.29728722
-0.087364299
-0.31156406
-0.091016649
-0.32658265
-0.094715452
-0.34238427
-0.098452173
-0.35901179
-0.10221736
-0.37651091
-0.10600118
-0.39492835
-0.10979193
-0.41431429
-0.11357843
-0.43471884
-0.11734816
-0.45619488
-0.12108733
-0.4787963
-0.1247819
-0.5025778
-0.12841551
-0.52759644
-0.13196734
-0.55391322
-0.13541188
-0.58159344
-0.13871548
-0.61071103
-0.14183433
-0.64135125
-0.14471404
-0.67361128
-0.14729092
-0.70760013
-0.1494942
-0.74343491
-0.15125225
-0.78123521
-0.15249427
-0.82111689
-0.15315244
-0.86318987
-0.15315463
-0.90755986
-0.15243011
-0.95433601
-0.15087514
-1.0036191
-0.14839418
-1.0555486
-0.14482527
-1.110203
-0.14009243
-1.1678121
-0.13390655
-1.2283165
-0.12633947
-1.2923563
-0.11676207
-1.359009
-0.10566315
-1.4306858
-0.091763882
-1.502851
-0.0761367
-1.5840293
-1.6617741
-0.00054418759
-0.039093275
-0.001217789
-0.043820546
-0.001890405
-0.044806238
-0.0026205822
-0.047447382
-0.0033573222
-0.049246796
-0.0041449622
-0.051654595
-0.004949779
-0.053837638
-0.0058014425
-0.056308006
-0.0066804174
-0.058763134
-0.0076047883
-0.061398633
-0.0085655502
-0.064105936
-0.0095734097
-0.066959573
-0.010624977
-0.069925902
-0.011726735
-0.073034288
-0.012878887
-0.076278983
-0.014086117
-0.079673744
-0.015349845
-0.083223092
-0.016673815
-0.086936033
-0.018060204
-0.090820096
-0.019512027
-0.094883747
-0.021032331
-0.099135139
-0.0226236
-0.10358397
-0.024288603
-0.1082397
-0.026029467
-0.11311344
-0.027849499
-0.11821622
-0.029750885
-0.12356091
-0.031736474
-0.12915998
-0.033808289
-0.13502723
-0.035968954
-0.14117655
-0.03821949
-0.14762377
-0.040561921
-0.15438465
-0.042996913
-0.1614768
-0.045525306
-0.16891859
-0.048147535
-0.17672995
-0.05086369
-0.18493114
-0.053672925
-0.19354428
-0.056574932
-0.20259201
-0.059569621
-0.21209881
-0.06264478
-0.222092
-0.065799119
-0.23258287
-0.069043942
-0.24360523
-0.072371219
-0.25520238
-0.075778049
-0.26739906
-0.079261021
-0.28023046
-0.08281519
-0.29373305
-0.086435718
-0.30794353
-0.090116621
-0.32290175
-0.093851489
-0.33864941
-0.097633504
-0.35522978
-0.10145509
-0.37268933
-0.10530762
-0.39107582
-0.10918303
-0.41043889
-0.11307175
-0.43083011
-0.11696418
-0.45230245
-0.1208501
-0.47491038
-0.12471719
-0.49871072
-0.12855062
-0.52376301
-0.13233151
-0.55013233
-0.13603417
-0.57789078
-0.13962462
-0.60712057
-0.14305943
-0.63791645
-0.14628734
-0.67038337
-0.14925092
-0.70463655
-0.15189107
-0.74079477
-0.15415075
-0.77897552
-0.15597566
-0.81929199
-0.15731294
-0.86185258
-0.15810507
-0.90676774
-0.15828484
-0.95415623
-0.15775739
-1.0041466
-0.15643324
-1.0568728
-0.15417246
-1.1124638
-0.1508848
-1.1710998
-0.14635261
-1.2328487
-0.14057485
-1.298134
-0.13309263
-1.3664912
-0.12421722
-1.4395612
-0.11294103
-1.5141272
-0.10007033
-1.5969001
-1.6775012
-0.00050802498
-0.03858525
-0.0011542123
-0.043174359
-0.00178741
-0.044173041
-0.0024849979
-0.046749795
-0.0031849625
-0.048546832
-0.0039399981
-0.050899559
-0.0047105755
-0.053067061
-0.0055305111
-0.05548807
-0.0063777022
-0.057915944
-0.0072721863
-0.060504149
-0.0082036266
-0.063174496
-0.0091836187
-0.06597958
-0.010208899
-0.068900622
-0.011286053
-0.071957134
-0.012415393
-0.075149643
-0.013601099
-0.078488038
-0.014845637
-0.081978554
-0.016152081
-0.085629589
-0.017523495
-0.089448682
-0.018962977
-0.093444265
-0.020472922
-0.097625195
-0.022056896
-0.102
-0.023716934
-0.10657967
-0.025456348
-0.11137403
-0.027277456
-0.11639511
-0.029182916
-0.12165545
-0.031175425
-0.12716747
-0.033257052
-0.1329456
-0.035429755
-0.13900385
-0.037695131
-0.1453584
-0.040054506
-0.15202527
-0.042508438
-0.15902287
-0.045057953
-0.16636908
-0.047703195
-0.1740847
-0.050444137
-0.1821902
-0.053280455
-0.19070796
-0.056211465
-0.199661
-0.059235993
-0.20907428
-0.062353565
-0.21897443
-0.065550183
-0.22938626
-0.068833153
-0.24032226
-0.072203513
-0.25183202
-0.075657735
-0.26394483
-0.079192762
-0.27669544
-0.082805122
-0.29012069
-0.086490594
-0.30425806
-0.090244879
-0.31914746
-0.094063174
-0.33483111
-0.097939624
-0.35135333
-0.10186895
-0.36876
-0.10584527
-0.3870995
-0.10986212
-0.40642204
-0.11391317
-0.42677906
-0.11799126
-0.44822437
-0.12208825
-0.47081339
-0.12619435
-0.49460463
-0.13029602
-0.51966133
-0.13437431
-0.54605404
-0.13840396
-0.57386114
-0.14235081
-0.60317372
-0.14617488
-0.63409237
-0.14982937
-0.66672888
-0.15326703
-0.70119888
-0.15644197
-0.73761983
-0.15931213
-0.77610536
-0.16183774
-0.81676638
-0.16397833
-0.85971199
-0.16568326
-0.90506281
-0.16688655
-0.95295295
-0.16751211
-1.003521
-0.16746432
-1.0569206
-0.16663485
-1.1132933
-0.16492423
-1.1728104
-0.16217418
-1.2355988
-0.15834224
-1.301966
-0.15307938
-1.3717541
-0.14657944
-1.4460612
-0.13804357
-1.5226631
-0.12812538
-1.6068183
-1.6898845
-0.00047620613
-0.038109044
-0.0011092095
-0.042541356
-0.0017095267
-0.043572724
-0.0023812648
-0.046078057
-0.0030518894
-0.047876207
-0.0037821297
-0.050169319
-0.0045271388
-0.052322052
-0.0053242373
-0.054690972
-0.0061498003
-0.057090381
-0.0070246272
-0.059629322
-0.0079385434
-0.06226058
-0.0089029734
-0.065015151
-0.0099148748
-0.067888721
-0.010980799
-0.07089121
-0.012101955
-0.074028488
-0.013282215
-0.077307779
-0.014523983
-0.080736785
-0.015831245
-0.084322328
-0.017206298
-0.088073629
-0.018652941
-0.091997622
-0.020173984
-0.096104151
-0.021772237
-0.10040174
-0.023451079
-0.10490083
-0.025212704
-0.1096124
-0.027059862
-0.11454795
-0.02899552
-0.11971979
-0.031021702
-0.12514129
-0.03314065
-0.13082666
-0.035353777
-0.13679072
-0.037662651
-0.14304952
-0.040068438
-0.14961949
-0.042571975
-0.15651933
-0.045173564
-0.16376749
-0.047873811
-0.17138446
-0.050672357
-0.17939166
-0.053569029
-0.18781128
-0.056563309
-0.19666672
-0.05965389
-0.2059837
-0.062840533
-0.21578778
-0.06611961
-0.22610718
-0.069479364
-0.2369625
-0.072933429
-0.24837796
-0.076476498
-0.26040176
-0.080107103
-0.27306483
-0.083822811
-0.28640499
-0.087620527
-0.30046034
-0.091497298
-0.31527069
-0.095449822
-0.33087859
-0.099475107
-0.34732804
-0.10356919
-0.36466592
-0.10772864
-0.38294005
-0.11194955
-0.40220113
-0.11622822
-0.42250039
-0.12056003
-0.44389256
-0.12493878
-0.46643463
-0.12935604
-0.49018737
-0.13379861
-0.51521877
-0.1382485
-0.54160415
-0.14268015
-0.56942948
-0.14706276
-0.59879111
-0.15135948
-0.62979565
-0.15553316
-0.66255521
-0.15954759
-0.69718445
-0.16337127
-0.73379614
-0.16697594
-0.77250069
-0.17033339
-0.81340893
-0.17340787
-0.85663752
-0.17615502
-0.90231566
-0.17851968
-0.95058828
-0.18042902
-1.0016117
-0.18180214
-1.0555475
-0.18254494
-1.1125505
-0.18256945
-1.1727859
-0.18174866
-1.2364196
-0.18002554
-1.3036891
-0.17713785
-1.3746418
-0.17321223
-1.4499868
-0.16758265
-1.5282928
-0.16077024
-1.6136308
-1.6987818
-0.00045024301
-0.037658801
-0.0010706684
-0.04192093
-0.0016471005
-0.042996291
-0.0023021904
-0.045422967
-0.0029534343
-0.047224964
-0.0036689034
-0.04945385
-0.0043994202
-0.051591535
-0.0051850998
-0.053905292
-0.006001226
-0.056274254
-0.0068690668
-0.058761481
-0.0077790599
-0.061350587
-0.0087420115
-0.064052199
-0.0097561758
-0.066874556
-0.010827691
-0.069819694
-0.011957675
-0.072898504
-0.013150783
-0.07611467
-0.014409542
-0.079478027
-0.015737485
-0.082994385
-0.017138226
-0.086672888
-0.01861463
-0.090521218
-0.020170329
-0.094548453
-0.021808116
-0.098763957
-0.023530937
-0.103178
-0.025341847
-0.10780149
-0.027243254
-0.11264654
-0.029237389
-0.11772565
-0.031326581
-0.1230521
-0.033512524
-0.12864071
-0.035796996
-0.13450625
-0.038180993
-0.14066553
-0.040665468
-0.14713501
-0.043251069
-0.15393373
-0.045938362
-0.16108019
-0.048727264
-0.16859556
-0.05161816
-0.17650076
-0.054610817
-0.18481863
-0.057704231
-0.19357331
-0.060898615
-0.20278932
-0.06419302
-0.21249338
-0.067587196
-0.222713
-0.07107146
-0.23347824
-0.074651107
-0.24479831
-0.078327916
-0.25672496
-0.082100497
-0.26929225
-0.085967918
-0.28253756
-0.089928506
-0.29649975
-0.093981515
-0.31121769
-0.098125283
-0.32673482
-0.10235811
-0.34309522
-0.10667919
-0.36034484
-0.11108712
-0.37853211
-0.1155808
-0.39770746
-0.12015865
-0.41792254
-0.12481797
-0.43923323
-0.12955479
-0.46169782
-0.13436059
-0.48538157
-0.13922382
-0.51035554
-0.14412633
-0.53670164
-0.14904518
-0.56451063
-0.15395263
-0.59388366
-0.15882052
-0.62492777
-0.16362137
-0.65775436
-0.16833241
-0.6924734
-0.17293474
-0.72919381
-0.17741078
-0.76802465
-0.18173994
-0.80907977
-0.1858926
-0.85248486
-0.18983009
-0.89837817
-0.19349982
-0.94691855
-0.19684432
-0.99826718
-0.19979336
-1.0525984
-0.20227039
-1.1100734
-0.20420129
-1.170855
-0.20548652
-1.2351344
-0.2060596
-1.303116
-0.20572818
-1.3749732
-0.20455474
-1.4511603
-0.20201068
-1.5308369
-0.19853601
-1.6171055
-1.7040022
-0.00043217342
-0.037226628
-0.0010366468
-0.041316457
-0.0015989672
-0.042433971
-0.0022477272
-0.044774207
-0.0028907889
-0.046581902
-0.003602809
-0.04874183
-0.0043314348
-0.050862909
-0.0051181927
-0.053118535
-0.0059389184
-0.055453529
-0.0068142395
-0.05788616
-0.0077358671
-0.060428959
-0.0087140692
-0.063073997
-0.0097478821
-0.065840743
-0.010843141
-0.068724435
-0.012001851
-0.071739795
-0.013228529
-0.074887992
-0.014526049
-0.078180507
-0.01589837
-0.081622064
-0.0173487
-0.085222558
-0.018880825
-0.088989093
-0.020497931
-0.092931346
-0.02220313
-0.097058759
-0.023999177
-0.10138196
-0.02588873
-0.10591194
-0.027874619
-0.11066065
-0.0299587
-0.11564157
-0.032142795
-0.120868
-0.034428671
-0.12635484
-0.036817452
-0.13211747
-0.039310445
-0.13817253
-0.041907836
-0.14453762
-0.044610715
-0.15123085
-0.047418969
-0.15827194
-0.050333207
-0.16568132
-0.0533535
-0.17348047
-0.056479328
-0.1816928
-0.059711336
-0.1903413
-0.063048988
-0.19945167
-0.066492218
-0.20905015
-0.070040943
-0.21916428
-0.073695309
-0.22982387
-0.077447049
-0.24104657
-0.081305529
-0.25286648
-0.085270637
-0.26532714
-0.089343305
-0.2784649
-0.093523262
-0.2923198
-0.097811161
-0.30692979
-0.10220757
-0.32233841
-0.10671355
-0.33858924
-0.11132998
-0.35572841
-0.11605827
-0.37380382
-0.12089968
-0.39286605
-0.12585454
-0.41296768
-0.13092227
-0.4341655
-0.13609919
-0.4565209
-0.14137903
-0.48010172
-0.14674979
-0.50498478
-0.15219591
-0.53125553
-0.15769772
-0.55900883
-0.16323459
-0.58834679
-0.16878716
-0.61937519
-0.1743406
-0.65220091
-0.17988433
-0.68692968
-0.18540973
-0.72366841
-0.1909075
-0.76252688
-0.19636138
-0.80362589
-0.20174764
-0.8470986
-0.20702957
-0.89309625
-0.2121698
-0.94177832
-0.21711718
-0.9933198
-0.22182057
-1.047895
-0.226221
-1.105673
-0.23024964
-1.1668263
-0.23383543
-1.2315486
-0.2369164
-1.3000351
-0.23934926
-1.3725404
-0.2411584
-1.4493511
-0.24192512
-1.5300702
-0.24201475
-1.6170159
-1.7053271
-0.00042253524
-0.036804092
-0.0010200077
-0.040718984
-0.0015778862
-0.041876092
-0.0022305128
-0.04412158
-0.0028768244
-0.04593559
-0.0035968756
-0.048021779
-0.0043366336
-0.050123151
-0.0051379762
-0.052317192
-0.0059780965
-0.054613408
-0.0068766263
-0.05698763
-0.0078268616
-0.059478724
-0.0088383089
-0.06206255
-0.0099112312
-0.064767821
-0.011051065
-0.067584601
-0.012260807
-0.070530052
-0.01354437
-0.07360443
-0.014905626
-0.076819251
-0.016348265
-0.080179425
-0.017876199
-0.083694624
-0.019492692
-0.0873726
-0.02120089
-0.091223147
-0.023004135
-0.095255515
-0.02490515
-0.099480941
-0.026906491
-0.1039106
-0.029009903
-0.10855724
-0.031217698
-0.11343378
-0.033531411
-0.11855429
-0.035952233
-0.12393402
-0.038480811
-0.12958889
-0.041118374
-0.13553497
-0.043865352
-0.14179064
-0.046722181
-0.14837402
-0.049689105
-0.15530502
-0.052766836
-0.16260359
-0.055955146
-0.17029216
-0.059254999
-0.17839295
-0.062666362
-0.18692993
-0.066189872
-0.19592816
-0.069826743
-0.20541328
-0.073577185
-0.21541384
-0.0774434
-0.22595766
-0.081418003
-0.23707197
-0.085511642
-0.24877284
-0.089725383
-0.2611134
-0.094061176
-0.2741291
-0.098521756
-0.28785922
-0.10310908
-0.30234246
-0.10782653
-0.31762096
-0.112677
-0.33373877
-0.11766404
-0.35074137
-0.12279146
-0.3686764
-0.12806236
-0.38759515
-0.1334794
-0.40755064
-0.13904278
-0.42860212
-0.14475092
-0.45081276
-0.15059748
-0.47425516
-0.15657308
-0.49900918
-0.16266535
-0.52516326
-0.16886064
-0.55281354
-0.17514686
-0.58206057
-0.18151633
-0.61300572
-0.18796521
-0.64575203
-0.19449302
-0.68040187
-0.20109999
-0.71706143
-0.20778111
-0.75584576
-0.2145248
-0.7968822
-0.22131008
-0.84031331
-0.22811387
-0.88629246
-0.23490252
-0.93498968
-0.24164595
-0.98657637
-0.24830521
-1.0412358
-0.25483412
-1.0991441
-0.26117908
-1.1604814
-0.26728969
-1.225438
-0.27310739
-1.2942174
-0.27854488
-1.3671029
-0.28358822
-1.4443078
-0.28791518
-1.5257433
-0.29183792
-1.6130933
-1.7024904
-0.00042108927
-0.036383003
-0.0010278691
-0.040112205
-0.0015916682
-0.041312293
-0.0022585146
-0.043454734
-0.0029201848
-0.04527392
-0.0036606355
-0.047281328
-0.0044257303
-0.049358056
-0.0052565486
-0.051486374
-0.0061326595
-0.053737298
-0.0070720147
-0.056048275
-0.0080701803
-0.058480558
-0.0091355163
-0.060997214
-0.010269694
-0.063633643
-0.011477907
-0.066376388
-0.012763498
-0.069244462
-0.014130899
-0.072237028
-0.015584122
-0.075366029
-0.017126849
-0.078636698
-0.01876288
-0.082058593
-0.020495619
-0.085639861
-0.022328544
-0.089390222
-0.024264081
-0.093319977
-0.026304914
-0.097440108
-0.028452947
-0.10176256
-0.030710331
-0.10629986
-0.033078418
-0.11106569
-0.035558192
-0.11607451
-0.038150617
-0.12134159
-0.040856697
-0.12688281
-0.043676488
-0.13271518
-0.046611053
-0.13885608
-0.049660293
-0.14532478
-0.052825244
-0.15214007
-0.056106087
-0.15932274
-0.059503942
-0.1668943
-0.063019325
-0.17487756
-0.066653893
-0.18329537
-0.070408876
-0.19217318
-0.074285973
-0.20153618
-0.078287486
-0.21141232
-0.082416794
-0.22182835
-0.08666899
-0.23281977
-0.091054967
-0.24438686
-0.095577249
-0.25659112
-0.10024044
-0.26946591
-0.10504848
-0.28305118
-0.11000655
-0.29738439
-0.1151194
-0.31250812
-0.1203929
-0.32846526
-0.12583302
-0.34530124
-0.1314455
-0.36306392
-0.13723558
-0.38180508
-0.14320729
-0.40157892
-0.14936277
-0.42244664
-0.15570068
-0.44447486
-0.16221753
-0.46773831
-0.16890732
-0.49231938
-0.17576253
-0.51830805
-0.18277819
-0.54579787
-0.18995245
-0.57488631
-0.19728753
-0.60567064
-0.20479079
-0.63824877
-0.2124698
-0.67272285
-0.22032938
-0.70920185
-0.22836892
-0.74780622
-0.23658139
-0.78866973
-0.24495448
-0.83194022
-0.25347102
-0.87777592
-0.26211488
-0.92634581
-0.270864
-0.97782725
-0.27969815
-1.0324016
-0.28858681
-1.0902555
-0.29749235
-1.1515758
-0.306377
-1.2165533
-0.31519685
-1.2853975
-0.32390148
-1.3583983
-0.33246784
-1.4357415
-0.34064513
-1.517566
-0.34868759
-1.6050509
-1.695168
-0.00042654026
-0.035956463
-0.0010546817
-0.039484063
-0.0016353888
-0.040731586
-0.0023283037
-0.042761819
-0.0030191585
-0.044583065
-0.0037942891
-0.046506197
-0.004601202
-0.048551143
-0.0054788186
-0.050608757
-0.0064101662
-0.05280595
-0.0074109821
-0.055047459
-0.0084793344
-0.057412206
-0.0096226229
-0.059853926
-0.010843735
-0.062412531
-0.012147631
-0.065072492
-0.01353847
-0.067853622
-0.015020359
-0.070755139
-0.016597601
-0.073788787
-0.018273855
-0.076960444
-0.020052793
-0.080279654
-0.021937665
-0.083754989
-0.023931302
-0.087396585
-0.026036134
-0.091215146
-0.028254415
-0.095221827
-0.030587549
-0.09942943
-0.033036809
-0.1038506
-0.035603207
-0.10849929
-0.03828756
-0.11339016
-0.041090398
-0.11853875
-0.044012334
-0.12396088
-0.047053822
-0.12967369
-0.050215045
-0.13569485
-0.053497015
-0.14204281
-0.056900459
-0.14873662
-0.060426242
-0.15579696
-0.064076096
-0.16324445
-0.067851806
-0.17110185
-0.071755558
-0.17939161
-0.075790117
-0.18813862
-0.079958058
-0.19736824
-0.08426366
-0.20710672
-0.088710957
-0.21738105
-0.093302127
-0.2282286
-0.09804198
-0.23964701
-0.10293921
-0.25169389
-0.10799939
-0.26440573
-0.11322921
-0.27782136
-0.11863569
-0.2919779
-0.12422635
-0.30691747
-0.13000931
-0.3226823
-0.1359927
-0.33931785
-0.14218416
-0.35687247
-0.14859122
-0.37539802
-0.15521908
-0.39495106
-0.16207148
-0.41559425
-0.16914962
-0.43739671
-0.17645294
-0.46043499
-0.18398041
-0.48479191
-0.19173276
-0.51055571
-0.19971328
-0.53781735
-0.20793121
-0.56666839
-0.216399
-0.59720285
-0.22513115
-0.62951661
-0.23414125
-0.66371275
-0.24343845
-0.69990466
-0.25302651
-0.73821816
-0.26290402
-0.77879221
-0.2730677
-0.82177654
-0.28351348
-0.86733014
-0.29423606
-0.91562324
-0.30523072
-0.96683259
-0.31648832
-1.021144
-0.32799576
-1.078748
-0.33972867
-1.1398429
-0.35166348
-1.2046185
-0.36377657
-1.2732844
-0.37605118
-1.3461237
-0.38845882
-1.4233339
-0.40081362
-1.5052113
-0.41330222
-1.5925623
-1.6829893
-0.0004420527
-0.03551441
-0.0011038954
-0.038822221
-0.001715395
-0.040120087
-0.0024484746
-0.04202874
-0.0031849944
-0.043846545
-0.0040118408
-0.045679351
-0.0048798051
-0.047683179
-0.0058246565
-0.049663906
-0.0068336253
-0.051796981
-0.0079200834
-0.053961001
-0.0090846997
-0.056247589
-0.01033377
-0.058604855
-0.011671613
-0.061074688
-0.013102743
-0.063641363
-0.014631844
-0.06632452
-0.016263026
-0.069123957
-0.018000169
-0.072051644
-0.019847306
-0.075113307
-0.021807493
-0.078319468
-0.023883559
-0.081678923
-0.026077608
-0.085202537
-0.028391614
-0.08890114
-0.03082699
-0.092786451
-0.033384785
-0.096871635
-0.036065597
-0.10116979
-0.038869982
-0.10569491
-0.041798225
-0.11046192
-0.044850899
-0.11548608
-0.048027959
-0.12078382
-0.051330164
-0.12637149
-0.054758496
-0.13226652
-0.058313719
-0.13848759
-0.061997313
-0.14505303
-0.06581119
-0.15198308
-0.069757922
-0.15929772
-0.073840755
-0.16701902
-0.078062627
-0.17516974
-0.082428263
-0.18377298
-0.086942049
-0.19285445
-0.091609351
-0.20243942
-0.096436168
-0.21255424
-0.1014289
-0.22323587
-0.10659224
-0.23448367
-0.11193704
-0.24634909
-0.11747129
-0.25887148
-0.12320416
-0.27208849
-0.12914476
-0.2860373
-0.13530321
-0.30075902
-0.14168999
-0.31629552
-0.14831505
-0.33269279
-0.15518851
-0.34999901
-0.16231911
-0.36826741
-0.16971429
-0.38755588
-0.17737984
-0.4079287
-0.1853205
-0.42945605
-0.19354069
-0.4522148
-0.20204624
-0.47628636
-0.21084651
-0.50175544
-0.21995527
-0.52870858
-0.22939043
-0.55723324
-0.23917301
-0.58742027
-0.24932326
-0.61936636
-0.25985902
-0.653177
-0.27079334
-0.68897033
-0.28213602
-0.72687548
-0.29389421
-0.76703402
-0.30607534
-0.80959541
-0.31868691
-0.85471857
-0.33173691
-0.90257324
-0.34523817
-0.95333133
-0.35919222
-1.00719
-0.37359846
-1.0643418
-0.38845524
-1.1249862
-0.40375597
-1.1893178
-0.41948716
-1.2575532
-0.43566161
-1.3299493
-0.45226126
-1.4067343
-0.46916807
-1.4883046
-0.48650256
-1.5752279
-1.6655622
-0.00046772202
-0.035046688
-0.0011768344
-0.038113108
-0.0018340462
-0.039462875
-0.0026229681
-0.041239818
-0.0034236035
-0.04304591
-0.0043214675
-0.044781487
-0.0052726086
-0.046732037
-0.0063083451
-0.048628169
-0.0074208932
-0.050684433
-0.0086210841
-0.05276081
-0.0099120903
-0.054956583
-0.011299326
-0.05721762
-0.012788112
-0.059585902
-0.01438265
-0.062046825
-0.016087839
-0.064619331
-0.01790738
-0.067304417
-0.019845265
-0.070113758
-0.021904259
-0.073054313
-0.02408712
-0.076136607
-0.026395938
-0.079370105
-0.028832131
-0.082766343
-0.031396933
-0.086336338
-0.034090527
-0.090092857
-0.036913616
-0.094048546
-0.039866053
-0.098217349
-0.04294809
-0.10261287
-0.046159506
-0.1072505
-0.049500704
-0.11214488
-0.05297248
-0.11731204
-0.056575448
-0.12276852
-0.060310943
-0.12853103
-0.064180781
-0.13461775
-0.068187611
-0.1410462
-0.072334668
-0.14783603
-0.076625452
-0.15500693
-0.081064424
-0.16258005
-0.085657438
-0.17057673
-0.090409743
-0.17902068
-0.095328435
-0.18793576
-0.10042065
-0.19734721
-0.10569423
-0.20728065
-0.11115809
-0.21777201
-0.11682072
-0.22882104
-0.12269317
-0.24047665
-0.12878619
-0.25277846
-0.13511101
-0.26576367
-0.14167953
-0.27946878
-0.14850439
-0.29393416
-0.15559765
-0.30920226
-0.16297218
-0.32531826
-0.17063934
-0.34233185
-0.17861051
-0.36029624
-0.18689559
-0.3792708
-0.19550365
-0.39932064
-0.20444397
-0.42051573
-0.21372789
-0.44293088
-0.22336959
-0.46664467
-0.2333876
-0.49173743
-0.24380504
-0.51829115
-0.25464758
-0.54639069
-0.26594234
-0.57612551
-0.27771406
-0.60759464
-0.28998475
-0.64090632
-0.30277325
-0.67618183
-0.31609647
-0.71355226
-0.32997276
-0.75315773
-0.34442052
-0.79514766
-0.35946047
-0.83967862
-0.37511556
-0.88691815
-0.39140571
-0.93704118
-0.40835208
-0.99024359
-0.4259758
-1.0467181
-0.44428624
-1.1066757
-0.4632922
-1.1703118
-0.48300019
-1.2378453
-0.50344149
-1.309508
-0.52462089
-1.3855549
-0.5464831
-1.4664424
-0.56910824
-1.5526028
-1.6424411
-0.00050410652
-0.034542581
-0.0012749773
-0.037342237
-0.001995051
-0.038742801
-0.0028576496
-0.040377219
-0.0037437797
-0.04215978
-0.0047352819
-0.043789985
-0.0057952676
-0.045672052
-0.0069499643
-0.047473473
-0.0081965899
-0.049437807
-0.0095435208
-0.051413879
-0.010996278
-0.053503826
-0.012559281
-0.055654616
-0.014238556
-0.057906627
-0.016037787
-0.060247595
-0.017961633
-0.062695485
-0.020013216
-0.065252833
-0.022195617
-0.067931357
-0.024510916
-0.070739014
-0.026960839
-0.073686684
-0.029546158
-0.076784786
-0.032267585
-0.080044917
-0.035124727
-0.083479196
-0.038117741
-0.087099843
-0.041245942
-0.090920344
-0.044509291
-0.094954
-0.047907205
-0.099214958
-0.051440156
-0.10371755
-0.055108631
-0.10847641
-0.058913248
-0.11350742
-0.062856284
-0.11882548
-0.066939466
-0.12444785
-0.071166629
-0.13039059
-0.075541116
-0.13667171
-0.080067938
-0.14330921
-0.084752423
-0.15032245
-0.089601476
-0.157731
-0.094621932
-0.16555627
-0.099821958