/*--------------------------------*- C++ -*----------------------------------*\
  =========                 |
  \\      /  F ield         | OpenFOAM: The Open Source CFD Toolbox
   \\    /   O peration     | Website:  https://openfoam.org
    \\  /    A nd           | Version:  6
     \\/     M anipulation  |
\*---------------------------------------------------------------------------*/
FoamFile
{
    version     2.0;
    format      ascii;
    class       volScalarField;
    location    "100";
    object      rho;
}
// * * * * * * * * * * * * * * * * * * * * * * * * * * * * * * * * * * * * * //

dimensions      [1 -3 0 0 0 0 0];

internalField   nonuniform List<scalar> 
16000
(
1.1643378
1.1683021
1.1672305
1.1678324
1.1673314
1.167548
1.1672939
1.1673872
1.1672747
1.1673328
1.1673064
1.1673665
1.1673994
1.1674794
1.1675576
1.1676639
1.1677782
1.1679119
1.1680571
1.1682174
1.1683895
1.1685741
1.1687696
1.1689753
1.1691901
1.1694134
1.1696438
1.1698803
1.1701215
1.1703659
1.1706129
1.1708611
1.1711093
1.1713676
1.1714951
1.1716377
1.1717959
1.1719575
1.1721036
1.1722396
1.1723698
1.172488
1.1725941
1.1726902
1.1727758
1.1728498
1.1729123
1.1729632
1.1730025
1.1730302
1.1730465
1.1730515
1.1730456
1.1730292
1.1730024
1.1729658
1.1729197
1.1728643
1.1727997
1.1727263
1.1726437
1.1725522
1.172451
1.1723409
1.1722203
1.1720923
1.1719511
1.1718089
1.1716431
1.1714974
1.1712897
1.1711706
1.1708633
1.1708635
1.1702795
1.1706643
1.1693548
1.1707432
1.167886
1.1711401
1.1643585
1.1684809
1.1673189
1.1680095
1.1674893
1.1677592
1.1675092
1.1676399
1.1675404
1.167628
1.16762
1.1677056
1.1677592
1.1678628
1.1679625
1.1680913
1.1682272
1.1683825
1.1685486
1.1687294
1.1689211
1.1691245
1.1693375
1.1695597
1.1697897
1.1700266
1.1702692
1.1705163
1.1707665
1.1710183
1.17127
1.171521
1.1717708
1.1720146
1.1722614
1.1724677
1.1725744
1.1727061
1.1728388
1.1729577
1.1730668
1.173164
1.1732479
1.1733203
1.1733815
1.1734308
1.1734682
1.1734938
1.1735078
1.1735105
1.1735021
1.1734831
1.1734537
1.1734145
1.1733659
1.1733083
1.1732421
1.1731675
1.1730848
1.1729941
1.1728953
1.1727883
1.172673
1.1725495
1.1724172
1.1722773
1.1721277
1.1719734
1.1718047
1.1716415
1.1714431
1.1712873
1.1710183
1.1709391
1.1704601
1.1706797
1.1695752
1.1707065
1.1680752
1.1711386
1.1644571
1.1687235
1.1674857
1.1682613
1.1677275
1.1680465
1.1678048
1.1679711
1.1678871
1.1680029
1.1680147
1.1681251
1.1682003
1.1683271
1.1684488
1.1685999
1.1687576
1.1689343
1.1691212
1.1693221
1.1695332
1.1697548
1.1699851
1.1702232
1.1704677
1.1707175
1.1709714
1.171228
1.1714857
1.1717431
1.1719985
1.1722509
1.1724996
1.172744
1.1729799
1.173207
1.1734395
1.1735254
1.1736187
1.1737185
1.1738067
1.1738785
1.1739369
1.1739832
1.1740173
1.1740391
1.1740488
1.1740468
1.1740334
1.1740091
1.1739743
1.1739295
1.1738753
1.1738121
1.1737405
1.1736609
1.1735737
1.1734791
1.1733775
1.1732687
1.1731529
1.1730298
1.1728995
1.1727618
1.1726168
1.1724648
1.1723052
1.17214
1.1719649
1.1717887
1.1715913
1.1714125
1.1711646
1.1710286
1.170622
1.1707121
1.1697747
1.1706751
1.168276
1.171131
1.1646788
1.1690875
1.1677721
1.1686387
1.1680901
1.1684636
1.1682329
1.1684386
1.1683729
1.1685204
1.1685553
1.1686938
1.1687937
1.1689466
1.1690933
1.1692693
1.1694511
1.1696513
1.1698609
1.1700834
1.1703148
1.1705555
1.1708032
1.171057
1.1713153
1.1715769
1.1718403
1.1721041
1.1723666
1.1726262
1.1728812
1.1731303
1.1733729
1.1736078
1.1738344
1.1740506
1.1742531
1.1744559
1.1745181
1.1745724
1.1746366
1.1746798
1.1747053
1.1747198
1.174721
1.1747098
1.1746867
1.174652
1.1746064
1.1745505
1.1744849
1.1744104
1.1743274
1.1742367
1.1741387
1.174034
1.1739229
1.1738057
1.1736826
1.1735536
1.1734187
1.1732779
1.1731311
1.1729785
1.1728199
1.1726557
1.1724855
1.1723101
1.1721274
1.1719409
1.1717406
1.1715457
1.1713082
1.1711336
1.1707769
1.1707721
1.1699594
1.1706799
1.1684638
1.1711829
1.1650037
1.1695461
1.1681622
1.1691241
1.1685645
1.1689951
1.168778
1.1690245
1.1689805
1.1691618
1.1692228
1.1693914
1.1695186
1.1696996
1.1698732
1.1700757
1.1702831
1.170508
1.170741
1.1709856
1.1712377
1.1714972
1.1717617
1.1720303
1.172301
1.1725724
1.1728431
1.1731113
1.1733754
1.1736336
1.1738842
1.174126
1.174358
1.1745795
1.1747893
1.1749864
1.17517
1.1753372
1.1755035
1.1755031
1.1755233
1.1755374
1.175525
1.1755017
1.1754664
1.1754177
1.1753578
1.1752869
1.1752057
1.1751153
1.1750161
1.1749093
1.1747953
1.174675
1.1745488
1.1744173
1.1742808
1.1741396
1.1739938
1.1738435
1.1736887
1.1735295
1.1733658
1.1731978
1.1730255
1.172849
1.172668
1.1724825
1.1722914
1.1720957
1.1718905
1.171684
1.1714508
1.1712488
1.1709272
1.1708468
1.1701468
1.1707013
1.1686621
1.1712587
1.165449
1.1701185
1.1686709
1.1697291
1.1691644
1.1696539
1.1694518
1.1697438
1.1697256
1.1699436
1.1700345
1.1702359
1.1703938
1.1706053
1.1708087
1.1710396
1.1712748
1.1715258
1.1717835
1.1720509
1.1723237
1.1726017
1.1728823
1.1731641
1.1734452
1.1737239
1.1739985
1.1742673
1.1745286
1.1747806
1.1750215
1.17525
1.1754653
1.1756668
1.1758538
1.1760251
1.1761797
1.1763181
1.1764389
1.1765274
1.1764712
1.1764466
1.1763962
1.1763289
1.1762524
1.176162
1.176061
1.1759502
1.1758298
1.1757017
1.1755662
1.1754245
1.1752772
1.1751251
1.1749689
1.1748089
1.1746455
1.1744789
1.1743093
1.1741368
1.1739614
1.1737833
1.1736024
1.1734188
1.1732327
1.1730438
1.1728519
1.1726566
1.1724571
1.1722531
1.1720421
1.1718267
1.1715945
1.1713732
1.1710771
1.1709363
1.1703297
1.1707437
1.1688653
1.1713609
1.1660081
1.1707953
1.169296
1.1704504
1.1698854
1.1704404
1.1702587
1.1705991
1.1706114
1.1708693
1.1709943
1.1712316
1.1714237
1.1716685
1.1719042
1.1721659
1.1724304
1.1727086
1.1729917
1.173282
1.1735751
1.1738705
1.1741653
1.174458
1.1747463
1.1750285
1.1753027
1.1755671
1.1758201
1.1760597
1.1762845
1.176493
1.1766846
1.1768588
1.1770155
1.177154
1.1772736
1.1773734
1.1774556
1.1775176
1.1774792
1.1773972
1.177305
1.1771892
1.1770657
1.1769301
1.1767841
1.1766301
1.1764678
1.1762995
1.1761254
1.175947
1.1757648
1.1755797
1.1753921
1.1752027
1.1750115
1.174819
1.1746252
1.1744301
1.174234
1.1740369
1.1738389
1.17364
1.1734402
1.1732392
1.1730366
1.1728318
1.1726239
1.1724123
1.1721954
1.1719732
1.17174
1.1715055
1.1712278
1.1710386
1.1705196
1.170801
1.1690825
1.1714787
1.1666895
1.1715822
1.1700432
1.171303
1.1707428
1.1713659
1.1712103
1.1716022
1.1716504
1.1719516
1.1721155
1.1723919
1.1726219
1.1729028
1.1731735
1.1734678
1.1737632
1.1740696
1.1743783
1.1746909
1.1750031
1.1753137
1.1756199
1.1759198
1.1762109
1.1764914
1.1767593
1.1770128
1.1772502
1.1774699
1.1776705
1.1778508
1.1780102
1.1781488
1.1782666
1.1783638
1.1784394
1.1784949
1.1785293
1.1785417
1.1785391
1.1783813
1.1782378
1.1780714
1.1778958
1.1777117
1.1775175
1.1773177
1.1771112
1.1769008
1.1766866
1.1764701
1.176252
1.1760329
1.1758135
1.175594
1.1753748
1.1751561
1.1749379
1.1747205
1.1745038
1.1742882
1.1740735
1.1738597
1.1736467
1.173434
1.173221
1.173007
1.1727912
1.1725728
1.1723503
1.1721229
1.1718877
1.1716451
1.1713807
1.1711536
1.1707096
1.1708735
1.1693117
1.1716089
1.1675016
1.1724846
1.1709293
1.172296
1.1717456
1.1724413
1.1723177
1.1727648
1.1728549
1.173203
1.1734107
1.1737297
1.1740015
1.1743211
1.1746294
1.174958
1.1752853
1.1756199
1.1759534
1.1762867
1.1766154
1.1769378
1.177251
1.1775527
1.1778404
1.1781122
1.1783659
1.1786001
1.178813
1.1790034
1.1791702
1.1793124
1.17943
1.1795232
1.1795929
1.1796394
1.1796634
1.1796648
1.1796445
1.1796033
1.1795478
1.1793824
1.1791795
1.1789605
1.1787296
1.1784941
1.1782497
1.1780019
1.1777498
1.1774961
1.1772409
1.1769858
1.1767312
1.1764781
1.1762266
1.1759773
1.1757303
1.1754858
1.1752439
1.1750047
1.1747682
1.1745347
1.174304
1.1740761
1.1738504
1.1736266
1.1734038
1.1731814
1.1729583
1.1727337
1.1725064
1.1722752
1.172038
1.1717912
1.1715358
1.1712815
1.1709041
1.1709598
1.1695542
1.17175
1.1684545
1.1735328
1.1719613
1.1734406
1.1729063
1.1736789
1.1735944
1.1741012
1.1742398
1.1746388
1.1748959
1.1752609
1.1755784
1.1759393
1.1762874
1.1766513
1.1770106
1.1773726
1.177729
1.1780799
1.1784208
1.1787496
1.1790632
1.1793591
1.1796349
1.1798885
1.1801181
1.1803222
1.1804996
1.1806494
1.180771
1.180864
1.1809287
1.1809659
1.1809772
1.1809638
1.1809268
1.1808667
1.180785
1.1806852
1.1805611
1.1803858
1.1801193
1.1798434
1.1795547
1.179265
1.1789687
1.1786719
1.1783734
1.1780759
1.1777797
1.177486
1.1771954
1.1769086
1.1766258
1.1763474
1.1760734
1.175804
1.1755394
1.1752794
1.1750243
1.174774
1.1745284
1.1742871
1.1740497
1.1738156
1.1735839
1.1733537
1.1731242
1.1728945
1.1726633
1.1724294
1.1721906
1.1719431
1.1716934
1.1714216
1.1711011
1.1710597
1.169811
1.1719047
1.1695565
1.1747335
1.1731494
1.1747474
1.1742376
1.1750922
1.1750559
1.1756271
1.175822
1.1762765
1.1765888
1.1770038
1.1773706
1.1777754
1.1781646
1.1785638
1.1789542
1.1793409
1.1797164
1.1800795
1.1804258
1.180753
1.1810577
1.1813374
1.1815899
1.1818132
1.1820059
1.1821668
1.1822954
1.1823912
1.1824545
1.1824856
1.1824855
1.1824555
1.1823979
1.182315
1.1822084
1.182079
1.1819304
1.1817635
1.1815716
1.1813762
1.1810394
1.1807032
1.1803557
1.1800105
1.1796621
1.179316
1.1789714
1.1786307
1.1782941
1.1779629
1.1776373
1.177318
1.1770051
1.1766989
1.1763994
1.1761067
1.1758207
1.1755416
1.1752692
1.1750035
1.1747441
1.1744907
1.1742427
1.1739992
1.1737595
1.1735228
1.173288
1.1730541
1.1728201
1.1725848
1.1723454
1.1720996
1.1718536
1.1715737
1.1713009
1.1711726
1.1700855
1.1720668
1.1708098
1.1760966
1.1745057
1.1762326
1.175756
1.1766995
1.1767217
1.1773632
1.1776231
1.1781382
1.1785119
1.1789805
1.1794001
1.1798499
1.1802803
1.1807133
1.1811314
1.181538
1.1819256
1.1822925
1.1826343
1.1829483
1.1832312
1.1834809
1.1836952
1.1838729
1.1840128
1.1841148
1.1841789
1.1842057
1.1841963
1.1841519
1.1840743
1.1839657
1.1838289
1.1836671
1.1834832
1.1832783
1.1830561
1.1828183
1.182557
1.1823218
1.1819223
1.1815232
1.1811178
1.1807171
1.1803174
1.1799231
1.1795337
1.1791512
1.1787759
1.1784088
1.1780501
1.1777001
1.1773591
1.177027
1.1767039
1.1763897
1.1760844
1.1757879
1.1755
1.1752205
1.1749489
1.1746847
1.1744272
1.1741758
1.1739295
1.1736873
1.1734484
1.1732117
1.1729761
1.1727404
1.1725018
1.17226
1.1720164
1.1717366
1.1715022
1.1712996
1.170377
1.1722281
1.1722424
1.1776509
1.176053
1.1779168
1.1774867
1.1785259
1.1786188
1.1793362
1.1796703
1.180251
1.1806917
1.1812168
1.1816911
1.1821855
1.1826551
1.1831175
1.1835567
1.1839745
1.1843636
1.1847216
1.1850443
1.1853291
1.1855731
1.1857746
1.1859322
1.1860453
1.1861139
1.1861386
1.1861208
1.1860621
1.1859647
1.1858309
1.1856635
1.1854655
1.1852403
1.1849919
1.1847236
1.1844382
1.1841394
1.1838274
1.183496
1.1831917
1.1827509
1.1822889
1.1818268
1.1813723
1.180923
1.1804825
1.1800506
1.1796287
1.1792172
1.1788167
1.1784273
1.1780492
1.1776825
1.177327
1.1769827
1.1766495
1.1763271
1.1760154
1.1757139
1.1754224
1.1751402
1.1748668
1.1746016
1.1743435
1.1740919
1.1738458
1.1736041
1.1733658
1.17313
1.1728952
1.1726589
1.1724224
1.1721813
1.1719089
1.171704
1.171441
1.1706777
1.1723875
1.1738645
1.1794065
1.177815
1.1798288
1.1794573
1.1806006
1.1807772
1.1815773
1.1819952
1.1826462
1.1831587
1.1837419
1.1842703
1.1848062
1.185309
1.1857923
1.1862414
1.1866566
1.1870309
1.1873618
1.1876455
1.1878798
1.1880627
1.1881933
1.1882715
1.1882979
1.1882739
1.1882014
1.1880831
1.187922
1.1877215
1.1874853
1.1872169
1.1869203
1.1865993
1.1862586
1.185902
1.1855325
1.1851554
1.1847689
1.1843685
1.1840002
1.1835084
1.1829863
1.1824695
1.1819643
1.1814683
1.1809849
1.1805136
1.1800557
1.1796111
1.1791804
1.1787635
1.1783604
1.1779709
1.177595
1.1772323
1.1768826
1.1765457
1.176221
1.1759082
1.1756066
1.1753158
1.175035
1.1747635
1.1745006
1.1742452
1.1739965
1.1737536
1.1735152
1.1732805
1.1730479
1.1728157
1.1725857
1.172348
1.1720889
1.1719052
1.1715961
1.17098
1.1725394
1.1757128
1.1813984
1.1798231
1.1819974
1.1817046
1.1829595
1.183235
1.1841242
1.1846352
1.1853602
1.1859471
1.186587
1.1871652
1.1877349
1.1882594
1.188749
1.18919
1.1895818
1.1899181
1.1901967
1.1904148
1.1905712
1.1906655
1.1906983
1.190671
1.1905861
1.1904466
1.1902562
1.1900191
1.1897398
1.1894229
1.1890732
1.1886951
1.1882933
1.1878721
1.1874361
1.1869897
1.1865363
1.1860814
1.1856223
1.1851549
1.1847279
1.1841797
1.1836023
1.1830344
1.1824828
1.1819443
1.1814222
1.1809155
1.1804255
1.1799518
1.1794947
1.1790539
1.1786293
1.1782205
1.1778273
1.1774493
1.1770861
1.1767372
1.1764022
1.1760803
1.1757709
1.1754734
1.1751871
1.1749113
1.1746451
1.1743876
1.174138
1.1738953
1.1736583
1.1734261
1.1731972
1.1729705
1.1727477
1.1725153
1.1722739
1.1721044
1.1717655
1.1712847
1.1726856
1.1778295
1.1836593
1.1821114
1.1844634
1.1842699
1.1856461
1.1860375
1.1870215
1.1876339
1.1884343
1.1890944
1.1897848
1.1904021
1.1909903
1.191517
1.1919893
1.1923952
1.1927337
1.193
1.1931931
1.1933119
1.1933571
1.1933306
1.1932349
1.193074
1.1928523
1.1925749
1.1922473
1.1918753
1.1914647
1.1910213
1.1905506
1.190058
1.1895481
1.1890262
1.1884955
1.1879607
1.1874266
1.1868981
1.1863689
1.1858401
1.1853632
1.1847533
1.1841268
1.1835126
1.1829199
1.1823439
1.181788
1.1812509
1.1807333
1.1802349
1.1797556
1.179295
1.1788526
1.1784282
1.1780212
1.1776311
1.1772574
1.1768994
1.1765565
1.1762279
1.175913
1.175611
1.1753212
1.1750428
1.1747752
1.1745173
1.1742684
1.1740274
1.1737933
1.1735651
1.1733412
1.1731217
1.1729067
1.1726817
1.1724607
1.1722991
1.1719456
1.1715896
1.1728281
1.1801468
1.1862337
1.184744
1.1872784
1.1872084
1.1887154
1.1892421
1.1903258
1.1910433
1.1919148
1.1926394
1.1933649
1.1940004
1.1945807
1.1950782
1.1954977
1.1958299
1.1960744
1.1962292
1.1962954
1.1962746
1.1961707
1.1959881
1.1957325
1.1954103
1.1950281
1.1945934
1.1941131
1.1935945
1.1930444
1.1924693
1.1918753
1.1912679
1.1906518
1.190032
1.1894121
1.1887944
1.1881852
1.1875879
1.1869954
1.1864154
1.1858994
1.1852207
1.1845519
1.1838978
1.1832698
1.1826622
1.182078
1.1815157
1.1809757
1.1804574
1.1799604
1.1794841
1.1790282
1.1785918
1.1781745
1.1777756
1.1773944
1.1770301
1.1766819
1.1763491
1.176031
1.1757266
1.1754353
1.1751564
1.174889
1.1746324
1.1743857
1.174148
1.1739183
1.1736955
1.1734781
1.173267
1.1730605
1.1728455
1.1726458
1.1724894
1.1721352
1.1718875
1.1729634
1.1828177
1.1891187
1.1877406
1.1905159
1.190594
1.1922331
1.1929119
1.1940986
1.194918
1.1958456
1.1966134
1.1973454
1.197963
1.1984937
1.1989151
1.1992318
1.1994384
1.1995371
1.1995297
1.1994209
1.1992165
1.1989238
1.1985508
1.1981061
1.1975989
1.1970381
1.1964325
1.1957906
1.1951204
1.1944291
1.1937236
1.1930096
1.1922926
1.1915772
1.1908667
1.1901652
1.1894748
1.1888
1.1881407
1.187491
1.186876
1.1863191
1.1855765
1.184872
1.1841858
1.183529
1.1828964
1.1822898
1.181708
1.1811508
1.1806174
1.1801074
1.1796199
1.1791543
1.1787099
1.1782858
1.1778812
1.1774954
1.1771276
1.1767768
1.1764422
1.1761231
1.1758185
1.1755277
1.17525
1.1749848
1.1747311
1.1744881
1.1742551
1.1740311
1.173815
1.1736057
1.173404
1.1732066
1.1730035
1.1728252
1.1726743
1.1723294
1.1721702
1.1730913
1.1859235
1.1924617
1.1912125
1.1942079
1.1945292
1.1963039
1.1971273
1.1983949
1.1993034
1.200259
1.2010301
1.2017201
1.2022632
1.2026825
1.2029626
1.2031106
1.203127
1.2030186
1.2027927
1.202459
1.2020277
1.2015103
1.2009183
1.200263
1.1995557
1.1988068
1.1980261
1.1972224
1.1964039
1.1955775
1.1947496
1.1939253
1.1931091
1.1923052
1.1915163
1.1907437
1.1899915
1.1892625
1.1885519
1.1878575
1.1872183
1.1865975
1.18582
1.1850861
1.1843761
1.1836972
1.1830461
1.1824232
1.1818275
1.1812583
1.1807149
1.1801964
1.1797019
1.1792306
1.1787816
1.178354
1.177947
1.1775595
1.1771907
1.1768398
1.1765057
1.1761878
1.175885
1.1755967
1.1753222
1.1750606
1.1748113
1.1745735
1.1743465
1.1741295
1.1739212
1.1737211
1.1735299
1.1733423
1.1731527
1.172996
1.1728485
1.1725134
1.1724433
1.1732151
1.1895775
1.1963612
1.1953041
1.198514
1.1990692
1.2009878
1.2019731
1.2032975
1.2042429
1.2051695
1.2058732
1.2064427
1.2068277
1.2070502
1.207105
1.2070048
1.2067581
1.2063785
1.2058793
1.205276
1.2045833
1.2038159
1.2029883
1.2021133
1.2012031
1.2002685
1.1993193
1.1983636
1.1974089
1.196461
1.1955252
1.1946053
1.1937052
1.1928273
1.1919739
1.1911448
1.1903439
1.1895723
1.1888203
1.1880946
1.1874418
1.1867515
1.1859534
1.1851969
1.1844704
1.1837762
1.1831129
1.1824796
1.1818754
1.1812994
1.1807506
1.180228
1.1797305
1.1792572
1.178807
1.1783791
1.1779724
1.1775859
1.1772187
1.1768699
1.1765385
1.1762237
1.1759248
1.1756407
1.1753709
1.1751146
1.1748711
1.1746398
1.1744199
1.1742108
1.1740114
1.1738215
1.1736413
1.1734643
1.1732905
1.173153
1.1730029
1.1726911
1.1727109
1.1733256
1.1939664
1.2009994
1.2002271
1.2036167
1.2044209
1.206402
1.2074999
1.2088271
1.2097296
1.2105281
1.2110567
1.2113934
1.2115088
1.2114298
1.2111637
1.210732
1.2101525
1.2094459
1.2086317
1.2077296
1.2067577
1.2057328
1.2046696
1.2035816
1.2024803
1.2013756
1.2002754
1.199187
1.1981158
1.1970664
1.1960422
1.1950461
1.1940797
1.1931449
1.1922414
1.191371
1.1905359
1.1897328
1.1889495
1.1882099
1.1875568
1.1867902
1.1859803
1.1852081
1.184472
1.1837692
1.1830997
1.1824616
1.1818542
1.1812762
1.1807263
1.1802035
1.1797067
1.1792348
1.1787866
1.1783611
1.1779574
1.1775743
1.1772109
1.1768664
1.1765396
1.1762299
1.1759363
1.1756581
1.1753945
1.1751449
1.1749085
1.1746847
1.174473
1.1742726
1.1740828
1.1739038
1.1737348
1.1735695
1.1734126
1.1732914
1.1731433
1.172869
1.1729416
1.1734203
1.1993137
1.2064756
1.2060246
1.2094853
1.2106724
1.2127421
1.2137938
1.2149673
1.2156758
1.2161881
1.2163894
1.2163516
1.2160699
1.2155801
1.2149037
1.2140711
1.2131082
1.2120418
1.2108955
1.2096903
1.208445
1.2071761
1.2058972
1.2046197
1.2033527
1.2021044
1.2008805
1.1996856
1.1985233
1.1973962
1.1963061
1.1952544
1.1942415
1.1932674
1.192331
1.1914342
1.190578
1.1897524
1.1889517
1.1882202
1.1875741
1.1867147
1.1859037
1.1851246
1.1843855
1.1836807
1.1830106
1.182373
1.1817671
1.1811912
1.1806443
1.180125
1.1796321
1.1791645
1.178721
1.1783006
1.1779021
1.1775245
1.177167
1.1768284
1.176508
1.1762048
1.1759182
1.1756471
1.1753911
1.1751492
1.174921
1.1747057
1.174503
1.174312
1.1741324
1.1739645
1.1738069
1.173654
1.1735145
1.1734069
1.1732621
1.17303
1.1731411
1.1734946
1.2057788
1.2129127
1.213059
1.2167309
1.217817
1.219704
1.2206358
1.2214574
1.2217886
1.2218347
1.2215434
1.2209899
1.2201961
1.2192093
1.2180632
1.2167947
1.2154347
1.2140112
1.2125478
1.2110645
1.2095773
1.2080992
1.2066412
1.2052109
1.203815
1.2024573
1.2011422
1.199871
1.1986457
1.1974664
1.196334
1.1952472
1.1942065
1.1932093
1.1922561
1.1913472
1.1904796
1.18964
1.1888439
1.1881352
1.1874066
1.1865431
1.1857303
1.1849541
1.184217
1.1835161
1.1828502
1.1822178
1.1816174
1.1810476
1.180507
1.1799943
1.1795082
1.1790475
1.1786111
1.1781978
1.1778065
1.1774364
1.1770863
1.1767553
1.1764426
1.1761473
1.1758687
1.1756059
1.1753583
1.1751252
1.1749059
1.1747001
1.1745069
1.1743259
1.1741568
1.174
1.1738534
1.1737134
1.1735909
1.1734948
1.1733565
1.1731697
1.1733019
1.173548
1.2138094
1.2209124
1.2213661
1.2248205
1.2258647
1.2272829
1.2277636
1.2279766
1.2276772
1.2270561
1.2261115
1.2249288
1.22355
1.2220294
1.2204062
1.218717
1.2169912
1.215253
1.2135212
1.211811
1.2101337
1.2084974
1.2069082
1.2053703
1.2038863
1.2024578
1.2010853
1.199769
1.1985079
1.1973016
1.1961478
1.1950464
1.1939944
1.1929905
1.1920337
1.1911251
1.1902544
1.1894137
1.1886405
1.1879584
1.1871327
1.1862802
1.1854703
1.1847023
1.1839726
1.1832803
1.1826232
1.1819998
1.1814086
1.1808481
1.1803167
1.1798133
1.1793364
1.1788848
1.1784575
1.1780532
1.1776709
1.1773096
1.1769683
1.1766461
1.1763422
1.1760558
1.1757861
1.1755324
1.175294
1.1750702
1.1748605
1.1746644
1.1744813
1.1743106
1.1741522
1.1740064
1.1738706
1.1737433
1.1736355
1.1735484
1.173422
1.1732791
1.1734114
1.1735749
1.2237264
1.2302504
1.230878
1.2336853
1.2342523
1.2348595
1.234547
1.2338802
1.2327414
1.2313144
1.2296372
1.2277968
1.2258436
1.223828
1.2217856
1.2197452
1.217728
1.2157502
1.2138231
1.2119548
1.2101504
1.2084133
1.2067449
1.2051455
1.2036146
1.202151
1.2007534
1.1994196
1.1981477
1.1969354
1.1957804
1.1946806
1.1936324
1.192635
1.1916881
1.1907869
1.1899192
1.1890955
1.1883626
1.1876632
1.186766
1.1859302
1.1851318
1.1843766
1.1836595
1.1829798
1.1823352
1.1817241
1.181145
1.1805963
1.1800765
1.1795844
1.1791186
1.178678
1.1782612
1.1778673
1.1774952
1.1771439
1.1768125
1.1765
1.1762057
1.1759288
1.1756686
1.1754243
1.1751954
1.1749813
1.1747813
1.1745951
1.174422
1.1742617
1.174114
1.1739788
1.1738539
1.1737391
1.1736441
1.1735638
1.1734517
1.1733482
1.1734694
1.1735624
1.234666
1.2405836
1.2408839
1.2425559
1.2421859
1.2415754
1.2401741
1.2384445
1.2363765
1.2341316
1.2317651
1.2293491
1.2269243
1.2245257
1.2221762
1.2198928
1.2176849
1.2155595
1.2135194
1.2115656
1.209698
1.2079154
1.2062157
1.2045964
1.2030546
1.2015871
1.2001911
1.198863
1.1976003
1.1963997
1.1952585
1.1941729
1.1931409
1.1921602
1.1912317
1.1903431
1.189487
1.1887034
1.1880096
1.1871902
1.1863211
1.1854978
1.1847182
1.1839789
1.1832784
1.1826144
1.1819853
1.1813891
1.1808245
1.1802898
1.1797836
1.1793046
1.1788516
1.1784232
1.1780184
1.1776361
1.1772752
1.1769349
1.1766142
1.1763122
1.1760281
1.1757613
1.175511
1.1752765
1.1750573
1.1748528
1.1746626
1.1744861
1.1743229
1.1741726
1.1740353
1.1739103
1.173796
1.1736934
1.1736095
1.1735359
1.1734401
1.1733682
1.1734667
1.1735043
1.2468454
1.2512017
1.2505784
1.2502217
1.2484085
1.2462734
1.2436627
1.2408863
1.2379896
1.2350799
1.2321977
1.2293838
1.2266587
1.2240361
1.221523
1.219122
1.2168331
1.2146544
1.2125835
1.2106157
1.2087468
1.2069724
1.2052875
1.2036883
1.2021701
1.2007288
1.1993605
1.1980612
1.1968274
1.1956558
1.1945432
1.1934859
1.1924817
1.1915307
1.190626
1.1897535
1.1889329
1.1882054
1.1875008
1.1866027
1.1857623
1.1849623
1.184206
1.1834888
1.1828094
1.1821656
1.1815559
1.1809783
1.1804315
1.1799139
1.1794241
1.1789609
1.1785229
1.1781091
1.1777183
1.1773495
1.1770016
1.1766738
1.1763651
1.1760748
1.1758021
1.1755462
1.1753065
1.1750825
1.1748734
1.1746789
1.1744984
1.1743316
1.174178
1.1740373
1.1739094
1.1737939
1.1736894
1.1735976
1.1735228
1.1734561
1.173378
1.1733312
1.1734015
1.1733984
1.259605
1.2596218
1.2576376
1.2549849
1.2517755
1.248368
1.2448655
1.2413938
1.238002
1.2347308
1.2315965
1.2286087
1.225769
1.2230745
1.2205215
1.2181035
1.2158144
1.2136472
1.2115962
1.2096532
1.2078138
1.20607
1.2044182
1.2028512
1.2013663
1.1999568
1.1986204
1.1973514
1.1961477
1.1950043
1.1939189
1.1928873
1.19191
1.1909843
1.1900964
1.1892427
1.1884754
1.1877965
1.1869382
1.1860711
1.1852496
1.1844716
1.1837341
1.1830354
1.1823732
1.1817459
1.1811516
1.1805889
1.1800562
1.1795521
1.1790752
1.1786243
1.1781982
1.1777957
1.1774157
1.1770573
1.1767195
1.1764013
1.176102
1.1758207
1.1755567
1.1753092
1.1750777
1.1748616
1.1746603
1.1744733
1.1743002
1.1741405
1.173994
1.1738603
1.1737393
1.1736306
1.1735333
1.1734489
1.1733793
1.173318
1.1732559
1.1732222
1.1732585
1.1732476
1.2643768
1.2615761
1.2582921
1.2544032
1.2504448
1.2464912
1.2426589
1.2389837
1.2354878
1.2321768
1.2290492
1.2260986
1.2233165
1.2206933
1.2182194
1.2158852
1.2136817
1.2116001
1.2096331
1.207773
1.2060132
1.2043476
1.2027707
1.2012766
1.1998605
1.1985181
1.1972446
1.1960365
1.1948901
1.1938017
1.1927679
1.1917866
1.1908572
1.1899719
1.1891205
1.1883298
1.1876282
1.1868756
1.1860005
1.1851758
1.1843929
1.1836518
1.1829493
1.1822838
1.1816533
1.1810561
1.1804906
1.1799552
1.1794487
1.1789695
1.1785166
1.1780885
1.1776843
1.1773027
1.1769427
1.1766034
1.1762838
1.1759832
1.1757006
1.1754352
1.1751864
1.1749536
1.174736
1.1745331
1.1743443
1.1741693
1.1740075
1.1738587
1.1737223
1.1735983
1.1734863
1.173386
1.1732972
1.1732204
1.1731562
1.1731015
1.1730534
1.1730253
1.1730314
1.1730249
1.2568376
1.2552672
1.2526504
1.2493794
1.2459392
1.2424489
1.2390244
1.2357129
1.2325392
1.2295148
1.226641
1.2239155
1.2213329
1.2188869
1.2165704
1.2143762
1.2122974
1.2103274
1.2084599
1.206689
1.2050088
1.2034147
1.2019011
1.2004644
1.199099
1.1978032
1.1965704
1.1954005
1.1942869
1.1932293
1.1922224
1.1912696
1.1903619
1.1894886
1.188658
1.1879188
1.1872284
1.1863318
1.1854862
1.18468
1.1839166
1.1831915
1.182504
1.1818519
1.1812338
1.1806479
1.1800929
1.1795674
1.1790699
1.1785993
1.1781543
1.1777336
1.1773364
1.1769613
1.1766075
1.1762739
1.1759598
1.1756642
1.1753863
1.1751255
1.1748809
1.174652
1.174438
1.1742385
1.1740528
1.1738807
1.1737215
1.173575
1.1734406
1.1733184
1.1732077
1.1731086
1.1730207
1.1729444
1.1728794
1.1728249
1.1727808
1.1727498
1.1727343
1.1727284
1.2595623
1.2573429
1.2535476
1.25027
1.246203
1.2421918
1.2380258
1.2337212
1.2293337
1.2249932
1.2207208
1.2165576
1.2125556
1.2087178
1.2051391
1.2018681
1.1988719
1.1961561
1.1937229
1.1915368
1.1895748
1.1878366
1.1862969
1.184961
1.1837734
1.1827203
1.1817791
1.1809393
1.1801853
1.1794866
1.1788518
1.178272
1.1777369
1.1772372
1.1767662
1.1763194
1.1758962
1.1754944
1.1751126
1.1747413
1.1743854
1.174043
1.1737098
1.1733946
1.173093
1.1728094
1.1725423
1.1722907
1.1720536
1.1718304
1.1716202
1.1714223
1.1712358
1.1710598
1.1708935
1.1707363
1.1705868
1.1704455
1.1703094
1.1701812
1.1700541
1.1699376
1.1698137
1.16971
1.1695803
1.1694959
1.1693437
1.1692964
1.1690914
1.1691201
1.1688076
1.1689872
1.1684728
1.1689397
1.1680617
1.1690281
1.1675254
1.1693041
1.1667825
1.1698086
1.1086424
1.1187759
1.1268423
1.1334129
1.1396373
1.1451173
1.1498941
1.1540946
1.1577508
1.1609603
1.1637899
1.1662852
1.1684829
1.170401
1.1720699
1.1735179
1.1747399
1.1757592
1.1765979
1.1772604
1.1777476
1.178122
1.1783538
1.1784852
1.1785107
1.1784536
1.1783268
1.1781508
1.1779273
1.1776617
1.1773767
1.1770653
1.1767354
1.176398
1.1760589
1.1757205
1.1753824
1.1750471
1.1747197
1.1744011
1.1740908
1.1737876
1.1734955
1.1732152
1.1729451
1.1726889
1.1724457
1.1722156
1.1719982
1.1717926
1.1715982
1.1714144
1.1712404
1.1710758
1.17092
1.1707726
1.1706319
1.1704983
1.1703689
1.1702466
1.1701244
1.1700122
1.1698916
1.1697909
1.1696632
1.1695807
1.1694293
1.169383
1.1691777
1.1692069
1.1688928
1.1690748
1.1685529
1.1690289
1.1681339
1.1691193
1.1675814
1.1693995
1.1668148
1.1699089
1.2005737
1.2007524
1.2006719
1.200417
1.1996518
1.1985948
1.1974105
1.1961943
1.1949657
1.1937543
1.1925612
1.1914012
1.1902715
1.1891686
1.1881144
1.1871049
1.1861535
1.1852659
1.1844366
1.1836455
1.1829254
1.1822209
1.1815785
1.1809343
1.180355
1.1798047
1.1792867
1.1787936
1.1783084
1.1778777
1.17742
1.1769812
1.1765519
1.176147
1.1757625
1.175391
1.1750363
1.1746977
1.1743828
1.1740649
1.1737584
1.1734705
1.173193
1.1729308
1.1726864
1.172455
1.1722351
1.1720273
1.1718309
1.1716452
1.1714698
1.1713042
1.1711474
1.1709993
1.170859
1.1707261
1.170599
1.170478
1.1703603
1.1702488
1.1701366
1.1700334
1.1699213
1.1698277
1.169707
1.1696298
1.1694842
1.1694414
1.1692412
1.1692722
1.168963
1.1691457
1.1686277
1.1691043
1.1682092
1.1691984
1.1676462
1.1694829
1.1668533
1.1699958
1.1732434
1.1728359
1.1733842
1.1747289
1.1753908
1.1758142
1.1761582
1.176485
1.176835
1.1771962
1.1775371
1.1778456
1.1780612
1.1783194
1.178526
1.1786283
1.1787628
1.1788347
1.1788378
1.1787684
1.1788106
1.1785934
1.1785995
1.1783918
1.1782372
1.1780005
1.1777517
1.1774764
1.1771781
1.1768766
1.1765712
1.1762609
1.1759479
1.1756397
1.1753342
1.1750286
1.1747286
1.1744358
1.1741511
1.1738688
1.1735959
1.1733307
1.1730763
1.1728329
1.1726022
1.1723823
1.1721771
1.1719818
1.1717971
1.1716227
1.171458
1.1713026
1.1711557
1.1710168
1.1708847
1.1707591
1.1706387
1.1705239
1.1704118
1.1703055
1.1701979
1.1700989
1.1699902
1.1698998
1.1697814
1.1697067
1.1695623
1.1695213
1.1693214
1.1693533
1.1690439
1.1692273
1.1687072
1.1691858
1.1682854
1.1692787
1.1677137
1.1695616
1.1669032
1.1700681
1.1772986
1.1778319
1.1791772
1.1803612
1.1806618
1.1807047
1.180667
1.1806291
1.1805707
1.1805113
1.1804359
1.1803547
1.180257
1.1801459
1.1800186
1.1798754
1.1797126
1.1795333
1.1793306
1.1791237
1.178855
1.1786317
1.1783226
1.1780548
1.177756
1.1774638
1.1771698
1.176877
1.1765875
1.1763009
1.1760127
1.1757216
1.1754344
1.1751523
1.1748738
1.1745971
1.1743274
1.1740645
1.17381
1.1735561
1.1733105
1.1730729
1.1728448
1.1726257
1.1724186
1.1722211
1.172037
1.1718615
1.1716951
1.1715381
1.1713897
1.1712492
1.1711163
1.1709904
1.1708705
1.1707564
1.1706465
1.1705414
1.1704382
1.1703398
1.1702394
1.1701468
1.1700439
1.1699582
1.1698443
1.169773
1.1696321
1.1695929
1.1693959
1.1694291
1.1691213
1.1693053
1.1687864
1.1692648
1.1683619
1.1693573
1.1677806
1.1696375
1.1669481
1.1701374
1.1735876
1.1740587
1.1754888
1.1767054
1.1771576
1.1772662
1.1772756
1.1772514
1.1772805
1.1772922
1.1772892
1.1772963
1.1772823
1.1772627
1.1772427
1.1771885
1.1771628
1.1770775
1.1770357
1.176928
1.1768653
1.1767449
1.1766361
1.176497
1.1763488
1.1761875
1.1760141
1.1758284
1.1756325
1.1754304
1.1752203
1.175002
1.1747813
1.1745601
1.1743374
1.174112
1.1738897
1.1736697
1.1734535
1.173236
1.1730254
1.1728217
1.1726209
1.1724299
1.1722476
1.1720753
1.1719093
1.171753
1.1716051
1.1714653
1.171333
1.1712078
1.171089
1.170976
1.170868
1.1707648
1.1706649
1.1705687
1.1704737
1.1703826
1.1702888
1.1702018
1.1701041
1.1700226
1.1699126
1.169844
1.1697062
1.1696684
1.1694738
1.1695069
1.1692015
1.1693843
1.1688671
1.1693436
1.168439
1.1694344
1.167848
1.1697108
1.166996
1.1702016
1.1726506
1.1732742
1.1749
1.1760497
1.1763964
1.1764433
1.1764207
1.1764445
1.176436
1.1764442
1.1764375
1.1764279
1.1764108
1.1763858
1.1763517
1.1763131
1.1762587
1.1762018
1.1761239
1.1760455
1.1759442
1.1758412
1.1757235
1.1755998
1.1754662
1.1753249
1.1751763
1.1750203
1.1748594
1.1746938
1.1745207
1.1743421
1.1741618
1.1739812
1.1737988
1.1736131
1.1734301
1.1732483
1.1730676
1.172885
1.172708
1.1725351
1.1723656
1.1722029
1.172048
1.1719001
1.1717594
1.1716257
1.1714987
1.1713783
1.171264
1.1711553
1.1710519
1.1709531
1.1708582
1.1707668
1.1706778
1.1705915
1.1705053
1.1704221
1.1703355
1.1702545
1.1701624
1.1700852
1.1699797
1.1699138
1.1697795
1.169743
1.1695514
1.1695842
1.1692817
1.1694629
1.1689485
1.1694219
1.1685164
1.1695098
1.1679154
1.1697802
1.1670415
1.1702618
1.1711214
1.1718406
1.1735594
1.1746724