/*--------------------------------*- C++ -*----------------------------------*\
  =========                 |
  \\      /  F ield         | OpenFOAM: The Open Source CFD Toolbox
   \\    /   O peration     | Website:  https://openfoam.org
    \\  /    A nd           | Version:  6
     \\/     M anipulation  |
\*---------------------------------------------------------------------------*/
FoamFile
{
    version     2.0;
    format      ascii;
    class       volScalarField;
    location    "100";
    object      T;
}
// * * * * * * * * * * * * * * * * * * * * * * * * * * * * * * * * * * * * * //

dimensions      [0 0 0 1 0 0 0];

internalField   nonuniform List<scalar> 
16000
(
296.82727
294.51141
295.31602
294.98764
295.3059
295.28403
295.47355
295.53721
295.68202
295.77251
295.89386
295.99029
296.09724
296.19175
296.28836
296.37776
296.46581
296.549
296.62984
296.70729
296.78258
296.85554
296.92664
296.99565
297.06246
297.12672
297.18828
297.24713
297.30343
297.35737
297.4092
297.45898
297.50658
297.55338
297.58487
297.61615
297.64724
297.67655
297.70219
297.72507
297.746
297.76461
297.78096
297.79529
297.80756
297.81771
297.82578
297.83181
297.83581
297.83783
297.83795
297.83626
297.83292
297.82815
297.82222
297.81555
297.80866
297.80224
297.79704
297.79379
297.79311
297.79525
297.79999
297.80649
297.81344
297.81928
297.82266
297.8232
297.82074
297.81776
297.81308
297.81377
297.80965
297.82224
297.81369
297.85405
297.82834
297.91647
297.85205
297.98609
296.9411
294.65717
295.47433
295.12367
295.44202
295.40472
295.58972
295.64281
295.78201
295.86538
295.98175
296.0733
296.17633
296.26745
296.36119
296.44821
296.53421
296.61573
296.69512
296.77136
296.84558
296.91758
296.98778
297.05593
297.12192
297.18546
297.24643
297.30484
297.36083
297.41455
297.46611
297.51558
297.56306
297.60812
297.6516
297.68935
297.71509
297.74175
297.76646
297.78787
297.80692
297.82368
297.8381
297.85038
297.86058
297.86864
297.8746
297.87852
297.88044
297.88043
297.87858
297.87503
297.86997
297.86367
297.85649
297.84891
297.84149
297.83495
297.83
297.82723
297.82699
297.8292
297.83328
297.83814
297.8424
297.84481
297.8445
297.84163
297.83669
297.83179
297.82662
297.82567
297.82252
297.83162
297.82644
297.85724
297.84033
297.91508
297.86732
297.97711
297.05456
294.81088
295.62911
295.26353
295.58041
295.53222
295.71268
295.75832
295.89243
295.97068
296.08276
296.17076
296.27055
296.3592
296.45063
296.53592
296.62031
296.70059
296.77885
296.85417
296.92753
296.99874
297.06812
297.13545
297.20062
297.26337
297.32364
297.38146
297.43693
297.49015
297.54117
297.59
297.63662
297.68109
297.72307
297.76247
297.80091
297.8226
297.84337
297.86284
297.87962
297.89369
297.90545
297.91502
297.92243
297.9277
297.93088
297.93203
297.93123
297.92858
297.92421
297.9183
297.91109
297.90293
297.89425
297.8856
297.87761
297.87096
297.86629
297.86397
297.86404
297.86605
297.86905
297.87179
297.87297
297.87168
297.86768
297.86158
297.85438
297.84775
297.84202
297.83971
297.83707
297.84318
297.84055
297.86541
297.85474
297.91834
297.87709
297.97979
297.16733
294.96701
295.78718
295.40902
295.72478
295.66736
295.84408
295.88344
296.01304
296.08696
296.19522
296.28023
296.37717
296.46373
296.55317
296.637
296.72003
296.79927
296.87657
296.95111
297.02369
297.09416
297.16274
297.22925
297.29356
297.35549
297.415
297.4721
297.52686
297.57932
297.62943
297.67717
297.72253
297.76548
297.806
297.84394
297.87907
297.9127
297.9302
297.94525
297.95963
297.97078
297.97926
297.9857
297.9899
297.99196
297.99199
297.99004
297.98623
297.98069
297.97359
297.96516
297.95571
297.94564
297.93546
297.92576
297.91717
297.91028
297.90553
297.90303
297.90246
297.90303
297.90363
297.90303
297.90029
297.89506
297.88768
297.87909
297.87044
297.86294
297.85687
297.85363
297.85097
297.85477
297.8534
297.87335
297.86731
297.92218
297.88947
297.98321
297.28056
295.12195
295.948
295.56111
295.87539
295.81135
295.9845
296.01929
296.14483
296.21566
296.32064
296.4035
296.49811
296.58318
296.67106
296.75385
296.83585
296.91434
296.99093
297.06487
297.13683
297.20664
297.27449
297.34018
297.40363
297.46467
297.52328
297.57945
297.63319
297.68448
297.73324
297.7794
297.82295
297.8639
297.90217
297.93771
297.97045
298.00023
298.02843
298.03777
298.04775
298.05586
298.06044
298.06304
298.06356
298.06188
298.05828
298.05279
298.04556
298.03679
298.02666
298.01549
298.00362
297.99153
297.97976
297.96891
297.95956
297.95215
297.94686
297.9435
297.94143
297.93966
297.93706
297.93267
297.92602
297.91729
297.90722
297.89689
297.88726
297.87909
297.87253
297.86832
297.86525
297.86709
297.86641
297.88261
297.87913
297.92777
297.89776
297.98956
297.39548
295.27567
296.1114
295.71962
296.03232
295.96407
296.13362
296.16577
296.28777
296.35664
296.45892
296.54043
296.63323
296.71735
296.80409
296.88621
296.96751
297.04552
297.1216
297.1951
297.26655
297.33578
297.40291
297.46778
297.53029
297.59032
297.6478
297.70272
297.75503
297.80466
297.85152
297.89551
297.93663
297.97489
298.01029
298.04274
298.07216
298.0986
298.12207
298.14063
298.1428
298.14692
298.14754
298.14567
298.14205
298.13623
298.12858
298.11922
298.10829
298.09604
298.08271
298.06866
298.0543
298.04013
298.02672
298.01462
298.00429
297.99594
297.98949
297.98444
297.97993
297.97495
297.96853
297.96015
297.94982
297.93814
297.92607
297.91455
297.90424
297.89548
297.88831
297.88311
297.87941
297.87961
297.87917
297.89207
297.89117
297.93346
297.90981
297.99775
297.51387
295.44791
296.27809
295.88508
296.19584
296.12628
296.29252
296.32372
296.44274
296.51084
296.61106
296.69203
296.78359
296.86735
296.95341
297.03528
297.11618
297.19398
297.26978
297.34299
297.41403
297.48272
297.54912
297.61308
297.67451
297.73326
297.78928
297.84248
297.89281
297.94017
297.98444
298.02556
298.06352
298.09834
298.13008
298.15868
298.1841
298.20627
298.2254
298.24136
298.24519
298.24349
298.23984
298.23302
298.22468
298.21433
298.20224
298.18869
298.17378
298.15785
298.14116
298.12414
298.10721
298.09091
298.07576
298.0622
298.05052
298.0407
298.03235
298.02478
298.01707
298.00832
297.99793
297.9858
297.97237
297.95849
297.94504
297.93269
297.92176
297.91231
297.90435
297.89814
297.89369
297.89246
297.89202
297.902
297.90269
297.94025
297.9191
298.00635
297.63514
295.64212
296.44894
296.05891
296.36735
296.29888
296.46207
296.49395
296.61061
296.67906
296.77791
296.85914
296.95009
297.03403
297.11988
297.20187
297.28271
297.36054
297.43623
297.50925
297.5799
297.648
297.71356
297.77641
297.83644
297.89352
297.94754
297.99842
298.04605
298.09036
298.13125
298.16866
298.2026
298.23312
298.26032
298.28421
298.30472
298.322
298.33599
298.34654
298.35429
298.34472
298.33584
298.32382
298.31021
298.29501
298.27817
298.26019
298.24112
298.22137
298.20124
298.18119
298.16166
298.14316
298.12611
298.11082
298.09734
298.08541
298.07445
298.06365
298.0522
298.03947
298.02528
298.00993
297.99411
297.97864
297.9642
297.95114
297.93952
297.92927
297.9204
297.9132
297.90794
297.90551
297.90488
297.91224
297.91446
297.94722
297.93104
298.01494
297.75941
295.83436
296.6267
296.24291
296.54844
296.4836
296.6439
296.6781
296.79302
296.86292
296.9611
297.04335
297.13427
297.21893
297.305
297.38746
297.46851
297.54653
297.6222
297.69503
297.76521
297.83253
297.89695
297.95829
298.01643
298.0712
298.12249
298.17021
298.21426
298.25459
298.29112
298.32384
298.35277
298.37801
298.39971
298.41794
298.43275
298.44417
298.45227
298.45711
298.45951
298.4491
298.43408
298.41667
298.39746
298.37711
298.35531
298.33272
298.30937
298.28574
298.26215
298.23905
298.21687
298.19605
298.17689
298.15949
298.14369
298.12903
298.11482
298.10031
298.08491
298.06837
298.05088
298.033
298.01544
297.99886
297.98363
297.96984
297.95738
297.94621
297.93642
297.92829
297.92221
297.91872
297.91772
297.92275
297.92624
297.95462
297.94106
298.0234
297.88935
296.02275
296.81271
296.43901
296.74095
296.68222
296.8399
296.87799
296.9919
297.06425
297.16249
297.24646
297.33795
297.42377
297.51047
297.59364
297.67505
297.75334
297.82893
297.9014
297.97081
298.03695
298.0997
298.15888
298.21434
298.26592
298.31351
298.35701
298.39638
298.43159
298.46263
298.48952
298.51235
298.53125
298.54641
298.55803
298.56619
298.57097
298.57249
298.57112
298.56632
298.55495
298.53337
298.51018
298.4851
298.45935
298.43246
298.40516
298.37751
298.34999
298.32294
298.29679
298.27192
298.24863
298.22707
298.20715
298.18851
298.17058
298.1527
298.13431
298.11512
298.09524
298.07511
298.05535
298.03657
298.01913
298.00313
297.98849
297.97511
297.963
297.95229
297.94328
297.9364
297.93198
297.93046
297.93349
297.9377
297.96193
297.95284
298.03087
298.02784
296.22585
297.00864
296.64881
296.94672
296.89648
297.05204
297.09552
297.20925
297.28504
297.38414
297.47047
297.5631
297.65051
297.73812
297.82215
297.90399
297.98241
298.05768
298.12938
298.19747
298.26171
298.32196
298.378
298.42969
298.47689
298.5195
298.55749
298.59085
298.61963
298.64388
298.66369
298.67922
298.69065
298.69823
298.70226
298.7029
298.70026
298.69465
298.68622
298.67424
298.66082
298.63202
298.60269
298.57166
298.54036
298.50837
298.47635
298.44444
298.41309
298.38263
298.35343
298.32578
298.29984
298.27557
298.25271
298.2308
298.20927
298.18759
298.16547
298.14294
298.12036
298.09826
298.07719
298.0575
298.03927
298.02244
298.00689
297.99254
297.97949
297.96793
297.95813
297.95044
297.94518
297.94304
297.94436
297.94883
297.96912
297.96247
298.03761
298.1762
296.43792
297.21695
296.87475
297.16811
297.12873
297.28278
297.33309
297.4476
297.52776
297.62852
297.71782
297.8121
297.90137
297.99005
298.07493
298.157
298.23516
298.30955
298.37972
298.44557
298.50683
298.56332
298.61487
298.66134
298.70263
298.73872
298.76963
298.79544
298.81629
298.83232
298.84371
298.85068
298.8535
298.85249
298.84799
298.84034
298.82962
298.81621
298.80032
298.78101
298.76354
298.72827
298.69248
298.65559
298.61875
298.58173
298.5451
298.50905
298.47397
298.44017
298.40792
298.37739
298.34858
298.32131
298.2952
298.26978
298.24457
298.21927
298.19386
298.16862
298.14401
298.12053
298.0985
298.07802
298.059
298.04129
298.02478
298.0095
297.99559
297.98323
297.97268
297.96423
297.95822
297.95536
297.95529
297.95964
297.97584
297.97181
298.04465
298.33708
296.67287
297.44014
297.11921
297.40801
297.38185
297.53527
297.59377
297.71006
297.79547
297.89863
297.99138
298.08766
298.17885
298.26855
298.35392
298.43567
298.5128
298.58529
298.65272
298.71492
298.77162
298.82267
298.86793
298.90732
298.94085
298.96856
298.9906
299.00715
299.01845
299.02475
299.02634
299.02354
299.01668
299.00614
298.99236
298.97568
298.9564
298.93487
298.91116
298.88449
298.85982
298.82028
298.77804
298.73539
298.69317
298.65128
298.61024
298.57021
298.53155
298.49448
298.45918
298.42567
298.39382
298.36334
298.33383
298.30488
298.27621
298.24773
298.21966
298.19239
298.16635
298.14188
298.11907
298.09784
298.078
298.05939
298.04199
298.02585
298.01115
297.99808
297.98684
297.97766
297.97094
297.96732
297.96617
297.97014
297.98233
297.97898
298.05063
298.51335
296.92851
297.6816
297.38594
297.66996
297.65947
297.81321
297.88115
298.00027
298.09167
298.19786
298.29432
298.39267
298.48556
298.57575
298.66083
298.7412
298.81595
298.88497
298.94785
299.0044
299.05443
299.09783
299.13455
299.16464
299.18821
299.20547
299.21667
299.22214
299.22222
299.21732
299.20783
299.19415
299.1767
299.15589
299.13224
299.10613
299.0779
299.04805
299.01646
298.98251
298.95111
298.90632
298.85788
298.80966
298.76233
298.71583
298.67062
298.62684
298.58477
298.54452
298.50617
298.46962
298.43464
298.40091
298.36807
298.33586
298.30417
298.27315
298.2431
298.21441
298.18737
298.16213
298.13861
298.11662
298.09597
298.07654
298.05834
298.04147
298.02607
298.01233
298.00044
297.99061
297.98326
297.97886
297.97685
297.98018
297.9884
297.98661
298.05688
298.70939
297.20583
297.94517
297.67859
297.95833
297.96579
298.12102
298.19949
298.32241
298.42035
298.52994
298.63
298.73008
298.82388
298.9135
298.99682
299.07404
299.14434
299.20757
299.26337
299.31164
299.35227
299.38529
299.4108
299.42902
299.44024
299.44481
299.44316
299.43576
299.42309
299.40567
299.38399
299.35857
299.32987
299.29835
299.26449
299.22878
299.19158
299.15343
299.11415
299.07307
299.03544
298.98477
298.93056
298.87709
298.82504
298.77427
298.72521
298.67793
298.63263
298.58933
298.54798
298.50841
298.47036
298.43353
298.39767
298.36267
298.32861
298.29572
298.26431
298.23466
298.2069
298.18099
298.15678
298.13405
298.11266
298.09252
298.07367
298.05619
298.0402
298.02587
298.01339
298.00296
297.995
297.98981
297.98716
297.98975
297.9944
297.99394
298.06146
298.92868
297.51295
298.2348
298.00202
298.27785
298.30569
298.46375
298.55365
298.68123
298.78587
298.89878
299.00178
299.10253
299.19569
299.28278
299.36198
299.43335
299.49621
299.55046
299.59588
299.63252
299.66046
299.67994
299.69127
299.69488
299.69126
299.68097
299.66459
299.64273
299.61602
299.58506
299.55046
299.51278
299.4725
299.43017
299.38616
299.34096
299.29504
299.24896
299.20218
299.15449
299.11145
299.0543
298.99491
298.93662
298.88028
298.82564
298.77308
298.72259
298.67428
298.62808
298.58388
298.54146
298.50058
298.46101
298.42264
298.38549
298.34973
298.31559
298.28331
298.253
298.22466
298.19814
298.17327
298.14987
298.12786
298.10717
298.08782
298.06987
298.0534
298.03856
298.02556
298.01459
298.00604
298.00005
297.99685
297.99874
298.0006
298.00114
298.06444
299.16931
297.85432
298.55768
298.36254
298.635
298.68537
298.84769
298.94936
299.08208
299.19293
299.30827
299.41256
299.5119
299.6017
299.68312
299.75463
299.81631
299.86769
299.90884
299.93981
299.96087
299.97242
299.97494
299.96903
299.95534
299.93459
299.90752
299.87488
299.83741
299.79583
299.75081
299.703
299.65299
299.60126
299.54836
299.49468
299.44046
299.38633
299.33276
299.27911
299.22568
299.17833
299.11388
299.04993
298.98735
298.92722
298.86916
298.81348
298.7601
298.70906
298.66022
298.61343
298.56848
298.52518
298.48341
298.44317
298.40454
298.36771
298.33282
298.3
298.26921
298.24036
298.21329
298.18783
298.1639
298.14139
298.1203
298.10061
298.08233
298.06552
298.0503
298.03683
298.02536
298.01624
298.00948
298.00565
298.00677
298.00679
298.00799
298.065
299.43969
298.23211
298.91697
298.76929
299.03859
299.11251
299.28081
299.39316
299.53048
299.64604
299.7616
299.86409
299.95832
300.04047
300.11152
300.17035
300.21722
300.25202
300.27513
300.28699
300.28822
300.27954
300.26179
300.23581
300.20253
300.16286
300.11768
300.06788
300.01426
299.95758
299.89855
299.83779
299.77588
299.71333
299.65049
299.58782
299.52554
299.46409
299.40366
299.34359
299.28595
299.23416
299.16275
299.09483
299.02862
298.96523
298.90424
298.84586
298.78998
298.73656
298.68543
298.63645
298.58944
298.5443
298.50098
298.45952
298.42003
298.38262
298.34733
298.31417
298.28302
298.25375
298.22621
298.2003
298.17595
298.15312
298.13177
298.11186
298.0934
298.07639
298.06092
298.0471
298.03517
298.02547
298.01796
298.01342
298.01362
298.01247
298.0142
298.06358
299.73088
298.66281
299.32417
299.22537
299.49723
299.59381
299.77215
299.89278
300.03201
300.1484
300.25988
300.35528
300.43866
300.50695
300.56122
300.60094
300.62676
300.63908
300.63877
300.62672
300.60396
300.57161
300.5308
300.48265
300.42827
300.3687
300.30493
300.23786
300.16833
300.09706
300.02472
299.95187
299.87902
299.80661
299.73496
299.66426
299.59491
299.52723
299.46093
299.39557
299.33483
299.2761
299.20056
299.12919
299.06007
298.99396
298.93056
298.86995
298.81202
298.75665
298.70372
298.65308
298.60461
298.55827
298.51403
298.47196
298.43209
298.39445
298.35899
298.32563
298.29421
298.26462
298.23675
298.21053
298.18593
298.1629
298.1414
298.12141
298.10288
298.08581
298.07024
298.05621
298.04394
298.03367
298.02541
298.02016
298.0191
298.01683
298.01991
298.06105
300.06573
299.15821
299.79273
299.74769
300.02029
300.14223
300.32166
300.4505
300.58806
300.69921
300.79974
300.88039
300.94487
300.99114
301.02066
301.03373
301.0316
301.01537
300.98642
300.94619
300.89611
300.8376
300.77206
300.70077
300.62491
300.54556
300.46372
300.38022
300.29584
300.21119
300.12687
300.04329
299.9609
299.87997
299.80082
299.72346
299.64824
299.57543
299.50422
299.43477
299.37192
299.30549
299.22719
299.15298
299.08158
299.01334
298.94809
298.88577
298.8263
298.76954
298.71537
298.66368
298.6144
298.56747
298.52289
298.48066
298.44076
298.40313
298.36765
298.33419
298.30264
298.27287
298.24483
298.21847
298.19375
298.17064
298.1491
298.1291
298.1106
298.09358
298.07804
298.06398
298.05154
298.04081
298.03187
298.02594
298.02338
298.01912
298.02422
298.0573
300.45746
299.73672
300.33595
300.35448
300.6145
300.76122
300.94328
301.071
301.19731
301.29366
301.37254
301.42773
301.46274
301.47711
301.47289
301.45147
301.41479
301.3647
301.30307
301.23178
301.15256
301.06703
300.97662
300.88265
300.78629
300.68852
300.59016
300.49196
300.39452
300.29836
300.20386
300.11135
300.02107
299.93326
299.84795
299.76532
299.68561
299.60873
299.53349
299.4615
299.39787
299.32296
299.24276
299.16635
299.09332
299.02357
298.95704
298.89362
298.8332
298.77566
298.72088
298.66878
298.61926
298.57228
298.52779
298.48574
298.44603
298.40856
298.37318
298.33977
298.30822
298.27845
298.2504
298.22405
298.19935
298.17627
298.15477
298.13483
298.11642
298.09952
298.08409
298.07013
298.05771
298.04679
298.03732
298.03048
298.02628
298.02129
298.02849
298.05192
300.91808
300.42719
300.97521
301.03943
301.298
301.46308
301.63274
301.74808
301.84918
301.91627
301.95954
301.97606
301.9698
301.94207
301.89574
301.83323
301.75715
301.66992
301.57383
301.47085
301.36281
301.25132
301.13772
301.02316
300.90856
300.79476
300.68239
300.57193
300.46382
300.35836
300.2558
300.15633
300.06004
299.96702
299.87719
299.7907
299.70775
299.62769
299.54954
299.47704
299.41384
299.32857
299.24743
299.16962
299.09562
299.02506
298.95792
298.89404
298.83332
298.77563
298.72085
298.66888
298.61962
298.57299
298.52889
298.48722
298.44785
298.41066
298.37552
298.34231
298.31094
298.28134
298.25346
298.22725
298.20269
298.17974
298.15837
298.13855
298.12027
298.1035
298.08821
298.07441
298.06213
298.05126
298.04177
298.03456
298.02895
298.02261
298.02862
298.04508
301.48078
301.20844
301.70134
301.84507
302.1128
302.24164
302.37893
302.46178
302.51873
302.53867
302.53068
302.49505
302.43673
302.35862
302.26444
302.1573
302.04023
301.91582
301.78636
301.65378
301.51967
301.38531
301.25183
301.12001
300.99057
300.86394
300.7406
300.62074
300.50463
300.39231
300.28397
300.17948
300.07899
299.98231
299.88948
299.80049
299.71535
299.63283
299.55369
299.48259
299.41036
299.32354
299.24166
299.16344
299.08914
299.01849
298.95141
298.88774
298.82735
298.77009
298.71583
298.66444
298.61579
298.56976
298.52624
298.48509
298.4462
298.40943
298.37467
298.34182
298.3108
298.28153
298.25397
298.22806
298.20377
298.18105
298.15989
298.14025
298.12212
298.1055
298.09035
298.0767
298.06456
298.05379
298.04448
298.03726
298.0308
298.02384
298.02794
298.03705
302.16955
302.1284
302.62495
302.74841
302.96041
303.06262
303.14718
303.17268
303.16563
303.12038
303.0472
302.94901
302.8318
302.69959
302.55648
302.40571
302.25018
302.09221
301.93368
301.77609
301.62059
301.46807
301.31915
301.17431
301.03388
300.89807
300.76698
300.64071
300.51919
300.40245
300.29031
300.18278
300.07968
299.98089
299.88628
299.79603
299.70952
299.62563
299.5472
299.47825
299.39529
299.30871
299.2266
299.1487
299.07481
299.00477
298.93842
298.87557
298.81605
298.75969
298.70632
298.6558
298.60797
298.5627
298.51988
298.47938
298.44108
298.40488
298.37065
298.33832
298.3078
298.27903
298.25193
298.22645
298.20255
298.18019
298.15934
298.13996
298.12205
298.10559
298.09058
298.07703
298.06497
298.05428
298.04513
298.03793
298.03115
298.02449
298.02689
298.0297
303.04904
303.21003
303.60381
303.71271
303.85561
303.88635
303.88659
303.82877
303.73764
303.61346
303.46687
303.30254
303.12661
302.94317
302.75593
302.56756
302.38022
302.19552
302.01465
301.83846
301.66755
301.5023
301.34293
301.18952
301.04208
300.90057
300.76488
300.63487
300.51038
300.39124
300.27726
300.16829
300.06403
299.96438
299.86929
299.77857
299.69124
299.60748
299.53185
299.46102
299.36981
299.28426
299.20297
299.12613
299.05342
298.98467
298.91963
298.85811
298.79988
298.74473
298.69249
298.643
298.59613
298.55174
298.50974
298.47001
298.43246
298.39696
298.36343
298.33177
298.3019
298.27374
298.24723
298.22232
298.19895
298.17707
298.15665
298.13766
298.12007
298.10387
298.08903
298.0756
298.06356
298.05285
298.04372
298.0364
298.02956
298.02362
298.02552
298.02341
304.13301
304.39619
304.64724
304.68232
304.70238
304.62747
304.51526
304.35645
304.1721
303.9666
303.7496
303.52584
303.30014
303.07555
302.85451
302.63872
302.42921
302.22673
302.03164
301.84413
301.66424
301.49191
301.327
301.16933
301.01864
300.87467
300.73719
300.60587
300.48053
300.36085
300.24661
300.1375
300.03335
299.93386
299.83926
299.74877
299.66127
299.57984
299.50793
299.42431
299.33503
299.25075
299.1712
299.09614
299.0253
298.95841
298.89521
298.8354
298.77876
298.72505
298.67411
298.6258
298.58001
298.53665
298.49562
298.45683
298.42018
298.38556
298.35287
298.32202
298.29293
298.26553
298.23974
298.21552
298.1928
298.17154
298.15169
298.13323
298.11611
298.10032
298.08582
298.07263
298.06072
298.05004
298.04079
298.03301
298.02568
298.01984
298.02138
298.02207
305.44991
305.55997
305.61181
305.53367
305.39828
305.19508
304.96164
304.70244
304.43312
304.15906
303.88668
303.6191
303.35897
303.10758
302.86583
302.63407
302.41239
302.2007
301.99882
301.80638
301.62298
301.44827
301.28179
301.12321
300.97209
300.82809
300.69084
300.55999
300.43522
300.31622
300.20275
300.09447
299.99115
299.89277
299.79908
299.7088
299.62296
299.54576
299.47271
299.38018
299.29317
299.2111
299.13385
299.06107
298.99248
298.92773
298.8665
298.80849
298.75346
298.70122
298.65161
298.60455
298.55995
298.51773
298.47781
298.44008
298.40446
298.37083
298.33908
298.30915
298.28095
298.2544
298.22944
298.206
298.18404
298.1635
298.14434
298.12653
298.11002
298.09478
298.0808
298.06807
298.05656
298.04624
298.03726
298.02954
298.0223
298.01667
298.01617
298.01245
306.5184
306.50273
306.33793
306.08962
305.79557
305.47285
305.14199
304.81028
304.48553
304.17075
303.8684
303.57928
303.30383
303.04182
302.79297
302.55672
302.33253
302.11975
301.91786
301.72609
301.54403
301.37091
301.20641
301.04983
300.90093
300.75905
300.624
300.49522
300.37252
300.25546
300.14385
300.0373
299.93581
299.83935
299.74701
299.65783
299.5763
299.50505
299.41666
299.32702
299.24285
299.16371
299.08932
299.01932
298.95334
298.89101
298.83196
298.77593
298.72267
298.67205
298.62397
298.57837
298.53518
298.49433
298.45572
298.41927
298.38485
298.35236
298.32173
298.29285
298.26567
298.2401
298.21609
298.19356
298.17248
298.15278
298.13443
298.11737
298.10159
298.08704
298.07371
298.06157
298.05059
298.04078
298.03221
298.02478
298.0181
298.01298
298.0111
298.00734
306.95172
306.84752
306.53564
306.18874
305.81516
305.43926
305.07065
304.71463
304.3743
304.05048
303.74353
303.45297
303.17819
302.91833
302.67256
302.43999
302.21979
302.01114
301.81335
301.62571
301.44757
301.27837
301.11758
300.96464
300.81908
300.68048
300.54839
300.42248
300.3024
300.18787
300.07856
299.97426
299.87501
299.78041
299.68942
299.60395
299.5277
299.44796
299.35616
299.26985
299.18885
299.11282
299.04141
298.9742
298.91078
298.85075
298.79378
298.73961
298.68806
298.63906
298.59254
298.54845
298.50675
298.46733
298.43011
298.39497
298.36181
298.33054
298.30107
298.27334
298.24725
298.22275
298.19977
298.17825
298.15814
298.1394
298.12196
298.1058
298.09089
298.07718
298.06465
298.05328
298.04305
298.03395
298.026
298.01915
298.01322
298.00867
298.0061
298.00324
306.26146
306.23232
306.01285
305.71714
305.38581
305.04479
304.70755
304.37939
304.0645
303.76367
303.47761
303.20595
302.94831
302.70398
302.47228
302.25249
302.04389
301.84581
301.65763
301.47873
301.30852
301.14655
300.99224
300.84525
300.70501
300.57136
300.44368
300.32198
300.2056
300.09461
299.98844
299.88746
299.79114
299.69868
299.6102
299.53042
299.45754
299.3646
299.27696
299.19466
299.11756
299.04528
298.97744
298.91362
298.85338
298.79632
298.74214
298.69061
298.64159
298.59502
298.55085
298.50902
298.46947
298.43211
298.39684
298.36356
298.33217
298.3026
298.27475
298.24858
298.22399
298.20095
298.17936
298.15921
298.1404
298.12293
298.10671
298.09176
298.07798
298.0654
298.05395
298.04364
298.03442
298.02631
298.01929
298.01335
298.00844
298.00469
298.00224
298.00069
304.84951
304.69486
304.49581
304.02462
303.33895
302.47858
301.66932
301.12525
300.70802
300.30745
299.9614
299.66997
299.4068
299.17381
298.95796
298.75534
298.57311
298.40002
298.25237
298.10899
297.97015
297.85923
297.77209
297.68706
297.61814
297.56173
297.51597
297.48036
297.4606
297.4497
297.44448
297.43573
297.43596
297.4432
297.45272
297.46251
297.46955
297.47633
297.48097
297.48577
297.49149
297.49575
297.50032
297.50494
297.50619
297.50632
297.50522
297.50321
297.50082
297.49813
297.49519
297.4921
297.48906
297.48606
297.4833
297.48071
297.47858
297.47655
297.47528
297.47372
297.47348
297.47207
297.47322
297.47141
297.47514
297.47233
297.47984
297.47576
297.48888
297.48106
297.49836
297.47954
297.50035
297.46014
297.4916
297.44404
297.51669
297.44394
297.61053
297.44937
305.80839
305.21977
304.54739
303.76284
302.73279
301.74167
300.98295
300.45302
300.05244
299.72648
299.44891
299.1898
298.95572
298.75007
298.54818
298.3605
298.20566
298.05557
297.91677
297.80667
297.70309
297.61367
297.54768
297.49308
297.45097
297.42205
297.40268
297.39284
297.39215
297.39685
297.40178
297.41637
297.42938
297.44489
297.46254
297.47789
297.49089
297.50298
297.51126
297.51924
297.527
297.533
297.53741
297.54303
297.54453
297.54469
297.54299
297.54017
297.53687
297.53313
297.52903
297.52467
297.52028
297.51591
297.5118
297.50787
297.5044
297.501
297.49835
297.49538
297.4937
297.49082
297.49039
297.48744
297.48956
297.48542
297.49088
297.48601
297.4962
297.48859
297.50073
297.48278
297.49772
297.46405
297.48575
297.44852
297.51171
297.45399
297.6072
297.49601
296.62113
296.54708
295.98328
295.31274
295.01047
295.02025
295.13771
295.3163
295.51364
295.71457
295.90389
296.06386
296.2225
296.37478
296.49212
296.61132
296.72576
296.81507
296.90401
296.97271
297.04283
297.0951
297.11784
297.15989
297.20057
297.23567
297.26726
297.3177
297.35605
297.38829
297.42353
297.45446
297.48287
297.50773
297.52487
297.53867
297.55096
297.5606
297.56651
297.57564
297.58036
297.58353
297.58629
297.58504
297.5823
297.57923
297.57452
297.56951
297.56438
297.55896
297.55334
297.54769
297.54213
297.53675
297.53173
297.52697
297.52267
297.51849
297.51497
297.5112
297.50853
297.50477
297.50319
297.49977
297.50028
297.49567
297.49921
297.49428
297.50128
297.49396
297.50096
297.48434
297.49166
297.46479
297.47937
297.45372
297.50875
297.47414
297.60607
297.54308
300.16457
300.29411
299.82268
298.38417
297.60442
297.45132
297.36985
297.32684
297.27226
297.2343
297.20423
297.22486
297.2491
297.13585
297.21222
297.2295
297.14058
297.17655
297.23026
297.15963
297.20996
297.26002
297.2166
297.2354
297.26661
297.28059
297.31551
297.34458
297.37086
297.40118
297.42681
297.45109
297.47344
297.49419
297.51394
297.53246
297.54872
297.56204
297.57295
297.58272
297.58948
297.59371
297.596
297.59562
297.59414
297.59183
297.58842
297.58429
297.57962
297.57452
297.56919
297.56378
297.5583
297.55294
297.5478
297.54282
297.53819
297.53362
297.52962
297.52529
297.52195
297.51751
297.51516
297.51099
297.51031
297.50495
297.50701
297.50165
297.50643
297.49779
297.50221
297.48631
297.48894
297.46702
297.47759
297.45901
297.50761
297.49297
297.6048
297.58607
299.08251
298.81066
297.66515
296.34151
295.90384
295.86332
295.91626
295.97658
296.03883
296.10117
296.16843
296.22974
296.29634
296.35759
296.42602
296.49263
296.56056
296.62896
296.69453
296.77107
296.82377
296.8925
296.98132
297.0424
297.10119
297.16683
297.21908
297.26796
297.31369
297.35535
297.39588
297.43275
297.46603
297.49577
297.52207
297.54426
297.56327
297.57858
297.59175
297.60302
297.61106
297.61552
297.61687
297.6162
297.61442
297.61132
297.60782
297.60342
297.59839
297.59296
297.58731
297.58157
297.57575
297.57002
297.56451
297.55912
297.55406
297.54901
297.54443
297.53951
297.53541
297.53032
297.52701
297.52208
297.52007
297.51414
297.51455
297.50861
297.51103
297.5018
297.50295
297.48699
297.48453
297.46904
297.47569
297.46476
297.50559
297.50531
297.6042
297.62338
299.29317
299.04319
297.81657
296.47204
295.88601
295.81899
295.93542
295.94482
296.09127
296.0739
296.13593
296.27924
296.27419
296.41006
296.41453
296.53495
296.55814
296.65648
296.70103
296.7628
296.8355
296.9013
296.96037
297.02162
297.08144
297.1365
297.19166
297.24462
297.29374
297.34022
297.38386
297.42331
297.45868
297.49058
297.51879
297.54326
297.56448
297.58184
297.59711
297.60956
297.61807
297.6238
297.62615
297.62628
297.62526
297.62315
297.61978
297.61576
297.61111
297.60602
297.60064
297.59509
297.58947
297.58385
297.57833
297.57286
297.56762
297.56234
297.5574
297.55208
297.54741
297.54184
297.53773
297.53201
297.52887
297.5224
297.52135
297.51431
297.51464
297.5054
297.50339
297.48895
297.48241
297.471
297.47478
297.47489
297.5055
297.52884
297.61018
297.65952
298.84431
298.49562
297.09269
295.8084
295.39806
295.41856
295.50784
295.59228
295.65053
295.74204
295.81678
295.8878
295.98712
296.05891
296.15732
296.23722
296.33166
296.41507
296.50585
296.5934
296.67761
296.76067
296.84228
296.92062
296.99544
297.06719
297.13455
297.19741
297.25501
297.3086
297.35874
297.40374
297.44406
297.48019
297.51206
297.53959
297.56345
297.58317
297.60069
297.61439
297.62401
297.63039
297.63349
297.63477
297.63409
297.63257
297.6299
297.62644
297.6223
297.61765
297.61264
297.60737
297.602
297.59655
297.59111
297.58564
297.5803
297.57485
297.56963
297.56397
297.55881
297.55277
297.54783
297.5414
297.53718
297.53
297.52776
297.51976
297.5178
297.50843
297.50339
297.49008
297.48089
297.4744
297.47527
297.48542
297.50925
297.55589
297.62006
297.6946
298.67055
298.23354
296.64812
295.44071
295.1356