/*--------------------------------*- C++ -*----------------------------------*\
  =========                 |
  \\      /  F ield         | OpenFOAM: The Open Source CFD Toolbox
   \\    /   O peration     | Website:  https://openfoam.org
    \\  /    A nd           | Version:  6
     \\/     M anipulation  |
\*---------------------------------------------------------------------------*/
FoamFile
{
    version     2.0;
    format      ascii;
    class       volVectorField;
    location    "100";
    object      U;
}
// * * * * * * * * * * * * * * * * * * * * * * * * * * * * * * * * * * * * * //

dimensions      [0 1 -1 0 0 0 0];

internalField   nonuniform List<vector> 
16000
(
(162.1455 1.1721263e-15 -18.637713)
(173.7901 -1.0281851e-15 -12.408894)
(169.57953 3.9866975e-18 -17.726834)
(171.37313 3.5994078e-18 -13.303591)
(169.56822 0 -16.497066)
(169.78682 -8.2514743e-16 -13.888749)
(168.70772 7.8277994e-16 -15.568134)
(168.42103 0 -14.142316)
(167.61387 -1.7154617e-19 -14.912792)
(167.14105 1.6263616e-19 -14.154418)
(166.46212 3.0887723e-19 -14.437694)
(165.92549 -6.00527e-16 -14.019328)
(165.31327 5.7072326e-16 -14.061785)
(164.76331 4.5052946e-18 -13.801541)
(164.19103 5.1597341e-16 -13.731697)
(163.64884 -4.9085244e-16 -13.537812)
(163.10529 -9.3506578e-16 -13.41674)
(162.57902 8.8928138e-16 -13.246251)
(162.05836 0 -13.10036)
(161.54885 8.0700734e-16 -12.933967)
(161.04571 -7.6890871e-16 -12.773209)
(160.55021 -7.3364452e-16 -12.602207)
(160.06088 -7.5185918e-19 -12.429704)
(159.57889 -3.9431961e-19 -12.250507)
(159.10505 6.255343e-16 -12.067571)
(158.64099 0 -11.879431)
(158.18773 5.7936691e-16 -11.687055)
(157.74576 -5.4341633e-16 -11.489921)
(157.31491 -5.1459672e-19 -11.288119)
(156.89479 -4.9126198e-19 -11.081375)
(156.48528 -4.805939e-16 -10.869594)
(156.08719 4.5822793e-16 -10.652202)
(155.70073 -1.3700634e-17 -10.431481)
(155.32701 -1.2270349e-17 -10.208277)
(154.96722 8.0011825e-16 -9.9823031)
(154.62082 -1.5294719e-15 -9.754405)
(154.28849 7.3030921e-16 -9.5234148)
(153.97026 1.0914436e-17 -9.2889811)
(153.66706 1.0433069e-17 -9.052357)
(153.37946 0 -8.8149343)
(153.1076 -1.1911726e-18 -8.5771901)
(152.85167 1.139056e-18 -8.3398375)
(152.61206 -5.5692702e-16 -8.1037283)
(152.38917 5.3456624e-16 -7.8697855)
(152.18323 5.0954556e-16 -7.6387867)
(151.99448 -4.8827389e-16 -7.4115365)
(151.82309 -9.1239173e-19 -7.1888334)
(151.66911 0 -6.9713856)
(151.53257 4.2798744e-16 -6.7598549)
(151.41338 -4.0956239e-16 -6.5548284)
(151.31135 0 -6.3567626)
(151.22615 0 -6.1659715)
(151.15723 2.2473894e-17 -5.9825592)
(151.10379 -1.3447449e-18 -5.8063411)
(151.06472 2.0621009e-17 -5.6367401)
(151.03846 0 -5.4726703)
(151.02292 0 -5.3124649)
(151.01541 0 -5.1538279)
(151.01291 0 -4.9939256)
(151.01218 -3.5460462e-17 -4.8297232)
(151.01047 -3.2013891e-17 -4.658452)
(151.0056 0 -4.4785647)
(150.99748 2.9481309e-17 -4.2901681)
(150.98658 0 -4.0964427)
(150.97747 -3.0583316e-17 -3.9020303)
(150.97092 -4.2113772e-16 -3.7152452)
(150.97604 4.0172537e-16 -3.540489)
(150.9837 -3.017991e-18 -3.3869595)
(151.01115 3.7167992e-16 -3.2474214)
(151.0197 -3.7746991e-16 -3.1337326)
(151.06185 0 -3.0142591)
(151.02761 -3.3226593e-16 -2.9310853)
(151.0906 6.4079234e-16 -2.7929359)
(150.94365 -3.0950996e-16 -2.7607457)
(151.10028 4.6653161e-18 -2.5318607)
(150.70137 0 -2.6767907)
(151.10487 -1.3964168e-16 -2.1251826)
(150.21551 1.7083243e-17 -2.8842687)
(151.0486 1.3113728e-16 -1.3254727)
(149.64536 -3.2006719e-17 -3.7393305)
(161.4818 -1.1835143e-15 -20.44773)
(173.17429 1.0399393e-15 -13.90768)
(168.76898 -3.9436078e-18 -19.539534)
(170.73501 9.4432071e-16 -14.817036)
(168.85172 -9.0178419e-16 -18.240466)
(169.1681 6.5873068e-18 -15.430206)
(168.0635 0 -17.238903)
(167.83 0 -15.6956)
(167.01977 7.0758746e-16 -16.522275)
(166.57438 -6.9196903e-16 -15.69913)
(165.89941 6.3736438e-16 -15.995871)
(165.37627 -6.1460145e-16 -15.539237)
(164.76828 0 -15.573414)
(164.22428 5.5136404e-16 -15.28539)
(163.65431 -5.2829895e-16 -15.196935)
(163.11388 0 -14.977758)
(162.57058 0 -14.832914)
(162.04376 0 -14.636245)
(161.52187 -8.5457076e-16 -14.463374)
(161.01061 8.2650888e-16 -14.268717)
(160.50552 0 -14.078415)
(160.008 7.5106681e-16 -13.876821)
(159.51686 -7.0437873e-16 -13.6725)
(159.03333 -6.8273332e-16 -13.460496)
(158.55828 3.0117474e-17 -13.24363)
(158.09327 6.0132088e-16 -13.020511)
(157.63925 6.111068e-16 -12.791997)
(157.19672 -1.1393828e-15 -12.557593)
(156.76566 1.07895e-15 -12.317415)
(156.34598 -4.9867088e-16 -12.071296)
(155.93777 4.9170638e-16 -11.819393)
(155.54146 -9.386374e-16 -11.561978)
(155.15741 9.1027813e-16 -11.299381)
(154.78716 -8.4256338e-16 -11.031546)
(154.43102 4.0865022e-16 -10.760819)
(154.0902 0 -10.488679)
(153.76526 2.3329132e-17 -10.21583)
(153.4566 -1.1134882e-17 -9.9418142)
(153.16407 -6.9208032e-16 -9.6650182)
(152.88824 6.9167229e-16 -9.3871975)
(152.6295 0 -9.1099678)
(152.38781 -5.9497612e-16 -8.8340602)
(152.1633 3.5351974e-17 -8.5601347)
(151.95633 1.0874019e-15 -8.2893445)
(151.76697 -5.197927e-16 -8.022632)
(151.59532 -4.9721435e-16 -7.7607904)
(151.44137 5.0511851e-16 -7.5047122)
(151.30506 -3.9794574e-16 -7.2551623)
(151.18621 8.1562185e-16 -7.0127957)
(151.08458 -4.1612211e-16 -6.7782019)
(150.99979 0 -6.5517881)
(150.93129 0 -6.3337751)
(150.87831 -2.2783247e-17 -6.1241243)
(150.83976 -6.9801756e-16 -5.9224437)
(150.81416 6.4731882e-16 -5.7279119)
(150.79964 5.9985365e-16 -5.5391568)
(150.79383 1.6696802e-20 -5.3542815)
(150.79389 -6.6029493e-16 -5.1709115)
(150.79684 0 -4.9864354)
(150.79992 3.3667673e-17 -4.7984633)
(150.80121 -3.2287939e-17 -4.6054368)
(150.79996 -6.1884556e-17 -4.4073885)
(150.79729 -4.449488e-16 -4.2063201)
(150.79546 4.5075509e-20 -4.0065794)
(150.79862 4.0950775e-16 -3.813546)
(150.80889 0 -3.6335838)
(150.83053 -4.0244381e-16 -3.4697454)
(150.85825 3.8657127e-16 -3.3253806)
(150.89708 -4.6426807e-17 -3.1944274)
(150.92527 3.7926855e-16 -3.0800799)
(150.96518 -6.86562e-16 -2.9634687)
(150.95799 3.7166467e-16 -2.8677718)
(150.99599 3.1793228e-16 -2.7386331)
(150.90438 -8.4595759e-20 -2.6805005)
(150.99382 -3.1824408e-16 -2.482272)
(150.70933 2.6715525e-16 -2.5745207)
(150.98729 -2.7042969e-16 -2.0961644)
(150.27072 -1.6655902e-17 -2.7475253)
(150.90858 1.601263e-17 -1.329059)
(149.72659 3.1120411e-17 -3.5490037)
(160.72403 1.1986405e-15 -22.296274)
(172.43296 -3.4352018e-21 -15.474668)
(167.88043 -1.0298773e-15 -21.368306)
(169.98788 9.518056e-16 -16.411949)
(168.03523 7.1347685e-18 -19.999831)
(168.4286 8.543199e-16 -17.046535)
(167.30112 -1.6348461e-15 -18.932174)
(167.10676 1.1681103e-17 -17.312345)
(166.29294 7.3435656e-16 -18.159793)
(165.86584 1.088457e-17 -17.295731)
(165.19295 -6.7246239e-16 -17.584329)
(164.67726 6.285897e-16 -17.100915)
(164.07116 0 -17.114189)
(163.52904 0 -16.802324)
(162.95915 -5.4082606e-16 -16.687647)
(162.41775 5.143096e-16 -16.443055)
(161.87289 0 -16.269272)
(161.34371 1.4578423e-17 -16.044321)
(160.81931 -1.3870684e-17 -15.840331)
(160.30522 8.1980244e-16 -15.614385)
(159.79752 5.1175495e-19 -15.390714)
(159.29764 -7.4395894e-16 -15.155022)
(158.80474 7.2110323e-16 -14.915044)
(158.32011 -6.9798073e-16 -14.66642)
(157.84467 -6.8682081e-16 -14.411653)
(157.37988 6.5466015e-16 -14.149578)
(156.92662 1.8965115e-17 -13.880947)
(156.4854 3.6144911e-17 -13.605382)
(156.05633 3.4488662e-17 -13.323054)
(155.63957 -5.4283242e-16 -13.033953)
(155.23552 4.7068524e-16 -12.738403)
(154.84481 5.0952769e-16 -12.436824)
(154.46822 -4.5752449e-16 -12.129867)
(154.10642 -4.3705375e-16 -11.818292)
(153.75993 8.3439061e-16 -11.502469)
(153.42991 -7.9677856e-16 -11.183703)
(153.11685 -3.5693118e-16 -10.864011)
(152.82223 7.266898e-16 -10.545552)
(152.5459 0 -10.227929)
(152.28745 -6.6345288e-16 -9.9094131)
(152.04722 5.9403901e-16 -9.5917491)
(151.82541 0 -9.2769349)
(151.62173 -3.6153732e-17 -8.965404)
(151.43632 0 -8.6581278)
(151.26923 6.610661e-17 -8.356394)
(151.12025 0 -8.0609785)
(150.98924 -3.0174949e-17 -7.7727516)
(150.87593 4.4742406e-20 -7.4925521)
(150.77992 1.1036641e-16 -7.2209743)
(150.7008 0 -6.9585567)
(150.63791 0 -6.705617)
(150.59048 0 -6.4622146)
(150.55743 0 -6.2281224)
(150.53733 0 -6.0026821)
(150.52835 8.4484849e-17 -5.7848002)
(150.52827 4.040021e-17 -5.5728376)
(150.53448 6.1874158e-16 -5.3647121)
(150.54415 -5.9225312e-16 -5.1581028)
(150.55457 -7.0878697e-17 -4.9508167)
(150.56372 0 -4.7413421)
(150.57081 6.4961346e-17 -4.5294846)
(150.57655 5.6003418e-16 -4.3168897)
(150.58331 -5.3655742e-16 -4.1071153)
(150.59442 0 -3.9052313)
(150.61353 -5.4771184e-17 -3.7164218)
(150.64244 -1.0498775e-16 -3.5448955)
(150.68205 4.0262071e-16 -3.3915628)
(150.72786 -3.8625004e-16 -3.2555003)
(150.77862 4.6316479e-17 -3.1308573)
(150.82138 -3.5565077e-16 -3.0160505)
(150.86345 5.9872432e-20 -2.9007401)
(150.87435 2.8709157e-16 -2.7959985)
(150.90055 0 -2.6738975)
(150.84526 0 -2.5947015)
(150.89353 1.8216652e-17 -2.4262238)
(150.68534 1.7556655e-17 -2.4643812)
(150.87234 2.9538126e-17 -2.0650579)
(150.28615 -1.1410187e-16 -2.590366)
(150.81828 1.1376517e-16 -1.3248519)
(149.73788 -6.0193189e-17 -3.3829736)
(159.87471 2.9009494e-17 -24.195431)
(171.59744 8.4973885e-18 -17.07872)
(166.8845 1.0656688e-15 -23.243547)
(169.13363 5.1257243e-19 -18.043025)
(167.10386 -9.3139519e-16 -21.797683)
(167.57197 -8.7859166e-16 -18.698804)
(166.41666 8.3400074e-16 -20.657822)
(166.25802 -1.2337778e-17 -18.962724)
(165.43774 7.6197288e-16 -19.825531)
(165.02587 -6.8921942e-16 -18.922144)
(164.353 -6.7640154e-16 -19.197644)
(163.84233 1.2647796e-15 -18.687806)
(163.23648 -6.1061373e-16 -18.676245)
(162.69447 1.8162358e-17 -18.33952)
(162.12333 0 -18.195399)
(161.57974 0 -17.923382)
(161.03238 -5.0069887e-16 -17.717694)
(160.50011 4.6153119e-16 -17.461831)
(159.97271 0 -17.223709)
(159.45559 8.919679e-16 -16.963462)
(158.94534 -8.4932656e-16 -16.703252)
(158.44348 3.2693557e-20 -16.430213)
(157.9495 0 -16.151239)
(157.46469 -4.462e-17 -15.862567)
(156.99003 -6.8039245e-16 -15.566394)
(156.52686 6.0783177e-16 -15.261783)
(156.07605 -6.5744504e-16 -14.949426)
(155.63821 5.5301908e-16 -14.629118)
(155.21366 -3.5158807e-17 -14.30117)
(154.80284 -3.3592437e-17 -13.965811)
(154.40637 -4.8057792e-16 -13.623588)
(154.02504 4.5831449e-16 -13.275159)
(153.65965 0 -12.921327)
(153.31095 0 -12.562926)
(152.97956 0 -12.201006)
(152.66587 -5.0770287e-17 -11.836663)
(152.3707 -4.8404e-17 -11.470332)
(152.09456 7.8632007e-16 -11.104405)
(151.83853 -8.8092674e-17 -10.742569)
(151.6027 -6.3236412e-16 -10.383688)
(151.38594 4.0254339e-17 -10.025986)
(151.18874 6.1559573e-16 -9.6720656)
(151.01076 -5.1430035e-16 -9.3235336)
(150.8516 -5.6168964e-16 -8.9806756)
(150.71124 -6.7161178e-17 -8.6449209)
(150.58928 9.6107878e-16 -8.3172582)
(150.48528 -3.6721697e-16 -7.9983637)
(150.39883 -5.8474275e-17 -7.6891188)
(150.32927 3.9134897e-16 -7.390044)
(150.27596 -5.3423191e-16 -7.1015459)
(150.23801 -4.0846548e-16 -6.8238212)
(150.21434 3.9038018e-16 -6.5567152)
(150.20358 0 -6.2997691)
(150.20398 7.1344881e-16 -6.0520454)
(150.21342 -7.6731329e-16 -5.8121835)
(150.22941 0 -5.578372)
(150.24933 6.2370214e-16 -5.3485262)
(150.27062 -9.6936831e-16 -5.1206295)
(150.29119 4.9927879e-16 -4.8932262)
(150.31002 5.4589642e-16 -4.6659701)
(150.32756 -1.306629e-16 -4.4401309)
(150.34576 -4.9990787e-16 -4.2187645)
(150.36775 -4.7842312e-16 -4.0063151)
(150.39687 5.7257479e-16 -3.8076481)
(150.43563 -4.3853737e-16 -3.6265485)
(150.48436 1.0504251e-16 -3.4645549)
(150.54146 4.0228437e-16 -3.3199747)
(150.60221 -3.8533594e-16 -3.1891583)
(150.6631 5.5396477e-16 -3.0664372)
(150.716 0 -2.9490428)
(150.76225 0 -2.8318311)
(150.78574 0 -2.7204103)
(150.80874 0 -2.601556)
(150.77835 1.498904e-16 -2.5083898)
(150.80319 -2.8773441e-16 -2.360862)
(150.6507 3.4576705e-16 -2.3568083)
(150.77483 -3.651587e-16 -2.0242272)
(150.29079 4.9562111e-16 -2.4428403)
(150.71851 -3.723036e-16 -1.3105777)
(149.7349 -1.3327336e-19 -3.1955269)
(158.92145 1.2574112e-15 -26.140134)
(170.66289 5.6939223e-19 -18.72404)
(165.77658 -1.1011198e-15 -25.152727)
(168.15847 0 -19.71821)
(166.05018 -1.4838863e-17 -23.623177)
(166.58413 -2.800718e-17 -20.393734)
(165.39967 0 -22.40819)
(165.26918 -7.8079551e-16 -20.650473)
(164.44095 7.6502141e-16 -21.514234)
(164.03862 -7.49204e-16 -20.579056)
(163.36394 6.8989385e-16 -20.831488)
(162.85424 -2.5291637e-20 -20.29794)
(162.24668 0 -20.254867)
(161.70197 5.74676e-16 -19.892696)
(161.12788 -5.6398661e-16 -19.714238)
(160.58024 0 -19.412327)
(160.02911 5.1122235e-16 -19.170527)
(159.49265 -5.1683596e-16 -18.880305)
(158.96155 4.6352151e-16 -18.603953)
(158.44101 4.1420163e-16 -18.305448)
(157.92821 -8.1437883e-16 -18.0045)
(157.42475 -2.5022441e-17 -17.689878)
(156.93042 4.7770224e-17 -17.367566)
(156.44655 -7.4883525e-20 -17.034446)
(155.97415 0 -16.692431)
(155.51451 -6.9249813e-20 -16.340862)
(155.06856 0 -15.980442)
(154.63701 3.7631496e-17 -15.611214)
(154.22046 0 -15.233691)
(153.81958 3.417464e-17 -14.84839)
(153.43516 0 -14.456113)
(153.06808 0 -14.057765)
(152.71913 5.9437273e-17 -13.654378)
(152.38897 0 -13.247046)
(152.07814 -4.3261753e-16 -12.836905)
(151.78712 4.6419181e-16 -12.425197)
(151.51628 0 -12.013312)
(151.26567 -4.6957937e-17 -11.602077)
(151.03589 -6.2808722e-16 -11.193726)
(150.82798 5.9933904e-16 -10.792236)
(150.64109 -6.5407708e-16 -10.395976)
(150.47414 7.0237839e-16 -10.00383)
(150.32741 -7.4524015e-16 -9.6191403)
(150.19993 5.6914328e-16 -9.242395)
(150.09141 -1.3596057e-16 -8.8743547)
(150.00137 6.4847753e-17 -8.5164184)
(149.92901 -1.2386142e-16 -8.1690586)
(149.87375 1.1840587e-16 -7.8330492)
(149.83467 -4.5215363e-16 -7.5088599)
(149.81088 9.7163756e-16 -7.1966809)
(149.8012 1.5176593e-20 -6.8965454)
(149.80427 -4.9260122e-16 -6.6080421)
(149.81842 1.8828753e-16 -6.3304489)
(149.84161 0 -6.0625634)
(149.8715 0 -5.8028127)
(149.90553 0 -5.5493473)
(149.94122 -6.2752721e-16 -5.3003067)
(149.97654 4.499072e-16 -5.0542455)
(150.01028 1.4330277e-16 -4.8106884)
(150.04252 -1.3704935e-16 -4.5705671)
(150.07484 1.3098015e-16 -4.3364397)
(150.11 -7.5159367e-16 -4.1122345)
(150.15124 9.5832311e-16 -3.9023957)
(150.20113 -1.0311089e-15 -3.71062)
(150.26064 9.8629013e-16 -3.5385322)
(150.32836 -2.0977624e-16 -3.3850041)
(150.40109 -6.0190794e-16 -3.2462879)
(150.47415 0 -3.1175671)
(150.54382 -1.8371515e-16 -2.9940598)
(150.6051 1.7589843e-16 -2.8735468)
(150.65713 0 -2.7541017)
(150.69116 0 -2.6386149)
(150.71599 -1.5450521e-16 -2.5218666)
(150.70378 -2.9611384e-16 -2.4195409)
(150.71541 -2.8377178e-16 -2.2877173)
(150.60373 6.8064657e-17 -2.2488907)
(150.68128 -6.5305578e-17 -1.9739463)
(150.27648 2.5082788e-16 -2.2898608)
(150.63967 -6.0022768e-17 -1.2879455)
(149.70889 2.2668699e-16 -3.0129483)
(157.85504 1.2562613e-15 -28.131535)
(169.62464 -1.1255638e-15 -20.41001)
(164.5529 1.6962736e-17 -27.090227)
(167.05707 0 -21.434868)
(164.86943 1.5091336e-17 -25.47001)
(165.45989 9.4118412e-16 -22.126795)
(164.24552 -8.392692e-16 -24.176763)
(164.13547 -5.1333845e-17 -22.369563)
(163.29794 0 -23.219032)
(162.89952 -7.4068445e-16 -22.259154)
(162.22116 6.5520555e-17 -22.478337)
(161.70855 2.0420365e-17 -21.922947)
(161.09732 5.9583055e-16 -21.841623)
(160.54735 0 -21.452528)
(159.96867 5.755209e-16 -21.23464)
(159.4154 -1.0607113e-15 -20.899562)
(158.85945 1.0422287e-15 -20.617056)
(158.31801 -4.6495678e-16 -20.288292)
(157.78285 0 -19.969077)
(157.25892 2.809749e-17 -19.627665)
(156.74401 -8.5745888e-16 -19.281171)
(156.2398 1.6332086e-15 -18.920073)
(155.7464 -1.6047662e-15 -18.549479)
(155.26517 8.3392482e-16 -18.166934)
(154.7972 -7.0693873e-16 -17.774141)
(154.34379 6.7329926e-16 -17.370773)
(153.90594 0 -16.957636)
(153.48457 -5.7400093e-16 -16.535092)
(153.08046 5.8350037e-16 -16.103928)
(152.69448 6.9641287e-17 -15.664989)
(152.32751 6.6407951e-17 -15.219357)
(151.98041 -5.6958026e-16 -14.768213)
(151.65389 9.0509503e-16 -14.312836)
(151.34852 2.1890855e-19 -13.854554)
(151.06471 -8.7824703e-16 -13.39478)
(150.80274 5.2360481e-16 -12.93495)
(150.5628 0 -12.476503)
(150.34492 3.8126999e-16 -12.021125)
(150.14892 -4.546295e-16 -11.569522)
(149.97487 0 -11.124583)
(149.82383 -6.6236521e-16 -10.689532)
(149.69299 7.903274e-17 -10.261886)
(149.58271 5.2756804e-16 -9.8426727)
(149.49218 0 -9.4342772)
(149.42034 1.3728332e-16 -9.0365197)
(149.36675 6.5563811e-16 -8.6508855)
(149.33024 -5.0056437e-16 -8.2778861)
(149.31 1.1721051e-19 -7.9179808)
(149.30486 -4.5615594e-16 -7.5715848)
(149.31365 8.7092701e-16 -7.2386158)
(149.33493 -6.9958844e-21 -6.9188841)
(149.36707 -9.919304e-17 -6.6117022)
(149.40811 -1.8941361e-16 -6.3160763)
(149.45582 1.8097465e-16 -6.0305879)
(149.50778 1.7279937e-16 -5.7535716)
(149.56154 6.5979497e-16 -5.4833108)
(149.61503 -6.3017998e-16 -5.2184179)
(149.66697 0 -4.9582711)
(149.71716 0 -4.7034981)
(149.76674 1.3727272e-16 -4.4562146)
(149.81809 5.2464105e-16 -4.2198391)
(149.8742 -2.507319e-16 -3.99842)
(149.93771 -4.7894832e-16 -3.7954899)
(150.00986 -2.2880689e-16 -3.6128364)
(150.08989 2.1871277e-16 -3.4496735)
(150.17499 4.1803431e-16 -3.3027108)
(150.26124 7.9907275e-16 -3.1671319)
(150.34457 -3.8196744e-16 -3.0382773)
(150.4221 3.6508208e-16 -2.9127982)
(150.49103 -6.9821846e-16 -2.7896252)
(150.54991 -3.3377879e-16 -2.6685585)
(150.59341 3.1929911e-16 -2.5510689)
(150.623 1.5268751e-16 -2.4356153)
(150.62478 1.4610136e-16 -2.3276069)
(150.62981 -2.7965773e-16 -2.2066993)
(150.54983 1.3387883e-16 -2.1404327)
(150.59286 1.2818879e-16 -1.913917)
(150.25464 -4.9139735e-16 -2.1424443)
(150.55348 2.9381672e-16 -1.2582187)
(149.67159 0 -2.8252792)
(156.66773 2.0229988e-17 -30.16755)
(168.42291 -1.1092934e-15 -22.129948)
(163.20921 3.3893929e-17 -29.052331)
(165.82341 1.0321193e-15 -23.193)
(163.55573 -9.8341951e-16 -27.33468)
(164.19142 9.5747207e-16 -23.896978)
(162.94657 -5.512796e-17 -25.95977)
(162.84779 2.6115406e-17 -24.117403)
(161.99938 0 -24.935624)
(161.59832 7.5438403e-16 -23.95797)
(160.91397 -8.0593269e-16 -24.132813)
(160.39397 0 -23.556518)
(159.77672 6.8829617e-16 -23.429505)
(159.21858 -6.1570522e-16 -23.010841)
(158.63346 5.8618584e-16 -22.747655)
(158.07284 -5.9218277e-16 -22.374953)
(157.51099 4.6446727e-16 -22.046217)
(156.96391 -1.0103246e-15 -21.673588)
(156.42454 4.807735e-16 -21.305868)
(155.89757 -4.5815561e-16 -20.915816)
(155.38144 4.905885e-16 -20.51796)
(154.87789 -5.1993256e-17 -20.104508)
(154.38737 -4.9529519e-17 -19.67978)
(153.91131 -4.7083474e-17 -19.242015)
(153.45091 0 -18.792814)
(153.00751 4.274813e-17 -18.33225)
(152.58225 6.5267004e-16 -17.861339)
(152.17619 -6.9927618e-16 -17.380826)
(151.79028 5.186694e-16 -16.891835)
(151.42545 -1.4092077e-16 -16.395568)
(151.08257 -6.0559289e-16 -15.893424)
(150.7624 -1.3308561e-19 -15.386878)
(150.46549 -4.8949849e-16 -14.877485)
(150.19224 4.6647534e-16 -14.366841)
(149.94284 1.113282e-16 -13.856584)
(149.71736 -1.0594936e-16 -13.34837)
(149.5157 0 -12.843835)
(149.33756 -3.8574352e-16 -12.344631)
(149.18265 4.5964342e-16 -11.852363)
(149.05038 -7.0162797e-16 -11.367498)
(148.94022 8.3650774e-16 -10.89471)
(148.85211 -1.5946212e-16 -10.434277)
(148.78398 7.6102536e-16 -9.9835652)
(148.73574 -1.3069866e-15 -9.5462038)
(148.70554 -1.3864884e-16 -9.1221407)
(148.69284 3.965491e-16 -8.7121794)
(148.6962 0 -8.3170591)
(148.71455 1.2048871e-16 -7.9368134)
(148.7465 0 -7.5717202)
(148.7906 -2.1914392e-16 -7.2214097)
(148.84519 0 -6.8854142)
(148.90837 -3.9887809e-16 -6.562775)
(148.978 1.9038004e-16 -6.2522582)
(149.05176 -3.6321517e-16 -5.9523251)
(149.12731 -1.7325366e-16 -5.661381)
(149.20258 0 -5.3780584)
(149.27611 0 -5.1016608)
(149.34748 0 -4.8325345)
(149.4175 -5.7523921e-16 -4.5723632)
(149.4881 2.7474401e-16 -4.3240913)
(149.56197 9.6671219e-20 -4.0913432)
(149.64167 5.0058078e-16 -3.8774455)
(149.7287 0 -3.6842682)
(149.82279 6.8431311e-16 -3.5113627)
(149.92171 -6.534886e-16 -3.3558419)
(150.02193 -2.07867e-16 -3.2131757)
(150.11968 -1.9848644e-16 -3.0786015)
(150.21198 7.5856358e-16 -2.9485496)
(150.29716 -3.6224025e-16 -2.8212525)
(150.37381 -5.1880967e-16 -2.6966466)
(150.44039 1.4838154e-19 -2.5751395)
(150.49288 1.4538494e-19 -2.4573208)
(150.52892 1.5074636e-15 -2.3428587)
(150.54191 -5.7620963e-16 -2.2318404)
(150.54461 5.505471e-16 -2.1182019)
(150.4895 0 -2.0309541)
(150.50545 5.0299336e-16 -1.8448837)
(150.2238 -4.8144476e-16 -1.9882586)
(150.47642 0 -1.2222447)
(149.62728 2.1342575e-16 -2.6396359)
(155.35661 1.2921645e-15 -32.247083)
(167.03683 -2.327952e-15 -23.887342)
(161.73236 -3.5707385e-17 -31.046968)
(164.445 -7.5888471e-19 -24.998021)
(162.0969 9.9911303e-16 -29.220885)
(162.76561 -9.4511196e-16 -25.707309)
(161.49026 1.8222878e-15 -27.75774)
(161.39305 -8.5046086e-16 -25.893617)
(160.53233 0 -26.661989)
(160.12191 0 -25.671787)
(159.42927 9.1144382e-17 -25.790171)
(158.89752 -6.9326563e-16 -25.191957)
(158.27197 6.9983406e-16 -25.010881)
(157.70303 0 -24.558184)
(157.10986 0 -24.24275)
(156.54062 5.6730997e-16 -23.826376)
(155.97225 -4.7202938e-16 -23.444692)
(155.41946 0 -23.021479)
(154.87642 4.8907153e-16 -22.598406)
(154.34759 -4.652321e-16 -22.152752)
(153.83204 -5.5329566e-17 -21.696618)
(153.33165 5.2685627e-17 -21.223903)
(152.84715 5.0173177e-17 -20.738305)
(152.38011 0 -20.238785)
(151.93184 0 -19.72698)
(151.50377 0 -19.20344)
(151.09715 0 -18.669494)
(150.71312 0 -18.12633)
(150.35268 6.7560215e-16 -17.57546)
(150.01671 -5.0051818e-16 -17.018473)
(149.70596 0 -16.457108)
(149.42096 5.8441473e-16 -15.893162)
(149.16205 2.0356974e-19 -15.328477)
(148.92933 1.7460456e-19 -14.764918)
(148.7227 -8.9887319e-16 -14.204346)
(148.5419 4.2839446e-16 -13.648583)
(148.38646 5.1061658e-16 -13.099442)
(148.25573 -3.8920357e-16 -12.558599)
(148.14906 -3.7106441e-16 -12.027483)
(148.06544 -3.5376235e-16 -11.507803)
(148.00322 -1.6853098e-16 -11.000943)
(147.964 6.4295034e-16 -10.509453)
(147.94366 -1.5337897e-16 -10.031952)
(147.94251 -4.3852232e-16 -9.5695466)
(147.95843 1.3927935e-16 -9.1234392)
(147.99051 6.6452043e-16 -8.6934477)
(148.03721 -2.5358706e-16 -8.2804311)
(148.09712 2.4179422e-16 -7.8840577)
(148.16869 -2.3040189e-16 -7.5043491)
(148.25023 2.197171e-16 -7.1406613)
(148.33985 0 -6.7922221)
(148.4355 -1.5615902e-19 -6.4578376)
(148.53495 -1.9061471e-16 -6.1361124)
(148.63597 1.8180296e-16 -5.8255283)
(148.7365 -3.4701716e-16 -5.5247534)
(148.83501 0 -5.2329807)
(148.93083 -3.1567684e-16 -4.9503361)
(149.02442 3.0091497e-16 -4.6781189)
(149.11736 -1.1487548e-15 -4.4187949)
(149.21198 5.4812013e-16 -4.175562)
(149.31068 5.2269033e-16 -3.9514904)
(149.41511 -2.4936495e-16 -3.7484571)
(149.52537 4.7572006e-16 -3.5662836)
(149.63982 -9.0778392e-16 -3.4024769)
(149.75539 -4.3297795e-16 -3.2528207)
(149.86858 8.2629769e-16 -3.1126213)
(149.97644 9.0800568e-20 -2.9780698)
(150.07722 3.7601875e-16 -2.8470711)
(150.17026 3.5872562e-16 -2.7191435)
(150.25492 0 -2.5947079)
(150.32963 9.7925537e-16 -2.4740515)
(150.3907 -1.8690542e-15 -2.3571488)
(150.43406 7.3812046e-20 -2.2436797)
(150.45634 8.5084539e-16 -2.1317388)
(150.45979 -1.3533932e-15 -2.0227061)
(150.42436 1.6655214e-19 -1.920872)
(150.41987 2.4665176e-16 -1.7670897)
(150.18833 -4.7093962e-16 -1.8440066)
(150.39585 1.1236911e-15 -1.1808097)
(149.58054 -2.0721287e-16 -2.4541892)
(153.90641 0 -34.371648)
(165.51488 -1.184e-15 -25.69065)
(160.10003 1.1388201e-15 -33.074258)
(162.89954 3.3409197e-17 -26.85002)
(160.47269 1.0477549e-15 -31.125402)
(161.16152 -2.9207503e-17 -27.555909)
(159.857 -9.1159447e-16 -29.566082)
(159.75157 8.1128703e-16 -27.693183)
(158.87772 -8.2101255e-16 -28.391968)
(158.45157 -8.291988e-16 -27.392709)
(157.7487 -4.9993968e-19 -27.44193)
(157.20133 7.0402346e-16 -26.818756)
(156.56561 1.0392824e-19 -26.574481)
(155.98382 -6.3690375e-16 -26.081438)
(155.38156 6.0519504e-16 -25.705727)
(154.80315 7.2094523e-17 -25.238)
(154.22844 6.1671811e-16 -24.795382)
(153.67082 -5.210996e-16 -24.313401)
(153.12573 -4.9628888e-16 -23.826847)
(152.59744 4.1282719e-16 -23.317365)
(152.08566 -4.4954153e-16 -22.794915)
(151.59241 4.2757419e-16 -22.255038)
(151.11876 -4.0733787e-16 -21.701022)
(150.66637 2.9045236e-16 -21.132594)
(150.23671 0 -20.551593)
(149.83125 7.030526e-16 -19.959119)
(149.45127 -6.6902484e-16 -19.356914)
(149.09788 -6.3744892e-16 -18.746659)
(148.77199 -3.1736458e-19 -18.130295)
(148.4743 5.778059e-16 -17.509821)
(148.20529 5.5054658e-16 -16.887336)
(147.96517 -5.2414498e-16 -16.264959)
(147.75391 1.2499072e-16 -15.644817)
(147.57125 -4.757032e-16 -15.029009)
(147.41668 7.9300484e-16 -14.419568)
(147.28949 -4.3157067e-16 -13.81846)
(147.18878 -7.1973376e-16 -13.22756)
(147.11354 3.9172788e-16 -12.648469)
(147.06257 0 -12.082801)
(147.03428 -1.779821e-16 -11.532321)
(147.028 -6.7777294e-16 -10.99647)
(147.04219 6.4591021e-16 -10.479016)
(147.07473 7.6935088e-16 -9.9797242)
(147.12494 -7.3350461e-16 -9.4973828)
(147.19086 -2.7938849e-16 -9.0341373)
(147.27106 6.6652243e-16 -8.5891661)
(147.3639 2.5387846e-16 -8.163124)
(147.46772 2.4225698e-16 -7.7554184)
(147.5808 2.3087148e-16 -7.3657118)
(147.70125 -8.2959043e-20 -6.993101)
(147.82706 -6.2927502e-16 -6.6365257)
(147.95612 5.9960837e-16 -6.2946254)
(148.08627 3.8100332e-16 -5.9659679)
(148.21551 -7.2670654e-16 -5.6492254)
(148.34228 3.4622502e-16 -5.3435179)
(148.46573 -6.6021708e-16 -5.0487403)
(148.58601 1.5735277e-15 -4.7658441)
(148.7043 -3.0018315e-16 -4.4968556)
(148.82261 -2.8611418e-16 -4.244531)
(148.94313 -2.7266502e-16 -4.0116378)
(149.06752 0 -3.7999947)
(149.19621 -7.4368509e-16 -3.609609)
(149.32802 -4.7244179e-16 -3.4383412)
(149.46044 1.351734e-15 -3.282304)
(149.59029 4.2944801e-16 -3.136943)
(149.71474 -4.0936606e-16 -2.9983262)
(149.83194 -1.5609557e-15 -2.8640535)
(149.94119 -3.7185167e-16 -2.733365)
(150.04245 3.5468761e-16 -2.6065042)
(150.13533 0 -2.483842)
(150.21821 9.6616176e-16 -2.3652248)
(150.28747 -6.1404486e-16 -2.2502109)
(150.33855 8.7780838e-16 -2.1380948)
(150.36884 -8.3657473e-16 -2.0269622)
(150.3753 1.3463051e-19 -1.9207696)
(150.35542 5.06907e-16 -1.8098887)
(150.33643 2.415249e-16 -1.6817119)
(150.14885 0 -1.6994613)
(150.31863 -2.1934022e-16 -1.1345716)
(149.53336 0 -2.2708788)
(152.29258 -1.3477083e-15 -36.546786)
(163.87015 -3.7586684e-17 -27.54303)
(158.29556 -3.6179329e-17 -35.124621)
(161.16776 -3.3896034e-17 -28.744841)
(158.66564 -3.2198759e-17 -33.038547)
(159.3603 -9.769099e-16 -29.435939)
(158.02849 9.8398904e-16 -31.375671)
(157.90461 5.4877592e-17 -29.50639)
(157.0168 8.8681348e-16 -30.115452)
(156.56861 -6.928481e-16 -29.108597)
(155.85356 -9.4071229e-17 -29.075745)
(155.28707 7.6011913e-16 -28.422374)
(154.63954 -7.2162914e-16 -28.10506)
(154.04346 0 -27.56339)
(153.43171 0 -27.118184)
(152.84446 -6.5714376e-16 -26.589675)
(152.26465 4.1626368e-16 -26.076729)
(151.70435 0 -25.526262)
(151.16032 -5.6558754e-16 -24.966753)
(150.63667 9.5579051e-16 -24.38395)
(150.13374 3.6431868e-19 -23.786084)
(149.65372 -7.5697422e-16 -23.170283)
(149.19796 4.1152592e-16 -22.539685)
(148.76822 -6.8594534e-16 -21.894848)
(148.36603 8.3865729e-16 -21.237977)
(147.99282 -8.8833038e-17 -20.570801)
(147.64978 0 -19.895558)
(147.33783 0 -19.214461)
(147.05761 4.5867344e-16 -18.529903)
(146.80946 2.3780425e-19 -17.844302)
(146.59345 1.3894993e-16 -17.160107)
(146.40933 -1.0551856e-15 -16.479733)
(146.25658 5.0251871e-16 -15.805544)
(146.13443 -4.7823661e-16 -15.1398)
(146.04186 5.6921138e-16 -14.484632)
(145.97763 -4.3353358e-16 -13.842035)
(145.94036 6.1897818e-16 -13.213803)
(145.92857 0 -12.601475)
(145.94049 0 -12.006625)
(145.97442 3.5654836e-16 -11.430354)
(146.02934 -1.6993626e-16 -10.872724)
(146.10176 -8.0875754e-16 -10.336361)
(146.19176 -1.5409807e-16 -9.820659)
(146.29721 1.02761e-15 -9.3244471)
(146.4163 2.7980028e-16 -8.8497703)
(146.5472 -1.0658689e-15 -8.3955745)
(146.6882 0 -7.9620228)
(146.83747 -7.254369e-16 -7.5483162)
(146.99314 4.6096167e-16 -7.1537203)
(147.15326 2.1966842e-16 -6.7770951)
(147.31579 4.1818982e-16 -6.4171605)
(147.47867 -7.9733377e-16 -6.0724956)
(147.63998 7.5951861e-16 -5.7417894)
(147.79816 -1.0859747e-15 -5.4240748)
(147.95225 3.4493456e-16 -5.1190601)
(148.10214 3.286408e-16 -4.8273615)
(148.24867 0 -4.5505805)
(148.39346 0 -4.2910437)
(148.53851 5.6841146e-16 -4.0511815)
(148.68542 5.4153521e-16 -3.832682)
(148.83481 -5.162787e-16 -3.6356715)
(148.98594 4.9144864e-16 -3.4582979)
(149.13677 -4.6833317e-16 -3.2969998)
(149.28456 4.4605741e-16 -3.1474061)
(149.42667 -1.2752959e-15 -3.0055427)
(149.56128 -8.0970525e-16 -2.8687747)
(149.68757 1.1570366e-15 -2.7360689)
(149.8055 3.6726628e-16 -2.6075234)
(149.9152 0 -2.4835292)
(150.01623 6.6615236e-16 -2.3640752)
(150.10699 -6.3448825e-16 -2.2485673)
(150.184 0 -2.1363136)
(150.24288 -5.7525011e-16 -2.0262554)
(150.2804 -5.4773742e-16 -1.9173762)
(150.2916 0 -1.8131247)
(150.28371 0 -1.698183)
(150.255 0 -1.5895704)
(150.10772 -4.5043322e-16 -1.5585973)
(150.24028 0 -1.0848528)
(149.48899 -7.7416452e-16 -2.0896626)
(150.49427 -4.2742096e-17 -38.775352)
(162.05798 0 -29.439261)
(156.30345 -1.1382166e-15 -37.193019)
(159.23217 1.1372849e-15 -30.680194)
(156.65833 0 -34.954392)
(157.34294 -9.9248673e-16 -31.341309)
(155.98528 8.8141785e-16 -33.179314)
(155.832 0 -31.323513)
(154.9288 7.9422653e-16 -31.822487)
(154.45214 -8.5369261e-16 -30.806238)
(153.72271 4.7636681e-17 -30.677826)
(153.13391 6.8015546e-16 -29.986007)
(152.47329 -8.5580975e-17 -29.584531)
(151.86225 -5.7221635e-16 -28.983394)
(151.24154 5.443877e-16 -28.457733)
(150.64709 7.4592764e-17 -27.85685)
(150.06495 -4.9155134e-16 -27.262391)
(149.50601 0 -26.63194)
(148.96827 6.3384616e-17 -25.988491)
(148.45576 1.8121494e-16 -25.321592)
(147.96939 -1.150034e-16 -24.638221)
(147.51146 -2.1833118e-16 -23.937072)
(147.08354 0 -23.221413)
(146.6874 9.8889103e-17 -22.492707)
(146.32446 -9.3731207e-17 -21.753679)
(145.99597 8.9148919e-17 -21.006749)
(145.70281 0 -20.254708)
(145.4455 -1.6182159e-16 -19.500313)
(145.22421 -4.6136957e-16 -18.746406)
(145.03875 4.3826661e-16 -17.995789)
(144.88858 -1.3889781e-16 -17.251213)
(144.77285 0 -16.515312)
(144.69042 3.7791946e-16 -15.790583)
(144.63986 -5.9917966e-16 -15.079335)
(144.61956 1.14419e-16 -14.38367)
(144.62769 -2.1726122e-16 -13.705466)
(144.66233 4.1308268e-16 -13.04632)