/*--------------------------------*- C++ -*----------------------------------*\
| =========                 |                                                 |
| \\      /  F ield         | OpenFOAM: The Open Source CFD Toolbox           |
|  \\    /   O peration     | Version:  2312                                  |
|   \\  /    A nd           | Website:  www.openfoam.com                      |
|    \\/     M anipulation  |                                                 |
\*---------------------------------------------------------------------------*/
FoamFile
{
    version     2.0;
    format      ascii;
    arch        "LSB;label=32;scalar=64";
    class       volVectorField;
    location    "0";
    object      U;
}
// * * * * * * * * * * * * * * * * * * * * * * * * * * * * * * * * * * * * * //

dimensions      [0 1 -1 0 0 0 0];

internalField   nonuniform List<vector> 
9000
(
(0.584671 0.128014 0)
(0.460288 0.0607574 0)
(0.284464 0.0197123 0)
(0.201678 0.00907597 0)
(0.156765 0.00455942 0)
(0.129741 0.00248031 0)
(0.112497 0.00147179 0)
(0.100996 0.000930214 0)
(0.0930915 0.000611651 0)
(0.0875637 0.00041147 0)
(0.0836636 0.000279809 0)
(0.0809039 0.000190702 0)
(0.0789542 0.000129423 0)
(0.0775836 8.69848e-05 0)
(0.0766277 5.75871e-05 0)
(0.075968 3.73279e-05 0)
(0.0755186 2.35092e-05 0)
(0.0752174 1.42312e-05 0)
(0.0750192 8.1428e-06 0)
(0.0748915 4.27887e-06 0)
(0.074811 1.9503e-06 0)
(0.0747611 6.66917e-07 0)
(0.0747303 8.23252e-08 0)
(0.0747106 -4.61769e-08 0)
(0.0746966 1.12966e-07 0)
(0.0746847 4.43816e-07 0)
(0.0746728 8.66816e-07 0)
(0.0746599 1.32677e-06 0)
(0.0746454 1.78382e-06 0)
(0.0746298 2.20653e-06 0)
(0.0746139 2.56645e-06 0)
(0.0745993 2.83351e-06 0)
(0.0745879 2.97186e-06 0)
(0.074583 2.93552e-06 0)
(0.0745885 2.66339e-06 0)
(0.0746099 2.07281e-06 0)
(0.0746549 1.0504e-06 0)
(0.0747336 -5.61993e-07 0)
(0.0748603 -2.99076e-06 0)
(0.0750547 -6.57445e-06 0)
(0.0753455 -1.18567e-05 0)
(0.0757753 -1.98126e-05 0)
(0.0764103 -3.24805e-05 0)
(0.0773604 -5.48043e-05 0)
(0.0788248 -0.000100341 0)
(0.0812114 -0.000214698 0)
(0.0854269 -0.000573676 0)
(0.0933238 -0.00159912 0)
(0.114371 -0.00652224 0)
(0.166608 -0.0470715 0)
(0.939123 0.304182 0)
(0.851325 0.221377 0)
(0.648673 0.124667 0)
(0.513601 0.0714558 0)
(0.423069 0.0427789 0)
(0.361652 0.0269835 0)
(0.319344 0.0178066 0)
(0.289717 0.0121386 0)
(0.268693 0.00845005 0)
(0.25365 0.00595389 0)
(0.242844 0.00421838 0)
(0.235078 0.00299083 0)
(0.229512 0.00211411 0)
(0.225543 0.00148538 0)
(0.222733 0.0010346 0)
(0.220762 0.000712614 0)
(0.219394 0.000484196 0)
(0.218457 0.000323756 0)
(0.217824 0.00021256 0)
(0.217403 0.000136848 0)
(0.217127 8.65047e-05 0)
(0.216948 5.41179e-05 0)
(0.216832 3.4271e-05 0)
(0.216755 2.30223e-05 0)
(0.2167 1.75102e-05 0)
(0.216657 1.56531e-05 0)
(0.216619 1.59207e-05 0)
(0.216582 1.71564e-05 0)
(0.216546 1.84378e-05 0)
(0.216511 1.89641e-05 0)
(0.21648 1.79593e-05 0)
(0.216458 1.45826e-05 0)
(0.216452 7.83714e-06 0)
(0.216471 -3.53587e-06 0)
(0.21653 -2.11908e-05 0)
(0.216646 -4.73633e-05 0)
(0.216844 -8.51449e-05 0)
(0.217158 -0.000138911 0)
(0.217633 -0.000215026 0)
(0.218336 -0.000323064 0)
(0.219359 -0.000478057 0)
(0.220843 -0.000704942 0)
(0.223 -0.00104802 0)
(0.226174 -0.00159274 0)
(0.230947 -0.00251964 0)
(0.238373 -0.0042494 0)
(0.250457 -0.00785854 0)
(0.270929 -0.0161993 0)
(0.310246 -0.0373092 0)
(0.381873 -0.102752 0)
(1.01821 0.310928 0)
(1.00802 0.307132 0)
(0.86602 0.217564 0)
(0.738842 0.145114 0)
(0.636644 0.0965272 0)
(0.559675 0.0653568 0)
(0.502949 0.0451809 0)
(0.461392 0.0317687 0)
(0.430969 0.0226004 0)
(0.408701 0.0161859 0)
(0.392422 0.011621 0)
(0.380553 0.00833611 0)
(0.371938 0.00595781 0)
(0.365722 0.00423247 0)
(0.36127 0.00298249 0)
(0.358109 0.00208069 0)
(0.355888 0.00143445 0)
(0.354345 0.000975643 0)
(0.353285 0.000653826 0)
(0.352567 0.000431587 0)
(0.352086 0.00028118 0)
(0.351765 0.000182084 0)
(0.351552 0.000119165 0)
(0.351407 8.13034e-05 0)
(0.351305 6.03358e-05 0)
(0.351226 5.02492e-05 0)
(0.351162 4.65568e-05 0)
(0.351105 4.58094e-05 0)
(0.351053 4.5207e-05 0)
(0.351009 4.22785e-05 0)
(0.350977 3.46031e-05 0)
(0.350966 1.95473e-05 0)
(0.350987 -6.0109e-06 0)
(0.351059 -4.60028e-05 0)
(0.351203 -0.000105582 0)
(0.351452 -0.000191699 0)
(0.351848 -0.00031395 0)
(0.352448 -0.000485897 0)
(0.353332 -0.000727209 0)
(0.35461 -0.00106731 0)
(0.35644 -0.00155185 0)
(0.359052 -0.0022549 0)
(0.36279 -0.00330297 0)
(0.368189 -0.00492504 0)
(0.376104 -0.00756203 0)
(0.387945 -0.0121172 0)
(0.406074 -0.0205451 0)
(0.434156 -0.0371791 0)
(0.478831 -0.0715713 0)
(0.543687 -0.14719 0)
(1.03067 0.271657 0)
(1.06606 0.341927 0)
(0.987677 0.285795 0)
(0.891296 0.21301 0)
(0.798876 0.153196 0)
(0.72157 0.109507 0)
(0.660458 0.0785808 0)
(0.613461 0.0567129 0)
(0.577844 0.0411123 0)
(0.551099 0.0298662 0)
(0.531159 0.0216892 0)
(0.516389 0.0157101 0)
(0.505523 0.0113268 0)
(0.497588 0.00811433 0)
(0.491841 0.00576629 0)
(0.487716 0.0040586 0)
(0.484785 0.00282535 0)
(0.482723 0.0019429 0)
(0.481289 0.00131874 0)
(0.480302 0.000883614 0)
(0.479629 0.000585775 0)
(0.479173 0.000386641 0)
(0.478864 0.000257565 0)
(0.478651 0.000177331 0)
(0.478499 0.00013024 0)
(0.478386 0.000104623 0)
(0.478297 9.16763e-05 0)
(0.478223 8.45538e-05 0)
(0.478162 7.76246e-05 0)
(0.478118 6.58619e-05 0)
(0.478096 4.4302e-05 0)
(0.47811 7.52689e-06 0)
(0.478175 -5.08833e-05 0)
(0.478318 -0.000138992 0)
(0.47857 -0.000267336 0)
(0.478976 -0.00045007 0)
(0.479594 -0.000706655 0)
(0.480505 -0.00106445 0)
(0.481818 -0.00156283 0)
(0.483684 -0.0022601 0)
(0.486313 -0.00324528 0)
(0.490008 -0.00465938 0)
(0.495203 -0.00673481 0)
(0.502547 -0.00987123 0)
(0.513005 -0.0147851 0)
(0.528023 -0.0228089 0)
(0.549698 -0.0364811 0)
(0.580601 -0.0606162 0)
(0.623415 -0.103699 0)
(0.675744 -0.179881 0)
(1.02766 0.231658 0)
(1.08142 0.345964 0)
(1.05133 0.325547 0)
(0.989777 0.26448 0)
(0.917438 0.202759 0)
(0.84969 0.151847 0)
(0.791973 0.112703 0)
(0.745201 0.0833664 0)
(0.708386 0.0615521 0)
(0.679949 0.0453492 0)
(0.658279 0.0333064 0)
(0.641946 0.0243535 0)
(0.629756 0.0177052 0)
(0.620741 0.0127816 0)
(0.614138 0.00915123 0)
(0.609348 0.00649036 0)
(0.605906 0.00455493 0)
(0.603459 0.0031603 0)
(0.601737 0.00216675 0)
(0.600536 0.00146866 0)
(0.599706 0.000986451 0)
(0.599135 0.000660356 0)
(0.598742 0.000445682 0)
(0.598467 0.000309101 0)
(0.598271 0.000225767 0)
(0.598126 0.000177058 0)
(0.598015 0.000148797 0)
(0.597929 0.000129832 0)
(0.597865 0.000110893 0)
(0.597827 8.36131e-05 0)
(0.597824 3.96735e-05 0)
(0.597872 -3.00352e-05 0)
(0.597993 -0.0001363 0)
(0.598218 -0.000292629 0)
(0.598589 -0.000516599 0)
(0.59916 -0.000831699 0)
(0.600007 -0.00127002 0)
(0.601228 -0.0018763 0)
(0.602956 -0.0027143 0)
(0.605373 -0.00387704 0)
(0.608728 -0.00550388 0)
(0.613364 -0.00780972 0)
(0.619763 -0.011136 0)
(0.628596 -0.0160414 0)
(0.640799 -0.0234643 0)
(0.657617 -0.0350053 0)
(0.680569 -0.0533929 0)
(0.710933 -0.0831106 0)
(0.74862 -0.130595 0)
(0.788738 -0.203199 0)
(1.02149 0.196495 0)
(1.07917 0.332758 0)
(1.08155 0.342235 0)
(1.05088 0.297939 0)
(1.00157 0.240986 0)
(0.948572 0.187989 0)
(0.899428 0.143889 0)
(0.857225 0.10894 0)
(0.822586 0.0818788 0)
(0.79498 0.0611704 0)
(0.77343 0.0454318 0)
(0.756874 0.0335309 0)
(0.744321 0.0245754 0)
(0.734914 0.0178721 0)
(0.727941 0.0128854 0)
(0.722827 0.00920225 0)
(0.719114 0.00650463 0)
(0.716446 0.004548 0)
(0.714548 0.00314493 0)
(0.713209 0.00215227 0)
(0.712271 0.00146122 0)
(0.711617 0.000989442 0)
(0.71116 0.000674946 0)
(0.710837 0.000471178 0)
(0.710606 0.000343187 0)
(0.710436 0.000264572 0)
(0.710309 0.00021505 0)
(0.710215 0.000178506 0)
(0.710152 0.000141395 0)
(0.710126 9.13721e-05 0)
(0.710148 1.60754e-05 0)
(0.710236 -9.807e-05 0)
(0.710417 -0.000267126 0)
(0.710728 -0.000511139 0)
(0.711218 -0.000856057 0)
(0.711952 -0.00133633 0)
(0.713016 -0.00199866 0)
(0.714522 -0.00290748 0)
(0.716621 -0.00415348 0)
(0.719514 -0.00586676 0)
(0.723467 -0.00823805 0)
(0.72884 -0.0115531 0)
(0.736109 -0.0162495 0)
(0.745904 -0.0230089 0)
(0.759023 -0.032907 0)
(0.776396 -0.0476382 0)
(0.798893 -0.0698073 0)
(0.826707 -0.103152 0)
(0.858175 -0.152059 0)
(0.887924 -0.2196 0)
(1.01582 0.16657 0)
(1.07092 0.31068 0)
(1.09342 0.342389 0)
(1.08722 0.315332 0)
(1.05982 0.266866 0)
(1.02339 0.215745 0)
(0.985703 0.1698 0)
(0.951012 0.131379 0)
(0.921122 0.100438 0)
(0.896434 0.0760563 0)
(0.87663 0.0571104 0)
(0.861084 0.0425376 0)
(0.84909 0.0314233 0)
(0.83997 0.023014 0)
(0.833124 0.0167022 0)
(0.828044 0.0120049 0)
(0.824316 0.00854116 0)
(0.821609 0.00601319 0)
(0.819661 0.00418941 0)
(0.818271 0.00289104 0)
(0.817286 0.00198095 0)
(0.81659 0.00135457 0)
(0.816096 0.000932601 0)
(0.815745 0.000655086 0)
(0.81549 0.000476699 0)
(0.815303 0.000362936 0)
(0.815166 0.000287055 0)
(0.815069 0.000227596 0)
(0.815013 0.000166323 0)
(0.815002 8.64569e-05 0)
(0.815051 -2.89234e-05 0)
(0.815181 -0.000198452 0)
(0.815423 -0.000444155 0)
(0.815817 -0.000793419 0)
(0.816419 -0.00128148 0)
(0.8173 -0.00195479 0)
(0.818554 -0.00287568 0)
(0.820303 -0.00412923 0)
(0.822705 -0.0058334 0)
(0.825968 -0.00815439 0)
(0.83036 -0.0113302 0)
(0.836227 -0.015707 0)
(0.844007 -0.0217952 0)
(0.854234 -0.0303532 0)
(0.867519 -0.0425078 0)
(0.884442 -0.0599043 0)
(0.905301 -0.0848366 0)
(0.92953 -0.120184 0)
(0.954762 -0.168649 0)
(0.976077 -0.230816 0)
(1.0115 0.141656 0)
(1.06166 0.284727 0)
(1.09577 0.331358 0)
(1.1077 0.31958 0)
(1.09928 0.281025 0)
(1.0791 0.234385 0)
(1.05401 0.189147 0)
(1.02852 0.149304 0)
(1.00514 0.115982 0)
(0.984942 0.0889688 0)
(0.9682 0.067517 0)
(0.95472 0.0507359 0)
(0.944107 0.037766 0)
(0.9359 0.0278471 0)
(0.92965 0.0203363 0)
(0.924953 0.0147048 0)
(0.921465 0.0105251 0)
(0.918903 0.00745642 0)
(0.917038 0.00523001 0)
(0.915692 0.00363599 0)
(0.914725 0.00251182 0)
(0.914031 0.0017326 0)
(0.913534 0.00120291 0)
(0.913174 0.000850131 0)
(0.912911 0.000618964 0)
(0.912717 0.000466999 0)
(0.912577 0.000361072 0)
(0.912483 0.0002743 0)
(0.912436 0.000183589 0)
(0.912443 6.74794e-05 0)
(0.912519 -9.58244e-05 0)
(0.91269 -0.000330392 0)
(0.912987 -0.000664644 0)
(0.913456 -0.00113377 0)
(0.914154 -0.00178276 0)
(0.915158 -0.00267042 0)
(0.916565 -0.00387485 0)
(0.918499 -0.00550131 0)
(0.92112 -0.00769344 0)
(0.924631 -0.0106497 0)
(0.929285 -0.0146476 0)
(0.935395 -0.0200787 0)
(0.943331 -0.0274988 0)
(0.953511 -0.0376968 0)
(0.966337 -0.0517779 0)
(0.982071 -0.0712426 0)
(1.00057 -0.0979917 0)
(1.02081 -0.1341 0)
(1.04026 -0.181022 0)
(1.05477 -0.238002 0)
(1.00843 0.12099 0)
(1.05327 0.257636 0)
(1.09354 0.313069 0)
(1.11834 0.31361 0)
(1.12544 0.284865 0)
(1.12005 0.244116 0)
(1.10748 0.201446 0)
(1.0919 0.161935 0)
(1.07603 0.127676 0)
(1.06139 0.0991373 0)
(1.04869 0.0759943 0)
(1.03811 0.0575915 0)
(1.02956 0.0431823 0)
(1.0228 0.0320466 0)
(1.01757 0.0235417 0)
(1.01357 0.0171184 0)
(1.01056 0.0123211 0)
(1.00832 0.00877905 0)
(1.00666 0.00619569 0)
(1.00545 0.00433649 0)
(1.00457 0.00301813 0)
(1.00393 0.00209859 0)
(1.00346 0.00146858 0)
(1.00311 0.00104437 0)
(1.00286 0.000761759 0)
(1.00267 0.000571106 0)
(1.00253 0.000433253 0)
(1.00245 0.000316119 0)
(1.00241 0.000191839 0)
(1.00244 3.42498e-05 0)
(1.00254 -0.000183412 0)
(1.00274 -0.000490793 0)
(1.00309 -0.00092286 0)
(1.00362 -0.00152272 0)
(1.00439 -0.00234511 0)
(1.00549 -0.00346091 0)
(1.007 -0.00496327 0)
(1.00905 -0.00697599 0)
(1.0118 -0.00966524 0)
(1.01543 -0.013256 0)
(1.02017 -0.0180553 0)
(1.02628 -0.024483 0)
(1.03405 -0.0331139 0)
(1.04378 -0.0447269 0)
(1.05566 -0.0603536 0)
(1.06971 -0.0812971 0)
(1.08547 -0.109055 0)
(1.10169 -0.145026 0)
(1.11597 -0.189796 0)
(1.12495 -0.241965 0)
(1.0063 0.103671 0)
(1.04627 0.230788 0)
(1.0894 0.290258 0)
(1.12303 0.299972 0)
(1.1424 0.280044 0)
(1.14983 0.245683 0)
(1.14896 0.20678 0)
(1.14325 0.168976 0)
(1.13531 0.135053 0)
(1.12683 0.106055 0)
(1.11881 0.0820674 0)
(1.11172 0.0626922 0)
(1.10575 0.0473314 0)
(1.10087 0.0353401 0)
(1.09699 0.0261056 0)
(1.09396 0.0190828 0)
(1.09164 0.0138063 0)
(1.08987 0.00988986 0)
(1.08855 0.00701948 0)
(1.08756 0.00494395 0)
(1.08682 0.00346498 0)
(1.08627 0.0024277 0)
(1.08586 0.0017121 0)
(1.08555 0.00122558 0)
(1.08532 0.000896637 0)
(1.08515 0.000669534 0)
(1.08502 0.000499896 0)
(1.08495 0.000350966 0)
(1.08493 0.000190435 0)
(1.08497 -1.23556e-05 0)
(1.08509 -0.000289015 0)
(1.08533 -0.000674669 0)
(1.08571 -0.00121071 0)
(1.08628 -0.00194793 0)
(1.08711 -0.00295037 0)
(1.08826 -0.00430018 0)
(1.08983 -0.00610406 0)
(1.09193 -0.00850183 0)
(1.09471 -0.011678 0)
(1.09833 -0.0158772 0)
(1.10298 -0.021425 0)
(1.10887 -0.0287536 0)
(1.11621 -0.038433 0)
(1.12515 -0.0512019 0)
(1.13576 -0.0679854 0)
(1.14782 -0.0898708 0)
(1.16069 -0.117986 0)
(1.17307 -0.153194 0)
(1.1828 -0.195513 0)
(1.18725 -0.243296 0)
(1.00483 0.0889071 0)
(1.04068 0.204811 0)
(1.08475 0.264748 0)
(1.1243 0.280714 0)
(1.1531 0.268184 0)
(1.17128 0.240077 0)
(1.1809 0.20559 0)
(1.18454 0.170484 0)
(1.18447 0.137946 0)
(1.18236 0.109453 0)
(1.17934 0.0854388 0)
(1.17611 0.065754 0)
(1.17306 0.0499631 0)
(1.17037 0.0375179 0)
(1.16811 0.0278585 0)
(1.16625 0.0204642 0)
(1.16477 0.0148775 0)
(1.16361 0.0107104 0)
(1.16271 0.00764268 0)
(1.16201 0.00541498 0)
(1.16148 0.00382067 0)
(1.16106 0.00269704 0)
(1.16074 0.0019171 0)
(1.16049 0.00138219 0)
(1.1603 0.00101556 0)
(1.16015 0.000756897 0)
(1.16004 0.000557681 0)
(1.15998 0.000377253 0)
(1.15997 0.000179423 0)
(1.16003 -7.05563e-05 0)
(1.16017 -0.000408804 0)
(1.16043 -0.000875607 0)
(1.16083 -0.0015184 0)
(1.16143 -0.00239512 0)
(1.16228 -0.00357831 0)
(1.16344 -0.0051601 0)
(1.16501 -0.00725873 0)
(1.1671 -0.0100269 0)
(1.16982 -0.0136626 0)
(1.1733 -0.0184231 0)
(1.17771 -0.024642 0)
(1.1832 -0.0327494 0)
(1.18988 -0.0432918 0)
(1.19782 -0.0569472 0)
(1.20692 -0.0745184 0)
(1.21683 -0.0968813 0)
(1.22684 -0.124845 0)
(1.23565 -0.158872 0)
(1.24143 -0.198629 0)
(1.24209 -0.242435 0)
(1.00381 0.0760724 0)
(1.03631 0.179921 0)
(1.08027 0.23772 0)
(1.12368 0.257412 0)
(1.15962 0.250726 0)
(1.18659 0.228356 0)
(1.20533 0.198518 0)
(1.21751 0.166762 0)
(1.22491 0.136428 0)
(1.22905 0.109265 0)
(1.2311 0.0859724 0)
(1.23188 0.0666171 0)
(1.23194 0.0509197 0)
(1.23161 0.0384381 0)
(1.23112 0.0286794 0)
(1.23059 0.0211636 0)
(1.23007 0.0154558 0)
(1.22961 0.0111792 0)
(1.2292 0.00801816 0)
(1.22885 0.00571402 0)
(1.22856 0.00405871 0)
(1.22831 0.0028871 0)
(1.2281 0.0020694 0)
(1.22793 0.00150405 0)
(1.22778 0.00111146 0)
(1.22767 0.000828514 0)
(1.22758 0.000603874 0)
(1.22754 0.000393971 0)
(1.22755 0.000159477 0)
(1.22762 -0.000137846 0)
(1.22777 -0.000538106 0)
(1.22804 -0.00108623 0)
(1.22845 -0.00183509 0)
(1.22905 -0.002849 0)
(1.22989 -0.00420784 0)
(1.23103 -0.00601215 0)
(1.23256 -0.00838932 0)
(1.23455 -0.0115015 0)
(1.23712 -0.0155553 0)
(1.24037 -0.0208136 0)
(1.24441 -0.0276088 0)
(1.24934 -0.0363569 0)
(1.2552 -0.0475681 0)
(1.26196 -0.0618474 0)
(1.26942 -0.0798722 0)
(1.27716 -0.102325 0)
(1.28441 -0.129754 0)
(1.28998 -0.162332 0)
(1.29231 -0.199521 0)
(1.2898 -0.239722 0)
(1.00311 0.0646881 0)
(1.03292 0.156129 0)
(1.07627 0.209913 0)
(1.12213 0.231237 0)
(1.16339 0.228889 0)
(1.19744 0.211538 0)
(1.22391 0.186294 0)
(1.24363 0.158267 0)
(1.25788 0.130742 0)
(1.26794 0.105586 0)
(1.2749 0.0836723 0)
(1.27964 0.0652356 0)
(1.28283 0.0501333 0)
(1.28493 0.0380271 0)
(1.28629 0.0284989 0)
(1.28714 0.0211199 0)
(1.28765 0.0154897 0)
(1.28794 0.0112544 0)
(1.28807 0.0081128 0)
(1.28811 0.00581533 0)
(1.28809 0.0041594 0)
(1.28803 0.00298303 0)
(1.28795 0.00215797 0)
(1.28786 0.00158315 0)
(1.28777 0.00117872 0)
(1.28769 0.000880712 0)
(1.28764 0.000636494 0)
(1.28761 0.00040072 0)
(1.28763 0.000131824 0)
(1.28771 -0.000211177 0)
(1.28787 -0.000671713 0)
(1.28814 -0.00129867 0)
(1.28854 -0.00214955 0)
(1.28912 -0.00329406 0)
(1.28993 -0.00481811 0)
(1.29101 -0.00682879 0)
(1.29244 -0.00946015 0)
(1.29429 -0.0128803 0)
(1.29664 -0.0172997 0)
(1.29956 -0.0229806 0)
(1.30313 -0.0302465 0)
(1.30738 -0.0394905 0)
(1.3123 -0.0511778 0)
(1.31778 -0.065836 0)
(1.32356 -0.0840221 0)
(1.32916 -0.10625 0)
(1.33382 -0.132861 0)
(1.33647 -0.163827 0)
(1.33581 -0.198506 0)
(1.33061 -0.235428 0)
(1.00262 0.0543927 0)
(1.03031 0.133341 0)
(1.07285 0.181773 0)
(1.12023 0.203045 0)
(1.16541 0.203674 0)
(1.20506 0.190554 0)
(1.23794 0.169669 0)
(1.26416 0.145544 0)
(1.2845 0.121249 0)
(1.29994 0.0986355 0)
(1.31148 0.0786587 0)
(1.31999 0.061664 0)
(1.3262 0.0476182 0)
(1.33067 0.0362773 0)
(1.33385 0.0272982 0)
(1.3361 0.0203104 0)
(1.33765 0.0149568 0)
(1.3387 0.0109156 0)
(1.33939 0.00790898 0)
(1.33983 0.00570424 0)
(1.34009 0.00411091 0)
(1.34023 0.00297548 0)
(1.34029 0.00217559 0)
(1.34029 0.00161408 0)
(1.34027 0.00121348 0)
(1.34023 0.000911051 0)
(1.34021 0.000654424 0)
(1.3402 0.000397728 0)
(1.34023 9.81628e-05 0)
(1.34031 -0.000287155 0)
(1.34047 -0.000804182 0)
(1.34073 -0.00150495 0)
(1.34111 -0.00245069 0)
(1.34165 -0.00371535 0)
(1.3424 -0.00538943 0)
(1.34339 -0.00758464 0)
(1.34468 -0.0104391 0)
(1.34633 -0.0141236 0)
(1.34839 -0.0188481 0)
(1.35092 -0.024869 0)
(1.35393 -0.0324949 0)
(1.35742 -0.04209 0)
(1.36133 -0.05407 0)
(1.36549 -0.0688856 0)
(1.36959 -0.0869838 0)
(1.37314 -0.108737 0)
(1.3754 -0.134327 0)
(1.37545 -0.163591 0)
(1.3722 -0.195849 0)
(1.36469 -0.229776 0)
(1.00228 0.0449135 0)
(1.02833 0.111423 0)
(1.07003 0.153556 0)
(1.11831 0.173451 0)
(1.16634 0.175881 0)
(1.21035 0.166223 0)
(1.24844 0.149368 0)
(1.28012 0.12918 0)
(1.3057 0.10839 0)
(1.32589 0.0887284 0)
(1.34153 0.0711454 0)
(1.35348 0.056042 0)
(1.36247 0.0434623 0)
(1.36916 0.0332412 0)
(1.37408 0.0251072 0)
(1.37764 0.0187504 0)
(1.38019 0.0138634 0)
(1.38199 0.010164 0)
(1.38322 0.00740507 0)
(1.38406 0.00537782 0)
(1.3846 0.0039098 0)
(1.38493 0.00286107 0)
(1.38513 0.00211925 0)
(1.38523 0.00159436 0)
(1.38527 0.00121392 0)
(1.38528 0.000918451 0)
(1.38529 0.000657461 0)
(1.3853 0.000385825 0)
(1.38534 6.05537e-05 0)
(1.38542 -0.000362217 0)
(1.38557 -0.00093011 0)
(1.3858 -0.00169741 0)
(1.38615 -0.00272808 0)
(1.38664 -0.00409908 0)
(1.3873 -0.00590401 0)
(1.38817 -0.00825727 0)
(1.38929 -0.0112987 0)
(1.3907 -0.0151985 0)
(1.39242 -0.0201627 0)
(1.39448 -0.0264375 0)
(1.39688 -0.0343122 0)
(1.39957 -0.0441186 0)
(1.40243 -0.0562217 0)
(1.40527 -0.0709995 0)
(1.40774 -0.0888018 0)
(1.40935 -0.109884 0)
(1.40944 -0.134312 0)
(1.40718 -0.161835 0)
(1.40169 -0.191776 0)
(1.3922 -0.222952 0)
(1.00203 0.0360433 0)
(1.02684 0.0902266 0)
(1.06777 0.125398 0)
(1.11657 0.142894 0)
(1.16665 0.146153 0)
(1.21398 0.139257 0)
(1.25619 0.126074 0)
(1.29231 0.109769 0)
(1.32225 0.0926527 0)
(1.34647 0.0762442 0)
(1.36565 0.0614184 0)
(1.3806 0.0485795 0)
(1.39206 0.0378162 0)
(1.40073 0.029025 0)
(1.4072 0.0219993 0)
(1.41196 0.01649 0)
(1.41542 0.0122432 0)
(1.4179 0.00902159 0)
(1.41964 0.00661516 0)
(1.42083 0.00484471 0)
(1.42164 0.00356112 0)
(1.42217 0.00264252 0)
(1.42249 0.00199024 0)
(1.42269 0.00152451 0)
(1.42279 0.00118027 0)
(1.42284 0.000903233 0)
(1.42287 0.000646311 0)
(1.4229 0.000366378 0)
(1.42294 2.1305e-05 0)
(1.42302 -0.000432819 0)
(1.42316 -0.00104439 0)
(1.42336 -0.00186901 0)
(1.42366 -0.00297233 0)
(1.42408 -0.00443311 0)
(1.42464 -0.00634654 0)
(1.42536 -0.0088279 0)
(1.42628 -0.0120164 0)
(1.4274 -0.0160793 0)
(1.42876 -0.0212152 0)
(1.43032 -0.0276573 0)
(1.43207 -0.0356728 0)
(1.43393 -0.0455592 0)
(1.43574 -0.0576324 0)
(1.43728 -0.0722037 0)
(1.43821 -0.0895397 0)
(1.43804 -0.109803 0)
(1.43616 -0.132973 0)
(1.43187 -0.15875 0)
(1.42443 -0.18648 0)
(1.41325 -0.21512 0)
(1.00187 0.0276212 0)
(1.02574 0.0696057 0)
(1.06602 0.0973567 0)
(1.1151 0.111686 0)
(1.16663 0.114997 0)
(1.21641 0.11027 0)
(1.26178 0.10042 0)
(1.30136 0.0878999 0)
(1.33479 0.0745489 0)
(1.36226 0.0616084 0)
(1.38434 0.0498186 0)
(1.40177 0.0395421 0)
(1.41529 0.0308826 0)
(1.42563 0.0237807 0)
(1.43342 0.0180868 0)
(1.43921 0.0136109 0)
(1.44345 0.0101546 0)
(1.44652 0.0075297 0)
(1.44869 0.00556794 0)
(1.45021 0.00412449 0)
(1.45125 0.00307798 0)
(1.45194 0.0023284 0)
(1.45239 0.00179404 0)
(1.45266 0.001408 0)
(1.45282 0.0011148 0)
(1.45292 0.000867058 0)
(1.45297 0.000622515 0)
(1.45301 0.000341199 0)
(1.45306 -1.71565e-05 0)
(1.45313 -0.000495602 0)
(1.45324 -0.00114242 0)
(1.45341 -0.0020136 0)
(1.45365 -0.00317545 0)
(1.45398 -0.00470733 0)
(1.45442 -0.0067046 0)
(1.45498 -0.0092817 0)
(1.45567 -0.0125753 0)
(1.45649 -0.0167473 0)
(1.45745 -0.021987 0)
(1.4585 -0.0285119 0)
(1.45959 -0.0365656 0)
(1.46061 -0.0464117 0)
(1.4614 -0.0583196 0)
(1.4617 -0.0725413 0)
(1.46118 -0.0892735 0)
(1.45937 -0.108607 0)
(1.45574 -0.130458 0)
(1.44967 -0.154507 0)
(1.44056 -0.180135 0)
(1.42793 -0.206423 0)
(1.00175 0.0195194 0)
(1.02497 0.0494209 0)
(1.06476 0.0694407 0)
(1.11397 0.0800498 0)
(1.16647 0.0828257 0)
(1.21799 0.0797948 0)
(1.26563 0.0729871 0)
(1.30777 0.0641452 0)
(1.34378 0.0546024 0)
(1.37371 0.0452761 0)
(1.39801 0.0367263 0)
(1.41735 0.0292384 0)
(1.43247 0.0229055 0)
(1.44411 0.0176974 0)
(1.45293 0.0135136 0)
(1.45953 0.010221 0)
(1.46439 0.00767732 0)
(1.46792 0.00574634 0)
(1.47045 0.00430496 0)
(1.47223 0.00324647 0)
(1.47345 0.00248068 0)
(1.47428 0.00193254 0)
(1.47482 0.00153991 0)
(1.47517 0.00125096 0)
(1.47538 0.00102158 0)
(1.4755 0.000812781 0)
(1.47557 0.000588323 0)
(1.47562 0.000312422 0)
(1.47567 -5.24199e-05 0)
(1.47573 -0.00054755 0)
(1.47581 -0.00122029 0)
(1.47594 -0.00212615 0)
(1.47611 -0.00333107 0)
(1.47635 -0.0049139 0)
(1.47666 -0.00696884 0)
(1.47704 -0.00960803 0)
(1.47749 -0.0129639 0)
(1.478 -0.0171913 0)
(1.47854 -0.0224682 0)
(1.47907 -0.0289953 0)
(1.4795 -0.0369923 0)
(1.47971 -0.0466898 0)
(1.47951 -0.0583147 0)
(1.47865 -0.0720673 0)
(1.4768 -0.0880871 0)
(1.47352 -0.106409 0)
(1.46834 -0.12691 0)
(1.46072 -0.149261 0)
(1.45017 -0.17289 0)
(1.43632 -0.196988 0)
(1.00168 0.0116323 0)
(1.02448 0.0295406 0)
(1.06393 0.0416308 0)
(1.11321 0.048145 0)
(1.16631 0.0499769 0)
(1.21893 0.0483015 0)
(1.26804 0.0443152 0)
(1.31186 0.0390593 0)
(1.34959 0.0333404 0)
(1.38117 0.027721 0)
(1.40696 0.0225497 0)
(1.42759 0.0180083 0)
(1.4438 0.0141605 0)
(1.45633 0.0109934 0)
(1.46587 0.00844935 0)
(1.47303 0.00644952 0)
(1.47832 0.0049084 0)
(1.48218 0.00374316 0)
(1.48495 0.00287836 0)
(1.48691 0.00224798 0)
(1.48827 0.00179552 0)
(1.48919 0.00147316 0)
(1.48981 0.00124028 0)
(1.4902 0.00106176 0)
(1.49045 0.000906225 0)
(1.4906 0.000744226 0)
(1.49068 0.000546521 0)
(1.49074 0.000282357 0)
(1.49078 -8.22281e-05 0)
(1.49082 -0.000586127 0)
(1.49088 -0.00127495 0)
(1.49096 -0.00220286 0)
(1.49106 -0.00343458 0)
(1.4912 -0.00504738 0)
(1.49137 -0.00713316 0)
(1.49156 -0.00980045 0)
(1.49176 -0.0131761 0)
(1.49195 -0.0174065 0)
(1.49209 -0.0226572 0)
(1.4921 -0.0291114 0)
(1.49189 -0.0369653 0)
(1.49132 -0.0464185 0)
(1.4902 -0.0576598 0)
(1.48827 -0.0708454 0)
(1.4852 -0.0860685 0)
(1.48062 -0.103322 0)
(1.47408 -0.122459 0)
(1.46513 -0.143154 0)
(1.45337 -0.164884 0)
(1.43849 -0.186936 0)
(1.00165 0.00386858 0)
(1.02424 0.00984014 0)
(1.06353 0.0138903 0)
(1.11282 0.0160937 0)
(1.16621 0.0167401 0)
(1.21937 0.0162146 0)
(1.26921 0.0149127 0)
(1.31385 0.0131809 0)
(1.35245 0.0112894 0)
(1.38485 0.00942795 0)
(1.41139 0.00771494 0)
(1.43268 0.00621306 0)
(1.44945 0.00494502 0)
(1.46243 0.00390743 0)
(1.47233 0.00308161 0)
(1.47978 0.00244126 0)
(1.48529 0.0019575 0)
(1.48932 0.00160192 0)
(1.49223 0.00134815 0)
(1.49428 0.00117238 0)
(1.49572 0.00105335 0)
(1.4967 0.000971835 0)
(1.49735 0.00090998 0)
(1.49778 0.000850436 0)
(1.49804 0.000775455 0)
(1.49821 0.000665903 0)
(1.4983 0.000500222 0)
(1.49836 0.000253321 0)
(1.49839 -0.000104612 0)
(1.49841 -0.000609398 0)
(1.49844 -0.00130426 0)
(1.49847 -0.00224133 0)
(1.4985 -0.00348325 0)
(1.49853 -0.00510483 0)
(1.49856 -0.00719465 0)
(1.49856 -0.00985658 0)
(1.49852 -0.0132108 0)
(1.4984 -0.0173942 0)
(1.49813 -0.0225594 0)
(1.49765 -0.0288722 0)
(1.49683 -0.0365058 0)
(1.49553 -0.0456317 0)
(1.49355 -0.056405 0)
(1.49064 -0.0689447 0)
(1.4865 -0.0833076 0)
(1.48076 -0.0994571 0)
(1.47305 -0.117232 0)
(1.46298 -0.136318 0)
(1.4502 -0.156241 0)
(1.43449 -0.176375 0)
(1.00165 -0.00385488 0)
(1.02424 -0.00980115 0)
(1.06353 -0.0138265 0)
(1.11283 -0.0160045 0)
(1.16622 -0.0166235 0)
(1.21938 -0.0160678 0)
(1.26921 -0.0147318 0)
(1.31386 -0.0129613 0)
(1.35246 -0.0110253 0)
(1.38486 -0.0091129 0)
(1.4114 -0.00734163 0)
(1.4327 -0.00577347 0)
(1.44947 -0.00443059 0)
(1.46246 -0.0033093 0)
(1.47237 -0.00239094 0)
(1.47982 -0.00164974 0)
(1.48534 -0.001058 0)
(1.48938 -0.000589403 0)
(1.49229 -0.000220817 0)
(1.49435 6.67485e-05 0)
(1.4958 0.000287783 0)
(1.49679 0.000452193 0)
(1.49745 0.000565338 0)
(1.49789 0.000628064 0)
(1.49816 0.000636659 0)
(1.49833 0.000582679 0)
(1.49843 0.00045263 0)
(1.49848 0.000227478 0)
(1.4985 -0.000118015 0)
(1.49851 -0.000616119 0)
(1.4985 -0.00130714 0)
(1.49847 -0.00224055 0)
(1.49843 -0.00347622 0)
(1.49836 -0.00508572 0)
(1.49825 -0.0071535 0)
(1.49807 -0.00977789 0)
(1.49779 -0.0130716 0)
(1.49736 -0.0171615 0)
(1.49671 -0.022187 0)
(1.49576 -0.0282967 0)
(1.49437 -0.0356425 0)
(1.4924 -0.0443702 0)
(1.48965 -0.0546059 0)
(1.48587 -0.0664379 0)
(1.48078 -0.0798947 0)
(1.47405 -0.094919 0)
(1.46534 -0.111344 0)
(1.45433 -0.128873 0)
(1.44072 -0.147078 0)
(1.42435 -0.165409 0)
(1.00168 -0.0116188 0)
(1.02448 -0.0295022 0)
(1.06394 -0.041568 0)
(1.11321 -0.048057 0)
(1.16632 -0.0498617 0)
(1.21894 -0.0481565 0)
(1.26806 -0.0441365 0)
(1.31188 -0.0388422 0)
(1.34962 -0.0330794 0)
(1.3812 -0.0274095 0)
(1.407 -0.0221805 0)
(1.42765 -0.0175735 0)
(1.44387 -0.0136517 0)
(1.45642 -0.0104016 0)
(1.46597 -0.00776595 0)
(1.47314 -0.0056662 0)
(1.47846 -0.00401805 0)
(1.48234 -0.00274071 0)
(1.48514 -0.00176197 0)
(1.48712 -0.00102052 0)
(1.48851 -0.000466546 0)
(1.48947 -6.14079e-05 0)
(1.49011 0.000223179 0)
(1.49053 0.000406044 0)
(1.4908 0.000497389 0)
(1.49097 0.000499433 0)
(1.49106 0.000406804 0)
(1.49111 0.000206669 0)
(1.49112 -0.000121403 0)
(1.4911 -0.000605813 0)
(1.49106 -0.00128354 0)
(1.49098 -0.0022009 0)
(1.49087 -0.00341445 0)
(1.4907 -0.00499186 0)
(1.49046 -0.0070128 0)
(1.4901 -0.00956942 0)
(1.4896 -0.0127664 0)
(1.48888 -0.0167203 0)
(1.48788 -0.0215574 0)
(1.48649 -0.0274098 0)
(1.48459 -0.0344098 0)
(1.48201 -0.0426802 0)
(1.47857 -0.0523224 0)
(1.47403 -0.0633998 0)
(1.46812 -0.0759194 0)
(1.46055 -0.0898106 0)
(1.45102 -0.104907 0)
(1.43924 -0.120933 0)
(1.42498 -0.137502 0)
(1.40811 -0.154135 0)
(1.00175 -0.0195063 0)
(1.02497 -0.0493836 0)
(1.06476 -0.0693796 0)
(1.11398 -0.079964 0)
(1.16649 -0.0827134 0)
(1.21801 -0.0796533 0)
(1.26565 -0.0728126 0)
(1.3078 -0.0639332 0)
(1.34383 -0.0543473 0)
(1.37377 -0.0449716 0)
(1.39809 -0.0363653 0)
(1.41744 -0.0288132 0)
(1.43258 -0.0224077 0)
(1.44424 -0.0171183 0)
(1.4531 -0.0128447 0)
(1.45972 -0.00945391 0)
(1.46462 -0.00680512 0)
(1.46819 -0.0047639 0)
(1.47076 -0.00321031 0)
(1.47258 -0.00204221 0)
(1.47385 -0.0011759 0)
(1.47473 -0.000545264 0)
(1.47532 -0.00010016 0)
(1.47571 0.000195385 0)
(1.47596 0.00036486 0)
(1.47611 0.000420709 0)
(1.4762 0.000365422 0)
(1.47623 0.000192265 0)
(1.47623 -0.000114351 0)
(1.4762 -0.000578802 0)
(1.47612 -0.00123447 0)
(1.476 -0.00212416 0)
(1.47582 -0.00330064 0)
(1.47556 -0.00482725 0)
(1.47519 -0.00677833 0)
(1.47467 -0.0092394 0)
(1.47396 -0.0123069 0)
(1.47298 -0.0160868 0)
(1.47165 -0.0206927 0)
(1.46988 -0.0262413 0)
(1.46752 -0.0328467 0)
(1.46441 -0.0406119 0)
(1.46038 -0.0496171 0)
(1.45518 -0.0599061 0)
(1.44859 -0.0714699 0)
(1.44032 -0.0842304 0)
(1.43013 -0.098026 0)
(1.41776 -0.112603 0)
(1.40301 -0.127617 0)
(1.38579 -0.142647 0)
(1.00187 -0.0276087 0)
(1.02574 -0.06957 0)
(1.06603 -0.097298 0)
(1.11511 -0.111604 0)
(1.16665 -0.114889 0)
(1.21644 -0.110133 0)
(1.26181 -0.100252 0)
(1.30141 -0.0876953 0)
(1.33485 -0.0743026 0)
(1.36234 -0.0613143 0)
(1.38445 -0.0494698 0)
(1.4019 -0.0391311 0)
(1.41545 -0.0304011 0)
(1.42582 -0.0232203 0)
(1.43364 -0.0174391 0)
(1.43948 -0.0128679 0)
(1.44377 -0.00930927 0)
(1.44688 -0.00657693 0)
(1.44912 -0.00450556 0)
(1.4507 -0.00295471 0)
(1.4518 -0.00180923 0)
(1.45256 -0.000977669 0)
(1.45307 -0.000389806 0)
(1.45341 6.01989e-06 0)
(1.45363 0.000245469 0)
(1.45377 0.000350391 0)
(1.45384 0.000330577 0)
(1.45386 0.000185046 0)
(1.45385 -9.71015e-05 0)
(1.45379 -0.000536213 0)
(1.45369 -0.00116194 0)
(1.45353 -0.00201334 0)
(1.45329 -0.0031391 0)
(1.45295 -0.00459783 0)
(1.45246 -0.00645822 0)
(1.4518 -0.0087989 0)
(1.4509 -0.0117078 0)
(1.44969 -0.0152808 0)
(1.44808 -0.0196189 0)
(1.44596 -0.0248246 0)
(1.44321 -0.0309958 0)
(1.43965 -0.0382181 0)
(1.43511 -0.0465543 0)
(1.42938 -0.0560325 0)
(1.42223 -0.0666328 0)
(1.41342 -0.0782737 0)
(1.40271 -0.0908019 0)
(1.38991 -0.103986 0)
(1.37483 -0.11752 0)
(1.35741 -0.131036 0)
(1.00203 -0.0360316 0)
(1.02684 -0.0901929 0)
(1.06777 -0.125343 0)
(1.11658 -0.142816 0)
(1.16667 -0.14605 0)
(1.21401 -0.139127 0)
(1.25624 -0.125914 0)
(1.29237 -0.109574 0)
(1.32233 -0.0924179 0)
(1.34657 -0.0759636 0)
(1.36578 -0.0610854 0)
(1.38075 -0.0481869 0)
(1.39225 -0.0373561 0)
(1.40096 -0.0284892 0)
(1.40748 -0.0213796 0)
(1.41229 -0.0157785 0)
(1.41581 -0.0114331 0)
(1.41835 -0.00810772 0)
(1.42017 -0.00559516 0)
(1.42144 -0.0037203 0)
(1.42233 -0.0023399 0)
(1.42294 -0.00134014 0)
(1.42336 -0.000633232 0)
(1.42363 -0.000153815 0)
(1.42381 0.000144378 0)
(1.42392 0.000291435 0)
(1.42398 0.000303609 0)
(1.424 0.000185115 0)
(1.42397 -7.0586e-05 0)
(1.4239 -0.000479956 0)
(1.42377 -0.00106891 0)
(1.42357 -0.00187263 0)
(1.42328 -0.00293554 0)
(1.42287 -0.00431129 0)
(1.42229 -0.0060627 0)
(1.4215 -0.00826138 0)
(1.42044 -0.0109868 0)
(1.41903 -0.0143248 0)
(1.41718 -0.0183649 0)
(1.41478 -0.0231963 0)
(1.41169 -0.0289025 0)
(1.40777 -0.0355539 0)
(1.40282 -0.0431993 0)
(1.39667 -0.0518546 0)
(1.38908 -0.0614928 0)
(1.37986 -0.0720326 0)
(1.3688 -0.0833307 0)
(1.35571 -0.0951784 0)
(1.34046 -0.107305 0)
(1.32298 -0.11939 0)
(1.00228 -0.0449028 0)
(1.02833 -0.111392 0)
(1.07004 -0.153505 0)
(1.11833 -0.173378 0)
(1.16637 -0.175785 0)
(1.21039 -0.166101 0)
(1.24849 -0.149217 0)
(1.28019 -0.128997 0)