/*--------------------------------*- C++ -*----------------------------------*\
  =========                 |
  \\      /  F ield         | OpenFOAM: The Open Source CFD Toolbox
   \\    /   O peration     | Website:  https://openfoam.org
    \\  /    A nd           | Version:  6
     \\/     M anipulation  |
\*---------------------------------------------------------------------------*/
FoamFile
{
    version     2.0;
    format      ascii;
    class       surfaceScalarField;
    location    "0";
    object      phi;
}
// * * * * * * * * * * * * * * * * * * * * * * * * * * * * * * * * * * * * * //

dimensions      [0 3 -1 0 0 0 0];

internalField   nonuniform List<scalar> 
24170
(
0.0578296
-0.000438262
0.0582723
-0.000442761
0.058739
-0.000466706
0.0592478
-0.00050877
0.059817
-0.000569191
0.0604667
-0.000649698
0.0612204
-0.000753703
0.0621072
-0.000886825
0.0631651
-0.0010579
0.064446
-0.00128087
0.0660243
-0.00157831
0.0680129
-0.00198861
0.0705944
-0.00258148
0.0740903
-0.00349585
0.0791373
-0.00504708
0.0872397
-0.00810242
0.103072
-0.0158326
-0.0451789
0.148251
0.0619791
-0.000906925
0.0624526
-0.000916192
0.0629515
-0.000965651
0.0634953
-0.00105254
0.0641034
-0.00117732
0.0647973
-0.00134352
0.0656017
-0.00155811
0.0665474
-0.00183255
0.0676743
-0.00218485
0.0690367
-0.00264328
0.0707119
-0.00325345
0.0728155
-0.00409223
0.0755316
-0.00529757
0.0791743
-0.00713852
0.0843289
-0.0102017
0.0921909
-0.0159644
0.105178
-0.0288199
-0.0634554
0.123455
0.0664251
-0.00140672
0.0669299
-0.00142097
0.0674616
-0.00149742
0.0680409
-0.00163174
0.0686881
-0.00182457
0.0694258
-0.00208121
0.0702799
-0.00241223
0.0712823
-0.00283494
0.0724739
-0.00337646
0.0739097
-0.00407909
0.0756667
-0.00501039
0.0778571
-0.00628265
0.0806524
-0.00809285
0.0843252
-0.0108114
0.0893186
-0.015195
0.0962859
-0.0229318
0.10547
-0.0380044
-0.0689254
0.11094
0.0711882
-0.00193794
0.0717245
-0.00195729
0.0722892
-0.00206205
0.0729036
-0.00224614
0.0735892
-0.00251024
0.0743694
-0.00286136
0.0752706
-0.00331349
0.0763253
-0.00388956
0.077574
-0.00462521
0.0790705
-0.00557553
0.0808873
-0.00682721
0.0831258
-0.0085212
0.0859298
-0.0108968
0.0894993
-0.0143809
0.0940782
-0.019774
0.0997641
-0.0286176
0.105484
-0.0437248
-0.0686061
0.105165
0.0762906
-0.00250027
0.076858
-0.00252473
0.0774548
-0.00265884
0.0781033
-0.00289459
0.0788256
-0.00323253
0.0796453
-0.0036811
0.0805892
-0.00425738
0.081689
-0.0049893
0.0829836
-0.00591986
0.0845227
-0.00711464
0.0863702
-0.00867472
0.0886087
-0.0107597
0.0913404
-0.0136285
0.0946728
-0.0177133
0.0986409
-0.0237421
0.102917
-0.0328937
0.105931
-0.0467386
-0.0658547
0.103179
0.0817559
-0.00309259
0.0823532
-0.00312201
0.0829805
-0.00328616
0.0836608
-0.00357486
0.0844164
-0.00398822
0.0852711
-0.00453575
0.0862507
-0.00523702
0.0873854
-0.00612392
0.0887105
-0.00724502
0.0902689
-0.00867301
0.0921112
-0.010517
0.0942941
-0.0129426
0.0968694
-0.0162039
0.0998467
-0.0206905
0.103084
-0.0269789
0.106009
-0.0358196
0.107085
-0.0478137
-0.0622118
0.103442
0.0876091
-0.00371277
0.0882339
-0.00374679
0.0888889
-0.00394118
0.0895974
-0.00428327
0.0903815
-0.00477236
0.0912642
-0.00541848
0.09227
-0.0062428
0.0934258
-0.00727974
0.0947618
-0.00858097
0.0963108
-0.010222
0.0981063
-0.0123125
0.100175
-0.0150108
0.102514
-0.0185433
0.105046
-0.0232227
0.107507
-0.0294402
0.10925
-0.0375618
0.109013
-0.0475769
-0.0583509
0.105152
0.0938771
-0.0043574
0.0945257
-0.00439541
0.0952041
-0.0046196
0.0959353
-0.00501446
0.0967409
-0.005578
0.0976425
-0.00632
0.0986618
-0.00726209
0.0998214
-0.00843939
0.101144
-0.00990371
0.102651
-0.0117286
0.104355
-0.0140164
0.10625
-0.0169059
0.108285
-0.020579
0.110317
-0.0252541
0.11202
-0.0311437
0.112786
-0.0383277
0.111697
-0.0464873
-0.0545479
0.107894
0.100588
-0.0050215
0.101255
-0.00506258
0.101951
-0.00531532
0.102698
-0.00576104
0.103515
-0.0063958
0.104424
-0.00722823
0.105441
-0.00827902
0.106583
-0.00958186
0.107865
-0.0111855
0.109293
-0.0131565
0.110859
-0.0155829
0.112528
-0.0185748
0.114209
-0.0222601
0.115718
-0.0267631
0.116725
-0.0321503
0.11672
-0.0383231
0.115093
-0.0448602
-0.0509024
0.111448
0.107773
-0.00569817
0.108451
-0.00574105
0.109156
-0.0060202
0.109908
-0.0065133
0.110726
-0.00721381
0.111626
-0.00812814
0.112622
-0.0092745
0.113723
-0.0106829
0.114933
-0.0123956
0.116244
-0.0144682
0.11763
-0.0169687
0.119029
-0.0199734
0.120324
-0.0235554
0.121319
-0.0277575
0.121713
-0.0325443
0.121118
-0.0377289
0.119161
-0.0429032
-0.0474393
0.115698
0.115463
-0.00637831
0.116143
-0.00642134
0.116847
-0.00672368
0.117592
-0.00725896
0.118396
-0.00801728
0.119269
-0.00900173
0.120221
-0.0102264
0.121254
-0.0117153
0.12236
-0.0135018
0.123518
-0.0156268
0.124685
-0.0181354
0.125781
-0.0210694
0.126679
-0.0244528
0.127188
-0.0282674
0.127062
-0.0324178
0.126026
-0.0366929
0.123872
-0.0407492
-0.0441532
0.120586
0.103903
-0.00694667
0.10447
-0.00698826
0.105053
-0.00730683
0.105667
-0.00787232
0.106321
-0.00867141
0.107023
-0.0097035
0.107774
-0.0109781
0.108572
-0.0125128
0.109402
-0.0143316
0.110237
-0.0164617
0.11103
-0.0189286
0.111708
-0.0217473
0.112163
-0.0249084
0.112255
-0.0283587
0.111815
-0.0319786
0.110688
-0.0355656
0.10878
-0.0388416
-0.0414997
0.106127
0.126599
-0.00757916
0.127228
-0.00761705
0.127871
-0.0079495
0.12854
-0.00854192
0.129245
-0.00937654
0.12999
-0.0104476
0.13077
-0.0117583
0.131575
-0.0133176
0.132381
-0.0151378
0.133149
-0.0172299
0.133819
-0.0195986
0.134304
-0.0222329
0.134492
-0.025096
0.134245
-0.0281121
0.133423
-0.0311564
0.131912
-0.0340545
0.12967
-0.0365993
-0.0385905
0.126761
0.154231
-0.00825443
0.154899
-0.00828515
0.155575
-0.00862603
0.15627
-0.00923719
0.156989
-0.0100952
0.157729
-0.0111876
0.15848
-0.0125094
0.159222
-0.014059
0.159919
-0.0158351
0.160521
-0.017832
0.160957
-0.0200343
0.161134
-0.0224102
0.160943
-0.0249051
0.160267
-0.0274356
0.158999
-0.0298887
0.157074
-0.0321293
0.154492
-0.0340173
-0.0354335
0.151335
0.187859
-0.00892706
0.188519
-0.00894571
0.189178
-0.00928531
0.189841
-0.00990017
0.190506
-0.0107601
0.191164
-0.0118448
0.191794
-0.0131395
0.192366
-0.014631
0.192835
-0.0163044
0.193142
-0.0181387
0.19321
-0.020103
0.192953
-0.0221528
0.192275
-0.0242273
0.191089
-0.0262495
0.18933
-0.0281296
0.186975
-0.0297741
0.184055
-0.0310976
-0.0320374
0.180659
0.228769
-0.00951414
0.229338
-0.00951457
0.229891
-0.00983816
0.230424
-0.0104335
0.230928
-0.0112633
0.231382
-0.012299
0.231758
-0.0135158
0.232017
-0.0148898
0.232107
-0.0163946
0.231967
-0.0179982
0.231525
-0.0196615
0.230709
-0.0213367
0.22945
-0.022968
0.227694
-0.0244939
0.225416
-0.0258517
0.222626
-0.026984
0.219374
-0.0278453
-0.0284081
0.215744
0.278522
-0.00987889
0.278862
-0.00985492
0.279167
-0.0101433
0.279422
-0.0106883
0.279606
-0.0114468
0.27969
-0.0123827
0.279637
-0.0134637
0.279406
-0.0146579
0.278943
-0.0159319
0.278194
-0.0172495
0.277104
-0.0185711
0.275621
-0.019854
0.273708
-0.0210544
0.271343
-0.0221295
0.268533
-0.0230412
0.265307
-0.0237587
0.261724
-0.0242622
-0.0245438
0.25786
0.339014
-0.00981558
0.338923
-0.00976379
0.338776
-0.00999647
0.338545
-0.0104571
0.338198
-0.0110997
0.3377
-0.0118843
0.337011
-0.012775
0.33609
-0.013737
0.334894
-0.0147362
0.333383
-0.0157386
0.331522
-0.0167103
0.329287
-0.0176188
0.326667
-0.0184343
0.323668
-0.0191307
0.320315
-0.0196881
0.316649
-0.0200929
0.312727
-0.0203394
-0.0204287
0.308612
0.41257
-0.00904538
0.411776
-0.00896997
0.410912
-0.00913193
0.409934
-0.00947941
0.408803
-0.00996878
0.407481
-0.0105621
0.405931
-0.0112251
0.40412
-0.0119263
0.40202
-0.0126364
0.39961
-0.0133283
0.396877
-0.0139772
0.39382
-0.0145617
0.390449
-0.0150637
0.386788
-0.0154698
0.382871
-0.0157709
0.378741
-0.0159629
0.374448
-0.0160462
-0.0160253
0.370044
0.301623
-0.00807594
0.300647
-0.00799375
0.299626
-0.00811049
0.298527
-0.00838043
0.297323
-0.00876468
0.29599
-0.00922932
0.294509
-0.00974416
0.292865
-0.0102821
0.291047
-0.0108186
0.289051
-0.011332
0.286877
-0.0118035
0.284533
-0.0122177
0.282032
-0.0125626
0.279392
-0.0128297
0.276635
-0.0130146
0.273789
-0.0131159
0.270878
-0.0131357
-0.0130785
0.267931
0.262344
-0.00699726
0.261267
-0.00691677
0.260157
-0.00700063
0.258986
-0.00720978
0.257732
-0.00751079
0.256377
-0.00787453
0.254909
-0.00827535
0.253317
-0.00869053
0.251599
-0.00910011
0.249754
-0.00948689
0.247787
-0.00983651
0.245706
-0.0101376
0.243526
-0.0103817
0.241259
-0.0105636
0.238926
-0.0106808
0.236543
-0.0107332
0.234131
-0.0107233
-0.0106551
0.231707
0.228236
-0.00591094
0.227157
-0.00583737
0.226054
-0.00589785
0.224904
-0.00605982
0.223688
-0.00629529
0.222394
-0.00657992
0.221011
-0.00689242
0.219535
-0.00721417
0.217963
-0.00752908
0.2163
-0.00782356
0.21455
-0.00808654
0.212722
-0.00830951
0.210827
-0.00848647
0.208877
-0.00861383
0.206887
-0.00869023
0.20487
-0.00871622
0.20284
-0.00869399
-0.00862696
0.200812
0.1986
-0.0048741
0.197573
-0.00481019
0.196529
-0.00485407
0.195448
-0.00497917
0.194316
-0.00516258
0.19312
-0.00538443
0.191855
-0.00562742
0.190517
-0.00587656
0.189107
-0.00611902
0.187628
-0.00634414
0.186085
-0.00654339
0.184486
-0.00671032
0.18284
-0.00684055
0.181157
-0.00693159
0.17945
-0.00698267
0.177728
-0.0069945
0.176003
-0.00696898
-0.00690893
0.174285
0.172836
-0.00391589
0.171888
-0.00386274
0.170929
-0.00389467
0.16994
-0.00399049
0.168909
-0.00413192
0.167828
-0.00430312
0.166691
-0.00449033
0.165496
-0.00468172
0.164244
-0.00486725
0.162939
-0.00503863
0.161585
-0.00518933
0.160189
-0.00531448
0.158759
-0.00541084
0.157304
-0.00547665
0.155833
-0.00551149
0.154355
-0.00551601
0.152878
-0.00549181
-0.00544113
0.15141
0.150429
-0.00304846
0.149572
-0.00300613
0.148707
-0.00302924
0.147818
-0.00310137
0.146894
-0.00320837
0.145929
-0.00333797
0.144918
-0.00347954
0.143861
-0.003624
0.142757
-0.00376364
0.14161
-0.00389219
0.140426
-0.0040047
0.139209
-0.00409755
0.137966
-0.00416837
0.136706
-0.00421589
0.135434
-0.00423988
0.134159
-0.0042409
0.132887
-0.0042202
-0.00417954
0.131626
0.130937
-0.00227392
0.130172
-0.00224188
0.129401
-0.00225826
0.128611
-0.00231087
0.127792
-0.00238917
0.126938
-0.00248405
0.126046
-0.00258764
0.125115
-0.00269319
0.124146
-0.00279505
0.123143
-0.00288858
0.122108
-0.0029702
0.121048
-0.00303728
0.119968
-0.00308809
0.118874
-0.00312177
0.117772
-0.00313817
0.116669
-0.00313775
0.11557
-0.00312144
-0.00309054
0.114481
0.113976
-0.00158878
0.1133
-0.00156619
0.112619
-0.00157726
0.111922
-0.00161349
0.1112
-0.00166754
0.110449
-0.00173305
0.109666
-0.00180455
0.10885
-0.00187735
0.108003
-0.00194752
0.107126
-0.00201186
0.106224
-0.00206789
0.1053
-0.00211381
0.104361
-0.00214845
0.10341
-0.00217123
0.102454
-0.00218205
0.101498
-0.00218125
0.100546
-0.00216948
-0.00214766
0.0996027
0.0992162
-0.000986587
0.0986225
-0.000972487
0.0980244
-0.000979228
0.0974125
-0.00100154
0.0967798
-0.00103487
0.0961221
-0.00107528
0.0954369
-0.00111936
0.0947238
-0.00116423
0.0939837
-0.00120745
0.0932189
-0.00124705
0.0924325
-0.00128149
0.0916284
-0.00130967
0.0908108
-0.00133088
0.0899843
-0.00134476
0.0891535
-0.00135125
0.0883229
-0.00135058
0.0874965
-0.00134314
-0.00132951
0.0866784
0.08637
-0.000459662
0.0858506
-0.000453077
0.0853276
-0.000456188
0.0847926
-0.000466541
0.0842397
-0.000482018
0.0836652
-0.000500783
0.0830671
-0.000521255
0.082445
-0.000542084
0.0817997
-0.000562142
0.0811331
-0.000580511
0.0804481
-0.00059648
0.079748
-0.000609537
0.0790364
-0.00061935
0.0783174
-0.000625756
0.0775949
-0.000628732
0.0768727
-0.000628377
0.0761545
-0.000624884
-0.000618517
0.0754435
0.0751885
0.0747354
0.0742792
0.0738127
0.0733307
0.0728299
0.0723086
0.0717666
0.0712044
0.0706239
0.0700274
0.0694179
0.0687985
0.0681728
0.0675441
0.0669157
0.0662908
0.0656723
0.00221083
-0.00221083
0.00443427
-0.00222344
0.00666766
-0.00223339
0.00890822
-0.00224057
0.0111531
-0.00224492
0.0133995
-0.00224637
0.0156444
-0.0022449
0.0178849
-0.00224048
0.020118
-0.0022331
0.0223408
-0.00222279
0.0245503
-0.00220957
0.0267438
-0.00219351
0.0289185
-0.00217466
0.0310716
-0.00215313
0.0332006
-0.00212901
0.035303
-0.00210241
0.0373765
-0.00207348
0.0394188
-0.00204234
0.041428
-0.00200914
0.043402
-0.00197405
0.0453393
-0.00193723
0.0472381
-0.00189883
0.0490971
-0.00185903
0.0509151
-0.00181799
0.052691
-0.00177588
0.0544238
-0.00173286
0.0561129
-0.00168909
0.0577577
-0.00164473
0.0593576
-0.00159992
0.0609124
-0.0015548
0.0624219
-0.00150951
0.0638861
-0.00146418
0.065305
-0.00141892
0.0666788
-0.00137385
0.0680079
-0.00132905
0.0692925
-0.00128464
0.0705332
-0.00124068
0.0717305
-0.00119727
0.0728849
-0.00115446
0.0739972
-0.00111231
0.0750681
-0.00107089
0.0760983
-0.00103024
0.0770887
-0.000990386
0.0780401
-0.00095138
0.0789533
-0.00091324
0.0798293
-0.000875993
0.080669
-0.000839656
0.0814732
-0.000804241
0.082243
-0.000769757
0.0829792
-0.000736213
0.0836828
-0.000703607
0.0843547
-0.00067194
0.0849959
-0.000641207
0.0856073
-0.000611405
0.0861899
-0.000582521
0.0867444
-0.000554547
0.0872719
-0.000527474
0.0877732
-0.000501283
0.0882491
-0.000475963
0.0887006
-0.000451498
0.0891285
-0.00042787
0.0895335
-0.000405064
0.0899166
-0.00038306
0.0902784
-0.00036184
0.0906198
-0.000341385
0.0909415
-0.000321677
0.0912442
-0.000302696
0.0915286
-0.000284422
0.0917954
-0.000266837
0.0920454
-0.000249919
0.092279
-0.000233653
0.092497
-0.000218015
0.0927
-0.000202988
0.0928886
-0.000188554
0.0930633
-0.000174693
0.0932246
-0.000161387
0.0933733
-0.000148618
0.0935096
-0.000136368
0.0936342
-0.000124619
0.0937476
-0.000113355
0.0938501
-0.000102558
0.0939424
-9.22106e-05
0.0940247
-8.22996e-05
0.0940975
-7.28069e-05
0.0941612
-6.37181e-05
0.0942162
-5.50163e-05
0.0942629
-4.66895e-05
0.0943016
-3.87207e-05
0.0943327
-3.10977e-05
0.0943565
-2.3807e-05
0.0943733
-1.68338e-05
0.0943835
-1.01666e-05
0.0943873
-3.79152e-06
0.094385
2.30123e-06
0.0943768
8.12674e-06
0.0943631
1.3694e-05
0.0943441
1.90139e-05
0.09432
2.40999e-05
0.0942911
2.89598e-05
0.0942574
3.36054e-05
0.0942194
3.80446e-05
0.0941771
4.22896e-05
0.0941308
4.63459e-05
0.0940805
5.02266e-05
0.0940266
5.39363e-05
0.0939691
5.7486e-05
0.0939082
6.08827e-05
0.0938441
6.41341e-05
0.0937768
6.72474e-05
0.0937066
7.02297e-05
0.0936335
7.30887e-05
0.0935576
7.583e-05
0.0934792
7.84598e-05
0.0933982
8.09843e-05
0.0933148
8.34098e-05
0.093229
8.57424e-05
0.093141
8.7985e-05
0.0930509
9.01469e-05
0.0929587
9.22278e-05
0.0928644
9.42375e-05
0.0927682
9.61762e-05
0.0926702
9.80514e-05
0.0925703
9.9865e-05
0.0924687
0.000101623
0.0923654
0.000103328
0.0922604
0.000104982
0.0921538
0.000106593
0.0920456
0.000108159
0.0919359
0.000109686
0.0918248
0.000111177
0.0917121
0.000112633
0.0915981
0.00011406
0.0914826
0.000115456
0.0913658
0.000116828
0.0912476
0.000118176
0.0911281
0.000119503
0.0910073
0.000120809
0.0908852
0.0001221
0.0907618
0.000123376
0.0906372
0.000124638
0.0905113
0.00012589
0.0903841
0.000127133
0.0902558
0.000128371
0.0901261
0.000129605
0.0899953
0.000130838
0.0898632
0.000132071
0.0897299
0.000133309
0.0895954
0.000134555
0.0894595
0.000135814
0.0893224
0.00013709
0.089184
0.000138387
0.0890443
0.000139715
0.0889032
0.000141083
0.0887607
0.000142499
0.0886167
0.000143979
0.0884712
0.000145539
0.088324
0.000147202
0.088175
0.000148995
0.088024
0.000150953
0.0878709
0.000153122
0.0877153
0.000155561
0.087557
0.000158346
0.0873954
0.000161579
0.08723
0.000165386
0.08706
0.000169945
0.0868845
0.000175483
0.0867022
0.00018231
0.0865114
0.000190846
0.0863097
0.000201674
0.0860941
0.000215607
0.0858602
0.000233819
0.0856022
0.00025804
0.0853112
0.000290926
0.0849745
0.000336742
0.0845717
0.000402784
0.084069
0.000502613
0.0834044
0.000664601
0.0824451
0.000959206
0.0808325
0.00161263
0.00366849
0.077164
0.00222281
-0.00443365
0.00445822
-0.00445886
0.00670349
-0.00447866
0.00895578
-0.00449286
0.0112122
-0.00450133
0.0134697
-0.00450394
0.0157255
-0.00450062
0.0179763
-0.00449133
0.0202193
-0.00447607
0.0224513
-0.00445488
0.0246696
-0.00442784
0.0268712
-0.00439505
0.0290532
-0.00435668
0.0312129
-0.00431289
0.0333478
-0.00426391
0.0354554
-0.00420998
0.0375333
-0.00415136
0.0395793
-0.00408834
0.0415914
-0.00402122
0.0435676
-0.00395033
0.0455064
-0.00387599
0.0474061
-0.00379853
0.0492653
-0.0037183
0.051083
-0.00363563
0.052858
-0.00355086
0.0545894
-0.00346431
0.0562766
-0.00337631
0.057919
-0.00328716
0.0595163
-0.00319716
0.0610681
-0.00310659
0.0625743
-0.00301572
0.0640349
-0.0029248
0.06545
-0.00283407
0.0668199
-0.00274374
0.0681449
-0.00265401
0.0694253
-0.00256507
0.0706617
-0.00247708
0.0718546
-0.00239019
0.0730047
-0.00230454
0.0741126
-0.00222025
0.0751792
-0.00213742
0.0762051
-0.00205614
0.0771912
-0.0019765
0.0781383
-0.00189854
0.0790474
-0.00182234
0.0799194
-0.00174793
0.0807551
-0.00167535
0.0815554
-0.00160462
0.0823214
-0.00153576
0.083054
-0.00146878
0.0837541
-0.00140368
0.0844226
-0.00134047
0.0850605
-0.00127912
0.0856687
-0.00121963
0.0862482
-0.00116198
0.0867998
-0.00110615
0.0873244
-0.00105212
0.087823
-0.000999855
0.0882964
-0.000949329
0.0887454
-0.000900508
0.0891709
-0.000853362
0.0895737
-0.000807854
0.0899545
-0.000763948
0.0903143
-0.000721608
0.0906537
-0.000680795
0.0909735
-0.000641472
0.0912744
-0.000603599
0.0915571
-0.00056714
0.0918223
-0.000532052
0.0920707
-0.000498299
0.0923029
-0.000465841
0.0925195
-0.00043464
0.0927212
-0.000404659
0.0929085
-0.000375857
0.093082
-0.000348201
0.0932423
-0.000321652
0.0933898
-0.000296173
0.0935252
-0.000271729
0.0936488
-0.000248287
0.0937613
-0.000225809
0.093863
-0.000204265
0.0939544
-0.000183619
0.0940359
-0.000163842
0.094108
-0.000144898
0.0941711
-0.000126761
0.0942254
-0.000109396
0.0942715
-9.27795e-05
0.0943097
-7.68768e-05
0.0943403
-6.16648e-05
0.0943636
-4.71132e-05
0.0943799
-3.31971e-05
0.0943896
-1.98903e-05
0.094393
-7.16846e-06
0.0943903
4.99336e-06
0.0943818
1.66188e-05
0.0943678
2.77305e-05
0.0943484
3.83516e-05
0.094324
4.85007e-05
0.0942948
5.82031e-05
0.0942609
6.74744e-05
0.0942226
7.63376e-05
0.0941801
8.48088e-05
0.0941335
9.29089e-05
0.0940831
0.000100655
0.094029
0.000108062
0.0939713
0.000115148
0.0939102
0.00012193
0.0938459
0.000128421
0.0937785
0.000134637
0.0937082
0.000140593
0.093635
0.000146301
0.093559
0.000151774
0.0934804
0.000157025
0.0933994
0.000162069
0.0933158
0.000166912
0.09323
0.000171569
0.093142
0.000176051
0.0930517
0.000180365
0.0929594
0.000184524
0.0928651
0.000188537
0.0927689
0.000192411
0.0926708
0.000196156
0.0925709
0.00019978
0.0924692
0.000203291
0.0923658
0.000206697
0.0922608
0.000210005
0.0921542
0.00021322
0.092046
0.00021635
0.0919363
0.000219403
0.091825
0.000222381
0.0917124
0.000225292
0.0915983
0.000228142
0.0914828
0.000230934
0.091366
0.000233675
0.0912478
0.00023637
0.0911283
0.00023902
0.0910074
0.000241634
0.0908853
0.000244213
0.0907619
0.000246762
0.0906373
0.000249286
0.0905114
0.00025179
0.0903842
0.000254275
0.0902558
0.00025675
0.0901262
0.000259215
0.0899954
0.000261679
0.0898633
0.000264145
0.08973
0.00026662
0.0895954
0.000269111
0.0894596
0.000271626
0.0893225
0.000274175
0.0891841
0.000276769
0.0890444
0.000279423
0.0889033
0.000282153
0.0887609
0.000284983
0.0886169
0.000287938
0.0884714
0.000291053
0.0883242
0.000294371
0.0881752
0.000297947
0.0880243
0.000301851
0.0878713
0.000306174
0.0877158
0.000311035
0.0875575
0.000316581
0.0873961
0.000323013
0.0872309
0.000330591
0.0870612
0.000339654
0.086886
0.000350661
0.086704
0.000364222
0.0865137
0.000381169
0.0863127
0.000402647
0.0860981
0.000430265
0.0858655
0.000466324
0.0856093
0.000514212
0.0853211
0.000579106
0.0849886
0.000669247
0.0845928
0.000798579
0.0841028
0.000992519
0.083465
0.00130239
0.0825775
0.00184663
0.081242
0.00294809
0.00563909
0.0792714
0.0022471
-0.00668075
0.00450676
-0.00671852
0.00677611
-0.006748
0.00905214
-0.0067689
0.0113318
-0.006781
0.013612
-0.00678413
0.0158896
-0.00677819
0.0181614
-0.00676312
0.0204242
-0.00673894
0.0226751
-0.00670572
0.0249108
-0.0066636
0.0271285
-0.00661276
0.0293253
-0.00655344
0.0314983
-0.00648594
0.033645
-0.00641061
0.0357629
-0.00632782
0.0378495
-0.00623799
0.0399027
-0.00614157
0.0419205
-0.00603905
0.0439011
-0.00593091
0.0458428
-0.00581766
0.0477441
-0.00569981
0.0496037
-0.00557789
0.0514204
-0.00545241
0.0531934
-0.00532387
0.0549219
-0.00519278
0.0566052
-0.00505961
0.0582429
-0.00492484
0.0598346
-0.00478889
0.0613802
-0.00465221
0.0628797
-0.00451518
0.0643331
-0.00437817
0.0657405
-0.00424155
0.0671024
-0.00410562
0.0684191
-0.00397067
0.069691
-0.003837
0.0709187
-0.00370482
0.0721029
-0.00357437
0.0732442
-0.00344583
0.0743433
-0.00331939
0.0754011
-0.00319519
0.0764183
-0.00307337
0.0773959
-0.00295402
0.0783346
-0.00283726
0.0792354
-0.00272314
0.0800992
-0.00261174
0.0809269
-0.00250311
0.0817196
-0.00239727
0.0824781
-0.00229425
0.0832034
-0.00219406
0.0838964
-0.0020967
0.0845581
-0.00200216
0.0851894
-0.00191044
0.0857913
-0.0018215
0.0863646
-0.00173533
0.0869103
-0.00165188
0.0874293
-0.00157112
0.0879225
-0.00149301
0.0883907
-0.00141751
0.0888347
-0.00134455
0.0892554
-0.0012741
0.0896537
-0.00120611
0.0900302
-0.0011405
0.0903859
-0.00107724
0.0907213
-0.00101626
0.0910374
-0.000957511
0.0913347
-0.000900927
0.091614
-0.000846454
0.091876
-0.000794032
0.0921213
-0.000743602
0.0923506
-0.000695109
0.0925644
-0.000648494
0.0927634
-0.000603698
0.0929483
-0.000560668
0.0931194
-0.000519345
0.0932774
-0.000479677
0.0934228
-0.000441608
0.0935562
-0.000405085
0.093678
-0.000370056
0.0937886
-0.00033647
0.0938886
-0.000304276
0.0939784
-0.000273426
0.0940585
-0.00024387
0.0941291
-0.000215563
0.0941908
-0.000188458
0.0942439
-0.000162508
0.0942888
-0.000137673
0.0943259
-0.000113907
0.0943554
-9.11697e-05
0.0943777
-6.94223e-05
0.0943931
-4.86221e-05
0.0944019
-2.87326e-05
0.0944045
-9.71653e-06
0.094401
8.46402e-06
0.0943918
2.58424e-05
0.094377
4.24534e-05
0.0943571
5.83302e-05
0.094332
7.35056e-05
0.0943022
8.80088e-05
0.0942678
0.000101872
0.094229
0.000115124
0.094186
0.000127792
0.094139
0.000139904
0.0940882
0.000151486
0.0940337
0.000162564
0.0939757
0.000173162
0.0939143
0.000183304
0.0938497
0.000193015
0.093782
0.000202313
0.0937114
0.00021122
0.0936379
0.00021976
0.0935617
0.000227949
0.093483
0.000235805
0.0934017
0.00024335
0.093318
0.000250598
0.093232
0.000257568
0.0931438
0.000264273
0.0930534
0.000270732
0.092961
0.000276956
0.0928665
0.000282962
0.0927702
0.000288761
0.092672
0.000294369
0.0925719
0.000299794
0.0924702
0.000305052
0.0923667
0.000310151
0.0922616
0.000315104
0.0921549
0.00031992
0.0920467
0.000324608
0.0919369
0.000329179
0.0918256
0.000333641
0.0917129
0.000338002
0.0915988
0.000342271
0.0914833
0.000346455
0.0913664
0.000350562
0.0912481
0.000354597
0.0911286
0.00035857
0.0910077
0.000362486
0.0908856
0.000366352
0.0907622
0.000370173
0.0906375
0.000373956
0.0905116
0.000377707
0.0903844
0.000381434
0.090256
0.000385142
0.0901264
0.000388837
0.0899955
0.00039253
0.0898635
0.000396226
0.0897301
0.000399934
0.0895956
0.000403667
0.0894598
0.000407436
0.0893227
0.000411255
0.0891843
0.00041514
0.0890446
0.000419114
0.0889035
0.000423202
0.0887611
0.000427437
0.0886172
0.000431857
0.0884717
0.000436515
0.0883246
0.000441474
0.0881757
0.000446815
0.0880249
0.000452644
0.087872
0.000459093
0.0877167
0.000466336
0.0875586
0.000474597
0.0873975
0.00048417
0.0872326
0.000495436
0.0870634
0.000508902
0.0868888
0.000525239
0.0867077
0.000545351
0.0865184
0.000570459
0.0863187
0.000602245
0.0861059
0.000643059
0.085876
0.000696254
0.0856235
0.000766741
0.0853406
0.000861946
0.0850163
0.000993575
0.0846337
0.00118106
0.0841674
0.00145881
0.0835768
0.00189297
0.0828002
0.00262317
0.0817766
0.00397171
0.00669423
0.0807214
0.00228437
-0.00896512
0.00458123
-0.00901539
0.00688749
-0.00905426
0.00919991
-0.00908133
0.0115152
-0.00909629
0.01383
-0.00909894
0.016141
-0.00908914
0.0184447
-0.00906685
0.0207378
-0.00903211
0.0230172
-0.00898505
0.0252794
-0.00892587
0.0275216
-0.00885488
0.0297405
-0.00877242
0.0319335
-0.00867893
0.0340978
-0.00857492
0.0362309
-0.00846092
0.0383305
-0.00833754
0.0403943
-0.00820541
0.0424205
-0.00806521
0.0444072
-0.00791761
0.0463529
-0.00776334
0.0482561
-0.00760308
0.0501158
-0.00743756
0.0519309
-0.00726748
0.0537005
-0.00709353
0.0554241
-0.00691637
0.0571011
-0.00673665
0.0587313
-0.006555
0.0603144
-0.00637201
0.0618504
-0.00618823
0.0633394
-0.00600419
0.0647816
-0.00582038
0.0661773
-0.00563726
0.067527
-0.00545523
0.068831
-0.00527469
0.0700899
-0.00509598
0.0713045
-0.00491941
0.0724754
-0.00474527
0.0736034
-0.0045738
0.0746892
-0.00440522
0.0757337
-0.00423972
0.0767378
-0.00407747
0.0777024
-0.0039186
0.0786284
-0.00376323
0.0795167
-0.00361145
0.0803683
-0.00346334
0.0811841
-0.00331895
0.0819652
-0.00317831
0.0827124
-0.00304146
0.0834267
-0.0029084
0.0841092
-0.00277913
0.0847606
-0.00265363
0.0853821
-0.00253189
0.0859744
-0.00241387
0.0865386
-0.00229952
0.0870756
-0.00218881
0.0875861
-0.00208168
0.0880712
-0.00197807
0.0885316
-0.00187792
0.0889682
-0.00178117
0.0893818
-0.00168774
0.0897733
-0.00159757
0.0901434
-0.00151058
0.0904928
-0.00142669
0.0908224
-0.00134584
0.0911328
-0.00126794
0.0914248
-0.00119291
0.091699
-0.00112068
0.0919562
-0.00105118
0.0921969
-0.000984312
0.0924218
-0.000920013
0.0926315
-0.000858203
0.0928266
-0.000798807
0.0930077
-0.00074175
0.0931753
-0.000686957
0.0933299
-0.000634354
0.0934722
-0.000583874
0.0936026
-0.000535441
0.0937215
-0.000488989
0.0938295
-0.000444448
0.0939269
-0.000401754
0.0940144
-0.000360838
0.0940921
-0.000321639
0.0941607
-0.000284095
0.0942203
-0.000248141
0.0942715
-0.000213724
0.0943147
-0.000180779
0.09435
-0.000149255
0.0943779
-0.000119092
0.0943987
-9.02395e-05
0.0944127
-6.26447e-05
0.0944203
-3.62566e-05
0.0944216
-1.10251e-05
0.0944169
1.30979e-05
0.0944066
3.61569e-05
0.0943909
5.81998e-05
0.0943699
7.92703e-05
0.094344
9.94099e-05
0.0943134
0.000118659
0.0942782
0.00013706
0.0942386
0.000154649
0.094195
0.000171465
0.0941473
0.000187545
0.0940959
0.000202921
0.0940408
0.00021763
0.0939822
0.000231702
0.0939204
0.000245171
0.0938553
0.000258064
0.0937872
0.000270414
0.0937162
0.000282246
0.0936424
0.000293587
0.0935658
0.000304466
0.0934867
0.000314905
0.0934051
0.000324927
0.0933212
0.000334559
0.0932349
0.000343821
0.0931465
0.000352733
0.0930559
0.000361316
0.0929632
0.000369591
0.0928686
0.000377575
0.0927721
0.000385284
0.0926737
0.000392741
0.0925736
0.000399956
0.0924717
0.000406948
0.0923681
0.000413731
0.0922629
0.000420318
0.0921561
0.000426726
0.0920477
0.000432963
0.0919378
0.000439046
0.0918265
0.000444983
0.0917137
0.000450788
0.0915995
0.000456469
0.0914839
0.000462039
0.091367
0.000467506
0.0912487
0.000472878
0.0911291
0.000478169
0.0910082
0.000483383
0.090886
0.00048853
0.0907626
0.000493618
0.0906379
0.000498657
0.0905119
0.000503652
0.0903847
0.000508616
0.0902563
0.000513554
0.0901267
0.000518476
0.0899958
0.000523393
0.0898637
0.000528316
0.0897304
0.000533255
0.0895958
0.000538225
0.08946
0.000543241
0.0893229
0.000548324
0.0891846
0.000553495
0.0890449
0.000558781
0.0889039
0.000564218
0.0887614
0.000569846
0.0886176
0.000575718
0.0884722
0.000581902
0.0883252
0.00058848
0.0881764
0.000595559
0.0880258
0.000603278
0.087873
0.000611809
0.087718
0.00062138
0.0875603
0.000632287
0.0873996
0.000644908
0.0872352
0.000659748
0.0870667
0.000677462
0.086893
0.00069893
0.086713
0.000725321
0.0865252
0.000758225
0.0863276
0.000799813
0.0861176
0.000853113
0.0858914
0.000922416
0.0856441
0.00101396
0.085369
0.00113708
0.0850563
0.00130625
0.0846924
0.00154495
0.0842578
0.00189332
0.0837265
0.00242418
0.0830723
0.0032774
0.0823156
0.00472827
0.00726567
0.0817441
0.00233567
-0.0113008
0.00468373
-0.0113635
0.00704076
-0.0114113
0.00940318
-0.0114438
0.0117673
-0.0114605
0.0141296
-0.0114612
0.0164862
-0.0114457
0.0188335
-0.0114142
0.0211679
-0.0113665
0.0234859
-0.011303
0.025784
-0.011224
0.028059
-0.0111299
0.0303078
-0.0110212
0.0325274
-0.0108985
0.034715
-0.0107626
0.0368682
-0.0106141
0.0389846
-0.0104539
0.041062
-0.0102829
0.0430987
-0.0101019
0.0450929
-0.00991182
0.0470432
-0.00971363
0.0489484
-0.00950824
0.0508073
-0.00929655
0.0526194
-0.00907949
0.0543837
-0.00885791
0.0561
-0.00863267
0.057768
-0.00840458
0.0593874
-0.00817443
0.0609583
-0.00794294
0.0624809
-0.00771081
0.0639554
-0.00747868
0.0653821
-0.00724714
0.0667616
-0.00701676
0.0680944
-0.00678803
0.0693811
-0.00656141
0.0706225
-0.00633732
0.0718192
-0.00611613
0.0729721
-0.00589818
0.0740821
-0.00568374
0.0751499
-0.00547308
0.0761766
-0.00526642
0.0771631
-0.00506394
0.0781103
-0.0048658
0.0790192
-0.00467213
0.0798908
-0.00448303
0.080726
-0.00429859
0.0815259
-0.00411885
0.0822914
-0.00394385
0.0830236
-0.00377362
0.0837233
-0.00360816
0.0843917
-0.00344745
0.0850295
-0.00329148
0.0856378
-0.0031402
0.0862175
-0.00299357
0.0867695
-0.00285154
0.0872948
-0.00271404
0.0877941
-0.00258101
0.0882684
-0.00245237
0.0887185
-0.00232803
0.0891452
-0.00220792
0.0895495
-0.00209195
0.0899319
-0.00198003
0.0902934
-0.00187205
0.0906346
-0.00176794
0.0909564
-0.00166759
0.0912594
-0.00157092
0.0915442
-0.00147781
0.0918117
-0.00138817
0.0920625
-0.00130191
0.0922971
-0.00121893
0.0925162
-0.00113913
0.0927204
-0.00106242
0.0929103
-0.000988705
0.0930864
-0.00091789
0.0932494
-0.000849885
0.0933996
-0.000784597
0.0935377
-0.000721939
0.093664
-0.000661822
0.0937792
-0.000604161
0.0938836
-0.000548871
0.0939778
-0.000495871
0.094062
-0.000445077
0.0941368
-0.000396413
0.0942025
-0.000349798
0.0942595
-0.00030516
0.0943082
-0.000262424
0.0943489
-0.000221516
0.094382
-0.000182369
0.0944078
-0.000144912
0.0944267
-0.00010908
0.0944388
-7.48077e-05
0.0944446
-4.20316e-05
0.0944443
-1.06919e-05
0.0944381
1.92735e-05
0.0944263
4.79205e-05
0.0944092
7.53057e-05
0.094387
0.000101484
0.0943599
0.000126507
0.0943281
0.000150428
0.0942919
0.000173294
0.0942514
0.000195154
0.0942068
0.000216055
0.0941583
0.000236041
0.094106
0.000255157
0.0940502
0.000273442
0.093991
0.000290939
0.0939284
0.000307687
0.0938628
0.000323721
0.0937941
0.00033908
0.0937225
0.000353796
0.0936482
0.000367905
0.0935713
0.000381437
0.0934917
0.000394425
0.0934098
0.000406899
0.0933254