/*--------------------------------*- C++ -*----------------------------------*\
  =========                 |
  \\      /  F ield         | OpenFOAM: The Open Source CFD Toolbox
   \\    /   O peration     | Website:  https://openfoam.org
    \\  /    A nd           | Version:  6
     \\/     M anipulation  |
\*---------------------------------------------------------------------------*/
FoamFile
{
    version     2.0;
    format      ascii;
    class       volScalarField;
    location    "700";
    object      alphat;
}
// * * * * * * * * * * * * * * * * * * * * * * * * * * * * * * * * * * * * * //

dimensions      [1 -1 -1 0 0 0 0];

internalField   nonuniform List<scalar> 
16000
(
5.9256379e-06
2.4672152e-05
2.7028251e-05
3.8368991e-05
3.2969056e-05
4.2423745e-05
4.1756925e-05
4.7156099e-05
4.860734e-05
4.8751676e-05
4.9527677e-05
4.7961753e-05
4.8136935e-05
4.6882387e-05
4.6904654e-05
4.6316141e-05
4.6515202e-05
4.6554624e-05
4.704263e-05
4.7576848e-05
4.840984e-05
4.9388838e-05
5.0618538e-05
5.2054131e-05
5.3749223e-05
5.5708133e-05
5.7974164e-05
6.0579494e-05
6.3576424e-05
6.7022334e-05
7.0991874e-05
7.5574849e-05
8.0882626e-05
8.7051018e-05
9.4247318e-05
0.00010267684
0.00011259209
0.00012430359
0.0001381934
0.0001547312
0.0001744946
0.0001981958
0.00022671011
0.00026111159
0.00030271611
0.00035313086
0.00041430789
0.00048860397
0.00057884112
0.00068836263
0.00082107786
0.00098150795
0.001174875
0.0012239068
0.0012251748
0.001225402
0.0012248791
0.0012239344
0.0012227816
0.0012214385
0.0012197805
0.001217827
0.0012155174
0.0012127686
0.0012095238
0.0012058319
0.0012018534
0.0011979744
0.0011943505
0.0011912318
0.0011882459
0.0011860311
0.0011834003
0.0011821351
0.0011794848
0.0011806263
0.0011770398
0.0011843275
0.0011741128
0.0011834681
4.9395785e-06
2.4411041e-05
2.4779744e-05
3.5090313e-05
3.0451345e-05
3.8265841e-05
3.8464914e-05
4.2165523e-05
4.4377836e-05
4.3476904e-05
4.4700575e-05
4.2721654e-05
4.3081265e-05
4.1680746e-05
4.1785634e-05
4.1194313e-05
4.1401546e-05
4.1417263e-05
4.18606e-05
4.2332465e-05
4.3076956e-05
4.3949263e-05
4.50455e-05
4.6324748e-05
4.7834232e-05
4.9578019e-05
5.159379e-05
5.3910222e-05
5.6572969e-05
5.9632568e-05
6.3154328e-05
6.7217023e-05
7.1918269e-05
7.7376971e-05
8.373953e-05
9.1185474e-05
9.9935298e-05
0.00011025978
0.00012249168
0.00013703958
0.00015440454
0.00017520366
0.00020019423
0.00023030393
0.00026666786
0.00031067211
0.00036400109
0.00042869231
0.00050719557
0.0006024327
0.00071785724
0.00085750983
0.0010261076
0.0012227326
0.0012242233
0.001224588
0.0012241114
0.0012231566
0.0012219888
0.0012206811
0.0012191962
0.0012174008
0.0012152446
0.0012126373
0.001209512
0.0012058836
0.0012019134
0.0011979769
0.0011943338
0.0011911321
0.0011881937
0.0011858262
0.0011833996
0.0011820056
0.0011795547
0.0011799622
0.0011769395
0.0011831665
0.0011741496
0.0011831652
4.2228073e-06
2.4149332e-05
2.3009089e-05
3.2290503e-05
2.8448957e-05
3.4720344e-05
3.596876e-05
3.7757931e-05
4.0759507e-05
3.8655632e-05
4.0278327e-05
3.7881921e-05
3.839563e-05
3.6946849e-05
3.712541e-05
3.6554835e-05
3.6768776e-05
3.6780094e-05
3.7189073e-05
3.7618715e-05
3.8293583e-05
3.9083748e-05
4.0073466e-05
4.1228184e-05
4.2588248e-05
4.4158764e-05
4.5972415e-05
4.8055486e-05
5.0448291e-05
5.319608e-05
5.6356831e-05
6.000068e-05
6.4214403e-05
6.9103676e-05
7.4798476e-05
8.1458171e-05
8.9278263e-05
9.8498678e-05
0.00010941384
0.00012238468
0.00013785296
0.00015636198
0.00017857736
0.00020531307
0.00023756329
0.00027654088
0.00032371905
0.00038088009
0.00045017093
0.00053416103
0.00063590545
0.00075900776
0.00090770034
0.0010869663
0.0012232998
0.0012238165
0.0012233934
0.0012224233
0.0012212227
0.0012198916
0.0012184137
0.0012167477
0.0012147789
0.0012123456
0.0012093703
0.0012058399
0.0012018964
0.001197926
0.0011942577
0.0011910103
0.0011880869
0.0011856397
0.0011833211
0.0011818582
0.001179583
0.001179513
0.001176899
0.0011821545
0.0011741352
0.0011822684
3.7596623e-06
2.380005e-05
2.1514506e-05
2.9669962e-05
2.6569456e-05
3.1479792e-05
3.3545659e-05
3.381097e-05
3.7245341e-05
3.4350091e-05
3.6120969e-05
3.3541816e-05
3.4123705e-05
3.2752878e-05
3.2949952e-05
3.2435951e-05
3.2640583e-05
3.266403e-05
3.3040146e-05
3.344042e-05
3.4056071e-05
3.4779273e-05
3.5679257e-05
3.6729595e-05
3.7963627e-05
3.938804e-05
4.1031125e-05
4.2917426e-05
4.5082904e-05
4.7568581e-05
5.0426486e-05
5.371984e-05
5.75267e-05
6.1942192e-05
6.7083164e-05
7.3092903e-05
8.0147129e-05
8.8461338e-05
9.8300044e-05
0.00010998711
0.00012391788
0.00014057875
0.00016056495
0.0001846034
0.00021358085
0.00024857886
0.00029091075
0.00034216582
0.00040426131
0.00047949773
0.00057062231
0.00068089604
0.00081417071
0.00097500095
0.0011687825
0.0012230708
0.0012227113
0.0012217241
0.0012204828
0.0012191157
0.0012176123
0.0012159457
0.001214066
0.0012118454
0.0012090585
0.0012056656
0.0012017779
0.0011977956
0.0011941108
0.0011908401
0.0011879268
0.0011854355
0.0011831887
0.0011815842
0.0011795777
0.0011792429
0.0011768737
0.0011811297
0.0011741541
0.0011817292
3.377618e-06
2.3323532e-05
2.0307651e-05
2.724115e-05
2.4844398e-05
2.8520134e-05
3.1266155e-05
3.0237136e-05
3.3868851e-05
3.04423e-05
3.2210119e-05
2.9668484e-05
3.0236921e-05
2.8995649e-05
2.9182353e-05
2.874275e-05
2.893232e-05
2.8976644e-05
2.9324196e-05
2.9703913e-05
3.0270129e-05
3.093828e-05
3.1762835e-05
3.2725298e-05
3.3852681e-05
3.5153258e-05
3.6651647e-05
3.8370961e-05
4.0343615e-05
4.2607159e-05
4.5208732e-05
4.8205855e-05
5.1669469e-05
5.5686017e-05
6.0361649e-05
6.5826602e-05
7.2240524e-05
7.9799081e-05
8.874265e-05
9.9365668e-05
0.00011202632
0.00012716565
0.00014532325
0.00016715763
0.00019347118
0.00022524301
0.00026366195
0.00031016739
0.00036649819
0.00043474516
0.0005174137
0.00061749209
0.00073853048
0.00088474113
0.0010611414
0.001222336
0.0012220559
0.0012210531
0.0012197657
0.0012183566
0.0012168183
0.0012151285
0.0012132522
0.001211122
0.0012085663
0.0012053552
0.0012015574
0.0011975851
0.0011938956
0.0011906196
0.0011877177
0.0011852095
0.0011830123
0.00118132
0.0011795238
0.0011789759
0.0011768582
0.0011802175
0.0011741774
0.0011809717
3.0547469e-06
2.0392573e-05
1.924845e-05
2.4948481e-05
2.3277871e-05
2.578538e-05
2.9115396e-05
2.6984417e-05
3.0638778e-05
2.6933017e-05
2.8576392e-05
2.6232812e-05
2.6735507e-05
2.5652059e-05
2.5811389e-05
2.5453081e-05
2.5625566e-05
2.569434e-05
2.6017903e-05
2.6382981e-05
2.6908494e-05
2.7531504e-05
2.8293345e-05
2.9182485e-05
3.0220705e-05
3.1417561e-05
3.2794733e-05
3.4374129e-05
3.6185325e-05
3.8263024e-05
4.0650391e-05
4.3400285e-05
4.6577862e-05
5.0262517e-05
5.4551735e-05
5.9565123e-05
6.5449426e-05
7.2384363e-05
8.0590697e-05
9.0339559e-05
0.00010195943
0.00011585502
0.00013252166
0.00015256369
0.00017671633
0.00020587749
0.00024113742
0.0002838164
0.00033551144
0.00039814542
0.00047402846
0.00056592584
0.00067713719
0.0008115922
0.00097398517
0.0011699217
0.0012214134
0.0012203997
0.0012190623
0.0012176066
0.0012160283
0.0012143073
0.0012124145
0.0012103027
0.0012078772
0.0012048982
0.0012012307
0.0011972922
0.001193612
0.0011903468
0.0011874629
0.0011849583
0.0011827997
0.0011810579
0.0011794218
0.0011787034
0.0011768483
0.0011794728
0.0011742226
0.00118044
2.7557609e-06
1.9110719e-05
1.8003696e-05
2.2780789e-05
2.1860804e-05
2.3271395e-05
2.7065287e-05
2.4024654e-05
2.7555181e-05
2.3839905e-05
2.5274914e-05
2.3188191e-05
2.3595097e-05
2.2677761e-05
2.2801746e-05
2.2522735e-05
2.267857e-05
2.2771225e-05
2.3074941e-05
2.3428745e-05
2.3920591e-05
2.4505918e-05
2.5215316e-05
2.6042806e-05
2.7006107e-05
2.8115636e-05
2.9390796e-05
3.0852432e-05
3.2527809e-05
3.4449312e-05
3.6656832e-05
3.9199349e-05
4.2137332e-05
4.5544377e-05
4.9510859e-05
5.4147779e-05
5.9591337e-05
6.600831e-05
7.360351e-05
8.262943e-05
9.3390523e-05
0.00010626228
0.00012170446
0.00014027815
0.00016266478
0.00018969736
0.00022238767
0.0002619608
0.00030990055
0.00036799533
0.00043839788
0.00052369238
0.00062697276
0.00075193759
0.00090301293
0.0010855075
0.0012207696
0.0012197543
0.0012183643
0.0012168591
0.0012152375
0.001213481
0.001211564
0.0012094478
0.001207066
0.0012042845
0.0012007949
0.001196916
0.0011932605
0.001190021
0.0011871643
0.0011846791
0.0011825541
0.001180796
0.0011792778
0.0011783969
0.0011768363
0.0011788262
0.0011742701
0.0011799133
2.4927161e-06
1.8577354e-05
1.6796382e-05
2.0748214e-05
2.0557799e-05
2.0938893e-05
2.5047642e-05
2.1371646e-05
2.4584308e-05
2.1093755e-05
2.2275642e-05
2.04769e-05
2.0778757e-05
2.0024724e-05
2.0114579e-05
1.9909618e-05
2.0052628e-05
2.0167941e-05
2.0456887e-05
2.0802474e-05
2.1267523e-05
2.182203e-05
2.2488394e-05
2.3264795e-05
2.416589e-05
2.5202714e-05
2.6392874e-05
2.7756276e-05
2.9318362e-05
3.110958e-05
3.3167222e-05
3.5536995e-05
3.8275597e-05
4.1451893e-05
4.5150433e-05
4.9475246e-05
5.4553979e-05
6.0542941e-05
6.7633845e-05
7.6064493e-05
8.6119803e-05
9.8151713e-05
0.00011259125
0.00012996502
0.00015091092
0.00017620971
0.00020681027
0.00024386093
0.00028875434
0.00034316998
0.00040913269
0.00048907823
0.00058593054
0.00070319557
0.00084507681
0.0010166297
0.0012201077
0.001219106
0.0012176626
0.0012161061
0.0012144395
0.0012126453
0.0012107003
0.0012085711
0.0012062046
0.0012035028
0.0012002479
0.0011964576
0.0011928427
0.0011896435
0.0011868252
0.001184373
0.0011822814
0.0011805319
0.0011791008
0.0011780931
0.0011768162
0.0011782254
0.001174325
0.0011794692
2.2656859e-06
1.7991217e-05
1.5679601e-05
1.8818397e-05
1.9342154e-05
1.8739654e-05
2.3015735e-05
1.899354e-05
2.1755497e-05
1.8638162e-05
1.9557275e-05
1.8051829e-05
1.8254811e-05
1.7652819e-05
1.7715268e-05
1.7577015e-05
1.7712524e-05
1.7848724e-05
1.8127966e-05
1.8467984e-05
1.891236e-05
1.9442112e-05
2.0073634e-05
2.0808161e-05
2.1658116e-05
2.2634832e-05
2.3754644e-05
2.5036581e-05
2.6504651e-05
2.8187722e-05
3.0120965e-05
3.2347416e-05
3.492068e-05
3.790579e-05
4.1382597e-05
4.5449397e-05
5.0226988e-05
5.5863308e-05
6.2539054e-05
7.0480826e-05
7.9957569e-05
9.1302217e-05
0.00010492256
0.00012131785
0.00014109067
0.00016497971
0.00019388346
0.00022888816
0.00027131318
0.00032275005
0.00038511974
0.00046073689
0.0005523859
0.00066341319
0.00079784022
0.00096051115
0.0011572526
0.0012184442
0.001216948
0.0012153399
0.0012136279
0.0012117954
0.001209821
0.0012076753
0.0012053145
0.0012026657
0.0011995883
0.0011959197
0.0011923613
0.0011892166
0.0011864487
0.0011840414
0.0011819873
0.0011802657
0.0011788992
0.0011778209
0.0011767855
0.0011776764
0.0011743948
0.0011790311
2.0687985e-06
1.7326346e-05
1.463566e-05
1.6970841e-05
1.8196642e-05
1.6747803e-05
2.0948482e-05
1.6854915e-05
1.9127616e-05
1.6436561e-05
1.7107969e-05
1.5880414e-05
1.5999411e-05
1.5532417e-05
1.5576387e-05
1.5496327e-05
1.5629703e-05
1.5784822e-05
1.6058848e-05
1.6395603e-05
1.6824718e-05
1.7335092e-05
1.7939011e-05
1.8639776e-05
1.9448317e-05
2.0376032e-05
2.1438317e-05
2.2653448e-05
2.4044292e-05
2.5638459e-05
2.7469415e-05
2.9577981e-05
3.2015295e-05
3.4843313e-05
3.8138091e-05
4.199327e-05
4.6524243e-05
5.1872373e-05
5.8208857e-05
6.5752256e-05
7.4758433e-05
8.5545017e-05
9.8500901e-05
0.00011410423
0.00013292873
0.00015567915
0.00018321398
0.00021656915
0.00025700543
0.0003060433
0.00036551973
0.00043765093
0.00052510713
0.0006311035
0.00075951136
0.00091499951
0.0011031964
0.0012177583
0.0012162119
0.0012145531
0.0012127966
0.0012109265
0.0012089229
0.0012067594
0.0012043988
0.0012017832
0.001198814
0.0011953066
0.0011918203
0.0011887438
0.0011860388
0.0011836871
0.0011816773
0.0011799979
0.0011786803
0.0011775788
0.0011767435
0.0011771914
0.0011744823
0.0011786058
1.8979169e-06
1.6552335e-05
1.366524e-05
1.519219e-05
1.7092573e-05
1.4942831e-05
1.8836041e-05
1.4925619e-05
1.6711624e-05
1.4458776e-05
1.4912878e-05
1.3935011e-05
1.3989101e-05
1.363791e-05
1.3672757e-05
1.3642531e-05
1.3778666e-05
1.3950927e-05
1.4163548e-05
1.4489483e-05
1.4900765e-05
1.5390662e-05
1.5968023e-05
1.6636982e-05
1.7407054e-05
1.8289332e-05
1.9298245e-05
2.0451199e-05
2.1769904e-05
2.3280776e-05
2.501574e-05
2.701346e-05
2.9322879e-05
3.2003157e-05
3.5126964e-05
3.8783793e-05
4.3084215e-05
4.8164342e-05
5.4548018e-05
6.1770323e-05
7.0398032e-05
8.0736698e-05
9.3159555e-05
0.0001081292
0.0001261958
0.00014803668
0.00017447931
0.00020651874
0.00024536955
0.00029249538
0.00034966583
0.00041901798
0.00050312987
0.00060511032
0.00072870834
0.00087844967
0.0010597998
0.0012170378
0.0012154459
0.0012137387
0.0012119397
0.001210034
0.0012080029
0.0012058224
0.0012034602
0.0012008683
0.0011979693
0.0011946243
0.0011912247
0.0011882297
0.0011855995
0.0011833135
0.0011813567
0.0011797296
0.001178451
0.0011773631
0.0011766889
0.0011767825
0.0011745861
0.0011782221
1.74946e-06
1.5653442e-05
1.2757825e-05
1.3471496e-05
1.5986096e-05
1.3302644e-05
1.669923e-05
1.3178338e-05
1.4511704e-05
1.2678176e-05
1.2954148e-05
1.2191819e-05
1.2201285e-05
1.1947295e-05
1.1924543e-05
1.1915482e-05
1.2046394e-05
1.2227822e-05
1.2497044e-05
1.2831117e-05
1.3241282e-05
1.3724853e-05
1.428935e-05
1.4940047e-05
1.5685921e-05
1.6538123e-05
1.7510616e-05
1.8620338e-05
1.9888274e-05
2.1340088e-05
2.3006791e-05
2.4925384e-05
2.7143355e-05
2.9717949e-05
3.271944e-05
3.6234298e-05
4.0369547e-05
4.525865e-05
5.1061193e-05
5.7974812e-05
6.6241237e-05
7.6155775e-05
8.8762286e-05
0.00010323416
0.00012070618
0.00014183333
0.00016742017
0.0001984283
0.00023603685
0.00028166468
0.00033702813
0.00040420164
0.00048569013
0.00058451779
0.00070433641
0.00084955808
0.0010255187
0.0012162728
0.0012146428
0.0012128905
0.0012110524
0.0012091141
0.0012070583
0.001204863
0.0012024999
0.0011999292
0.0011970902
0.0011938803
0.001190581
0.0011876797
0.0011851356
0.0011829246
0.0011810303
0.0011794623
0.0011782183
0.0011771695
0.0011766193
0.0011764519
0.0011747028
0.0011779119
1.6212025e-06
1.4625289e-05
1.1913886e-05
1.1908981e-05
1.4839257e-05
1.1806843e-05
1.4634009e-05
1.1591053e-05
1.252904e-05
1.1073761e-05
1.1213916e-05
1.0631904e-05
1.0532066e-05
1.0331922e-05
1.0358987e-05
1.0403601e-05
1.0557186e-05
1.0762768e-05
1.1043119e-05
1.1384709e-05
1.1795314e-05
1.2274858e-05
1.2830162e-05
1.3467276e-05
1.4194774e-05
1.5023838e-05
1.5968089e-05
1.7044054e-05
1.8272127e-05
1.9677394e-05
2.129034e-05
2.3146443e-05
2.5292186e-05
2.7783384e-05
3.0688551e-05
3.4091811e-05
3.8096941e-05
4.2835592e-05
4.8463027e-05
5.517235e-05
6.3199709e-05
7.2834108e-05
8.4431003e-05
9.8416848e-05
0.00011531483
0.00013688672
0.00016182173
0.00019204317
0.00022870435
0.00027318974
0.00032717459
0.00039268507
0.00047216956
0.00056858685
0.00068551384
0.00082727636
0.00099911287
0.0012073574
0.0012137963
0.0012120033
0.0012101303
0.0012081637
0.0012060871
0.0012038804
0.0012015184
0.0011989681
0.0011961815
0.0011930836
0.0011898964
0.0011870998
0.0011846519
0.0011825247
0.0011807022
0.0011791976
0.0011779878
0.0011769949
0.0011765319
0.0011761861
0.0011748273
0.0011776539
1.510726e-06
1.3470473e-05
1.1125389e-05
1.04913e-05
1.3612573e-05
1.0441903e-05
1.2676723e-05
1.0149404e-05
1.0761999e-05
9.630666e-06
9.5813783e-06
9.1016427e-06
9.053027e-06
8.9436931e-06
9.0001295e-06
9.0878702e-06
9.2623818e-06
9.4883904e-06
9.7796206e-06
1.012863e-05
1.0541278e-05
1.10191e-05
1.1568601e-05
1.2196426e-05
1.2910795e-05
1.3722917e-05
1.4646176e-05
1.5696757e-05
1.6894548e-05
1.8264157e-05
1.9759487e-05
2.1552999e-05
2.3626367e-05
2.6034002e-05
2.8842796e-05
3.21348e-05
3.6217322e-05
4.0841989e-05
4.633735e-05
5.2893338e-05
6.0741949e-05
7.0166117e-05
8.151758e-05
9.521356e-05
0.00011176849
0.00013181084
0.00015609644
0.00018715028
0.00022311912
0.00026676949
0.00031974613
0.00038403954
0.00046205624
0.00055670668
0.00067151262
0.0008107385
0.00097955393
0.0011842189
0.0012129019
0.0012110735
0.0012091708
0.0012071808
0.0012050881
0.0012028743
0.0012005169
0.0011979876
0.0011952485
0.0011922442
0.0011891793
0.0011864966
0.0011841532
0.0011821178
0.0011803758
0.0011789372
0.0011777641
0.0011768378
0.0011764244
0.0011759196
0.0011749532
0.0011774456
1.4167125e-06
1.2203122e-05
1.038312e-05
9.2030319e-06
1.2268014e-05
9.1926391e-06
1.0856255e-05
8.8378664e-06
9.2014765e-06
8.1910383e-06
8.1224112e-06
7.7999674e-06
7.778471e-06
7.7402212e-06
7.8245888e-06
7.9474961e-06
8.1414997e-06
8.3853391e-06
8.6874117e-06
9.0441232e-06
9.4604215e-06
9.9387828e-06
1.0485588e-05
1.1081229e-05
1.1780343e-05
1.2573845e-05
1.3474639e-05
1.4498354e-05
1.5664153e-05
1.6995738e-05
1.8522002e-05
2.0278431e-05
2.2308662e-05
2.4666438e-05
2.7417963e-05
3.0644831e-05
3.4447541e-05
3.8949886e-05
4.430418e-05
5.0697569e-05
5.8358636e-05
6.807716e-05
7.9258447e-05
9.2754097e-05
0.0001090706
0.00012883146
0.00015278193
0.00018183414
0.00021906299
0.00026214469
0.00031443414
0.00037789725
0.00045491188
0.0005483553
0.00066171179
0.00079920578
0.00096596297
0.001168198
0.0012119567
0.001210099
0.0012081723
0.0012061645
0.0012040613
0.0012018456
0.0011994971
0.0011969912
0.0011942971
0.0011913733
0.0011884385
0.0011858769
0.0011836445
0.0011817078
0.0011800535
0.0011786828
0.0011775515
0.0011766941
0.0011763023
0.0011756982
0.0011750676
0.0011772592
1.3388937e-06
1.0837112e-05
9.6788851e-06
8.0330513e-06
1.0847987e-05
8.0472385e-06
9.2066726e-06
7.5848994e-06
7.629094e-06
6.9437264e-06
6.8780599e-06
6.6759674e-06
6.6837056e-06
6.7014289e-06
6.8121847e-06
6.9644445e-06
7.1767504e-06
7.43671e-06
7.7497907e-06
8.1147403e-06
8.5161772e-06
8.9917396e-06
9.5334222e-06
1.0147851e-05
1.0843534e-05
1.1630859e-05
1.2522705e-05
1.353458e-05
1.4685347e-05
1.599851e-05
1.7502683e-05
1.9233029e-05
2.1232841e-05
2.3555478e-05
2.6266724e-05
2.9447663e-05
3.3198157e-05
3.7641149e-05
4.2927917e-05
4.9244729e-05
5.6820475e-05
6.5931906e-05
7.6917548e-05
9.0187081e-05
0.00010711983
0.00012671046
0.00015045656
0.0001792678
0.0002142339
0.00025908476
0.00031096411
0.00037393121
0.00045034706
0.00054306939
0.00065556069
0.00079202429
0.00095756501
0.001158379
0.0012109598
0.0012090791
0.0012071347
0.0012051153
0.0012030076
0.0012007958
0.0011984615
0.0011959828
0.0011933338
0.0011904823
0.001187683
0.0011852472
0.0011831301
0.0011812977
0.0011797361
0.0011784354
0.0011773537
0.0011765631
0.0011761674
0.0011755115
0.001175156
0.0011770768
1.2784492e-06
9.3838154e-06
8.9899847e-06
6.9688522e-06
9.3891385e-06
6.9732252e-06
8.2383363e-06
6.3796024e-06
6.3283937e-06
5.8691202e-06
5.8203912e-06
5.7090897e-06
5.7469976e-06
5.8098552e-06
5.9454459e-06
6.1229768e-06
6.3527018e-06
6.6277169e-06
6.933469e-06
7.3028108e-06
7.7265278e-06
8.208433e-06
8.7540908e-06
9.3703772e-06
1.0065876e-05
1.0850953e-05
1.1738488e-05
1.2743981e-05
1.388596e-05
1.5187881e-05
1.6678208e-05
1.8391964e-05
2.0372331e-05
2.2672573e-05
2.535841e-05
2.8510872e-05
3.2229735e-05
3.6637671e-05
4.1885405e-05
4.8158408e-05
5.5686714e-05
6.4745899e-05
7.5675068e-05
8.8883418e-05
0.00010486895
0.00012423676
0.00014899044
0.00017769464
0.00021253636
0.00025482986
0.00030907991
0.00037183614
0.00044799795
0.00054041612
0.00065254452
0.0007885826
0.00095363447
0.0011539025
0.0012099124
0.0012080154
0.0012060597
0.0012040349
0.0012019289
0.0011997272
0.0011974131
0.0011949667
0.0011923652
0.0011895823
0.0011869217
0.0011846136
0.001182614
0.001180889
0.0011794227
0.0011781937
0.0011771704
0.0011764425
0.0011760228
0.0011753474
0.0011752177
0.0011768943
1.2406641e-06
7.8685941e-06
8.2802617e-06
6.0120437e-06
7.9617672e-06
6.5921152e-06
6.5146876e-06
5.3001512e-06
5.2528447e-06
4.9438943e-06
4.923587e-06
4.8832165e-06
4.9507291e-06
5.0511646e-06
5.2100916e-06
5.4098996e-06
5.6400709e-06
5.9253092e-06
6.2577548e-06
6.6387063e-06
7.0716579e-06
7.5609408e-06
8.1123053e-06
8.7327788e-06
9.4310318e-06
1.0217319e-05
1.1104548e-05
1.2081625e-05
1.3212555e-05
1.4500186e-05
1.5972634e-05
1.7664584e-05
1.9618908e-05
2.1888583e-05
2.4539093e-05
2.7651259e-05
3.1324671e-05
3.568171e-05
4.0872357e-05
4.7391299e-05
5.4905769e-05
6.3951749e-05
7.4871089e-05
8.8072734e-05
0.00010405452
0.0001234224
0.00014691126
0.00017696473
0.00021181576
0.00025412542
0.00030548058
0.00037131035
0.00044750432
0.0005399669
0.00065215318
0.00078827369
0.00095344971
0.0011539113
0.0012088177
0.0012069112
0.0012049508
0.0012029269
0.0012008287
0.0011986432
0.0011963554
0.0011939473
0.0011913979
0.0011886841
0.0011861629
0.0011839821
0.0011820993
0.0011804823
0.001179111
0.0011779553
0.0011769982
0.0011763265
0.0011758721
0.0011752101
0.0011752621
0.0011766929
1.2286448e-06
7.2259998e-06
7.5542702e-06
6.150473e-06
7.6094434e-06
5.0347202e-06
5.0556956e-06
4.3973795e-06
4.3504964e-06
4.1632013e-06
4.1698983e-06
4.1865756e-06
4.2818598e-06
4.4137196e-06
4.5818664e-06
4.7966557e-06
5.0555594e-06
5.356852e-06
5.7024803e-06
6.0947141e-06
6.5373512e-06
7.0350676e-06
7.5937474e-06
8.2204737e-06
8.9103712e-06
9.6964921e-06
1.0581458e-05
1.1580407e-05
1.2711896e-05
1.3998756e-05
1.5469165e-05
1.7157938e-05
1.9108178e-05
2.1373204e-05
2.4018982e-05
2.7126966e-05
3.0797567e-05
3.5154288e-05
4.0348709e-05
4.6566394e-05
5.4033879e-05
6.3488087e-05
7.4435303e-05
8.7675712e-05
0.00010370756
0.00012313873
0.00014670668
0.00017530572
0.0002118889
0.00025434408
0.00030587344
0.00036841853
0.00044849183
0.00054127572
0.00065385484
0.00079046325
0.0009562546
0.001157504
0.0012076814
0.0012057721
0.0012038132
0.0012017962
0.0011997115
0.0011975478
0.0011952921
0.0011929285
0.0011904377
0.0011877973
0.0011854139
0.0011833575
0.0011815884
0.0011800765
0.0011787972
0.0011777162
0.0011768283
0.0011762024
0.0011757194
0.001175106
0.0011752681
0.0011764593
1.2391896e-06
7.4142832e-06
6.7687016e-06
6.6489173e-06
6.6262681e-06
4.021285e-06
4.1028617e-06
3.6353689e-06
3.6021745e-06
3.50929e-06
3.5443805e-06
3.6064183e-06
3.7277746e-06
3.8734078e-06
4.069547e-06
4.3050234e-06
4.5805407e-06
4.8961802e-06
5.2542751e-06
5.6577341e-06
6.1105999e-06
6.6177651e-06
7.1770046e-06
7.8088925e-06
8.5161988e-06
9.3090842e-06
1.0199909e-05
1.1203785e-05
1.2339279e-05
1.3629285e-05
1.5102128e-05
1.6792881e-05
1.8745003e-05
2.1012326e-05
2.3661469e-05
2.6774718e-05
3.0453486e-05
3.4822511e-05
4.0034802e-05
4.6277496e-05
5.3779333e-05
6.2819508e-05
7.4293441e-05
8.7606252e-05
0.00010372793
0.00012326933
0.00014697127
0.00017573192
0.00021255752
0.00025525162
0.00030706667
0.0003699541
0.00045055332
0.00054385613
0.00065706855
0.00079445698
0.00096121885
0.0011636877
0.0012065108
0.0012046053
0.001202654
0.0012006495
0.0011985832
0.0011964459
0.0011942267
0.0011919127
0.0011894875
0.0011869292
0.0011846803
0.0011827439
0.0011810833
0.0011796703
0.0011784778
0.0011774705
0.00117665
0.0011760637
0.0011755762
0.0011750209
0.0011752123
0.0011761743
1.0185024e-06
7.9010857e-06
5.8805809e-06
4.2829968e-06
4.2661674e-06
3.339488e-06
3.2774653e-06
3.0192508e-06
2.993105e-06
2.9705607e-06
3.0335977e-06
3.1311169e-06
3.2650773e-06
3.4420159e-06
3.65851e-06
3.9113718e-06
4.2016324e-06
4.5305127e-06
4.9006986e-06
5.3155e-06
5.7791191e-06
6.2907471e-06
6.8658311e-06
7.5073578e-06
8.2236957e-06
9.0249619e-06
9.9234747e-06
1.0934339e-05
1.2076166e-05
1.3371975e-05
1.4850303e-05
1.6546564e-05
1.8504687e-05
2.0779125e-05
2.3437277e-05
2.6562371e-05
3.0256991e-05
3.4647308e-05
3.9887961e-05
4.6167417e-05
5.3716152e-05
6.3282395e-05
7.436455e-05
8.7769904e-05
0.00010400511
0.00012368483
0.00014755422
0.00017651662
0.00021359878
0.00025658389
0.00030874796
0.00037205499
0.00045322814
0.00054715756
0.00066113538
0.00079946597
0.00096739716
0.001171329
0.0012053148
0.0012034194
0.0012014817
0.0011994948
0.0011974515
0.0011953438
0.0011931631
0.0011909001
0.0011885444
0.0011860852
0.0011839655
0.0011821438
0.0011805856
0.0011792639
0.0011781502
0.0011772121
0.0011764565
0.0011759089
0.0011754188
0.0011748856
0.0011750855
0.0011758254
7.967924e-07
6.0595367e-06
4.6053003e-06
3.2387456e-06
3.3085095e-06
2.7065669e-06
2.6414355e-06
2.4964699e-06
2.5005393e-06
2.5283081e-06
2.620014e-06
2.7389486e-06
2.9019874e-06
3.1005942e-06
3.3344332e-06
3.6024742e-06
3.9062197e-06
4.2476258e-06
4.6296458e-06
5.0558245e-06
5.5270507e-06
6.0537251e-06
6.6394422e-06
7.2911529e-06
8.0171708e-06
8.8275614e-06
9.7346154e-06
1.0753448e-05
1.1902748e-05
1.3205701e-05
1.4691111e-05
1.639478e-05
1.8361167e-05
2.06454e-05
2.3315683e-05
2.6456198e-05
3.0170694e-05
3.4586853e-05
3.9861477e-05
4.6184076e-05
5.4158661e-05
6.3399146e-05
7.456084e-05
8.8063788e-05
0.00010441797
0.00012424196
0.00014828574
0.00017745788
0.00021476386
0.00025804431
0.00031056327
0.00037429812
0.00045599685
0.00055055796
0.00066530955
0.00080459502
0.00097371394
0.001179134
0.0012041037
0.0012022246
0.0012003063
0.0011983425
0.0011963266
0.0011942514
0.0011921093
0.0011898918
0.0011875901
0.0011852682
0.0011832707
0.0011815573
0.0011800952
0.0011788575
0.0011778144
0.0011769387
0.0011762405
0.0011757234
0.0011752379
0.0011747503
0.0011749195
0.0011754294
6.2230575e-07
3.385601e-06
3.6579282e-06
2.6333072e-06
2.5551395e-06
2.1888044e-06
2.1406801e-06
2.0757727e-06
2.1098359e-06
2.1771603e-06
2.2941702e-06
2.4378942e-06
2.6216971e-06
2.8378783e-06
3.0865106e-06
3.3679548e-06
3.6841024e-06
4.0373429e-06
4.4307736e-06
4.8680303e-06
5.3533967e-06
5.888783e-06
6.4849551e-06
7.1466979e-06
7.8822679e-06
8.7016864e-06
9.6172301e-06
1.0644047e-05
1.1800924e-05
1.3111225e-05
1.460404e-05
1.6315574e-05
1.8290817e-05
2.0585568e-05
2.32688e-05
2.6425558e-05
3.0160449e-05
3.4791514e-05
4.0139183e-05
4.6550887e-05
5.4262296e-05
6.3560237e-05
7.4792803e-05
8.8382019e-05
0.00010484047
0.00012479004
0.00014898567
0.00017990565
0.00021578131
0.00025930706
0.00031212109
0.00037621288
0.00045827652
0.00055335634
0.00066874733
0.00080882755
0.00097894285
0.0011856218
0.0012028887
0.0012010318
0.0011991387
0.0011972037
0.0011952207
0.0011931835
0.0011910851
0.0011889183
0.0011866753
0.0011844794
0.0011825941
0.0011809807
0.0011796074
0.0011784468
0.001177469
0.0011766518
0.0011760035
0.0011755094
0.0011750399
0.0011746164
0.0011747483
0.0011750721
5.0352979e-07
2.5995087e-06
2.7994393e-06
2.0805929e-06
1.9913891e-06
1.7780832e-06
1.7520586e-06
1.7443943e-06
1.8067696e-06
1.9055156e-06
2.0447733e-06
2.2112372e-06
2.4120848e-06
2.6430223e-06
2.9046521e-06
3.1981591e-06
3.5256902e-06
3.8898559e-06
4.2938113e-06
4.7412116e-06
5.2363045e-06
5.7840314e-06
6.3901982e-06
7.0617087e-06
7.8068727e-06
8.6358032e-06
9.5609198e-06
1.059758e-05
1.1764858e-05
1.3086502e-05
1.459209e-05
1.6318437e-05
1.831129e-05
2.0627338e-05
2.3336626e-05
2.6525525e-05
3.0300204e-05
3.4790804e-05
4.0156267e-05
4.6590673e-05
5.4330789e-05
6.366466e-05
7.4942246e-05
8.8585785e-05
0.00010510859
0.00012619012
0.00015065265
0.00018031759
0.00021630036
0.00025995382
0.00031292117
0.00038076118
0.0004593308
0.00055467306
0.00067039726
0.00081090537
0.00098157634
0.0011889828
0.0012016802
0.001199851
0.0011979883
0.0011960871
0.0011941418
0.0011921469
0.0011900965
0.0011879841
0.0011858032
0.0011837188
0.0011819328
0.0011804081
0.0011791136
0.0011780212
0.0011771022
0.0011763383
0.001175733
0.0011752583
0.0011748119
0.0011744491
0.0011745351
0.0011747028
3.8692856e-07
2.0237695e-06
2.1020565e-06
1.651465e-06
1.5608146e-06
1.4494869e-06
1.4480435e-06
1.482943e-06
1.5709288e-06
1.694635e-06
1.8523291e-06
2.0374889e-06
2.2516273e-06
2.494215e-06
2.7662917e-06
3.0695076e-06
3.4061546e-06
3.7789495e-06
4.1910635e-06
4.6461456e-06
5.148417e-06
5.7027851e-06
6.3149993e-06
6.9918913e-06
7.7416969e-06
8.5744597e-06
9.5025431e-06
1.0541269e-05
1.1709708e-05
1.3031633e-05
1.4536694e-05
1.6261816e-05
1.8252887e-05
2.0566763e-05
2.3273748e-05
2.6460627e-05
3.0233643e-05
3.4722981e-05
4.0087608e-05
4.6521621e-05
5.4261357e-05
6.4063215e-05
7.5425494e-05
8.9167038e-05
0.00010580297
0.0001259581
0.00015039005
0.0001800178
0.00021595661
0.00025955636
0.00031530776
0.00037995841
0.00045840356
0.00055360844
0.00066918611
0.0008095456
0.00098007699
0.00118737
0.0012004912
0.0011986944
0.0011968666
0.0011950031
0.0011930993
0.0011911501
0.0011891503
0.0011870945
0.001184977
0.0011829872
0.0011812854
0.0011798357
0.0011786076
0.0011775727
0.001176704
0.0011759858
0.0011754152
0.0011749576
0.0011745386
0.0011742267
0.0011742641
0.0011743118
2.4320319e-07
1.5998413e-06
1.5328103e-06
1.321895e-06
1.240146e-06
1.1977908e-06
1.2237966e-06
1.2933121e-06
1.4056328e-06
1.55081e-06
1.7250637e-06
1.9256643e-06
2.1524284e-06
2.4061527e-06
2.6883529e-06
3.0003923e-06
3.3457584e-06
3.7267459e-06
4.1465275e-06
4.6087603e-06
5.1176865e-06
5.67822e-06
6.2960449e-06
6.9779039e-06
7.7319548e-06
8.5681553e-06
9.4987898e-06
1.0539105e-05
1.1708099e-05
1.3029486e-05
1.4532856e-05
1.6255063e-05
1.8241873e-05
2.0549945e-05
2.3337497e-05
2.6536256e-05
3.032289e-05
3.4827631e-05
4.0209602e-05
4.6663066e-05
5.4424255e-05
6.3779919e-05
7.5078243e-05
8.8741833e-05
0.00010528143
0.00012531726
0.00014960128
0.00018064413
0.00021661764
0.00026024361
0.00031316115
0.00037736255
0.00045527151
0.00054983941
0.00066466413
0.00080413808
0.0009736334
0.0011797197
0.0011993304
0.0011975698
0.0011957804
0.0011939581
0.0011920985
0.0011901972
0.0011882496
0.0011862509
0.0011841963
0.0011822816
0.0011806467
0.0011792566
0.0011780808
0.0011770912
0.0011762626
0.0011755805
0.0011750359
0.0011745924
0.0011742002
0.001173926
0.0011739132
0.0011738688
3.3949214e-07
1.2854751e-06
1.1257991e-06
1.0587232e-06
1.0137882e-06
1.0123955e-06
1.0615209e-06
1.1536863e-06
1.2813076e-06
1.4378208e-06
1.6197247e-06
1.8258706e-06
2.0566039e-06
2.3130903e-06
2.5970321e-06
2.9105112e-06
3.2559618e-06
3.6362115e-06
4.0544919e-06
4.514508e-06
5.020472e-06
5.5771447e-06
6.1897143e-06
6.8648406e-06
7.6107041e-06
8.4372188e-06
9.3565867e-06
1.0383935e-05
1.1538104e-05
1.2842603e-05
1.4326764e-05
1.6027112e-05
1.7989004e-05
2.0268615e-05
2.2935274e-05
2.6074017e-05
2.9789171e-05
3.4208636e-05
3.9488795e-05
4.5820298e-05
5.3434822e-05
6.2613661e-05
7.4270562e-05
8.777965e-05
0.00010412945
0.00012393286
0.00014793339
0.00017703319
0.00021232747
0.00025514646
0.00030710692
0.00037017541
0.0004467459
0.00053973545
0.00065270224
0.00078999282
0.00095692529
0.001160006
0.0011981919
0.0011964731
0.0011947269
0.0011929498
0.0011911379
0.0011892873
0.0011873941
0.0011854542
0.0011834634
0.0011816018
0.0011800144
0.0011786663
0.0011775269
0.0011765685
0.0011757677
0.0011751096
0.0011745801