/*--------------------------------*- C++ -*----------------------------------*\
  =========                 |
  \\      /  F ield         | OpenFOAM: The Open Source CFD Toolbox
   \\    /   O peration     | Website:  https://openfoam.org
    \\  /    A nd           | Version:  6
     \\/     M anipulation  |
\*---------------------------------------------------------------------------*/
FoamFile
{
    version     2.0;
    format      ascii;
    class       volScalarField;
    location    "700";
    object      k;
}
// * * * * * * * * * * * * * * * * * * * * * * * * * * * * * * * * * * * * * //

dimensions      [0 2 -2 0 0 0 0];

internalField   nonuniform List<scalar> 
16000
(
0.12567046
0.031768901
0.021358621
0.017642546
0.015209295
0.014330011
0.013315756
0.012980564
0.012512374
0.01229444
0.012040911
0.011875341
0.011714762
0.011588434
0.011475881
0.011382638
0.011304649
0.011238995
0.01118307
0.011135102
0.011093624
0.011057532
0.011025927
0.0109981
0.010973473
0.010951578
0.010932026
0.010914495
0.010898711
0.010884446
0.010871504
0.010859718
0.01084894
0.01083904
0.010829902
0.010821418
0.010813492
0.01080603
0.010798947
0.01079216
0.01078559
0.010779163
0.010772804
0.010766444
0.010760011
0.010753437
0.010746653
0.01073959
0.010732179
0.01072435
0.010716032
0.010707151
0.01069763
0.010687387
0.010676324
0.010664313
0.010651187
0.010636721
0.010620561
0.01060183
0.010578546
0.010551015
0.010518327
0.010479197
0.010432842
0.010379973
0.010323298
0.010268409
0.010218333
0.010175695
0.01013701
0.01010812
0.010077811
0.010061271
0.010038098
0.010050955
0.010031629
0.010117099
0.010034857
0.010117772
0.10649086
0.032278042
0.02084623
0.017518533
0.015020728
0.014250475
0.01321584
0.01291217
0.012440026
0.012228471
0.011976925
0.011811861
0.011654299
0.011527911
0.011421762
0.011334613
0.011261714
0.011200353
0.011148089
0.011103262
0.011064502
0.011030773
0.011001231
0.010975212
0.010952173
0.010931675
0.010913351
0.010896897
0.010882057
0.010868614
0.010856385
0.010845209
0.01083495
0.010825483
0.010816699
0.010808497
0.010800785
0.010793477
0.010786492
0.010779753
0.010773185
0.010766718
0.010760284
0.010753817
0.01074725
0.01074052
0.010733562
0.010726311
0.010718702
0.010710668
0.010702141
0.010693051
0.010683321
0.010672873
0.010661616
0.010649434
0.010636177
0.010621653
0.010605636
0.010587814
0.010567547
0.010542773
0.010512735
0.010476053
0.010431751
0.010380084
0.010323657
0.010268133
0.010217735
0.010174237
0.010135884
0.010105577
0.010077301
0.010060845
0.010037704
0.010043699
0.010027279
0.01010383
0.01003307
0.010116471
0.092169603
0.032737822
0.020314956
0.017370603
0.01482623
0.014155148
0.013111989
0.012833438
0.012364415
0.012155456
0.011909696
0.011743312
0.011590752
0.011469991
0.01137099
0.011289718
0.011221735
0.011164521
0.011115794
0.011074002
0.011037865
0.011006415
0.010978862
0.010954582
0.010933067
0.010913903
0.010896748
0.010881316
0.010867364
0.01085469
0.010843119
0.010832501
0.010822705
0.010813617
0.010805131
0.010797155
0.010789602
0.010782391
0.010775446
0.010768695
0.010762069
0.010755503
0.010748933
0.010742298
0.010735537
0.010728591
0.010721398
0.010713898
0.010706031
0.010697733
0.01068894
0.010679583
0.01066959
0.010658882
0.010647373
0.010634959
0.010621498
0.010606814
0.010590699
0.010572915
0.010553129
0.010530703
0.010503875
0.010470171
0.010428438
0.010378519
0.01032269
0.010266869
0.010216187
0.010172264
0.010134052
0.010103061
0.01007583
0.010059756
0.010037344
0.010039013
0.010024765
0.010092403
0.010030995
0.010106718
0.0827177
0.032939862
0.019784987
0.017198938
0.01463037
0.014042417
0.013006931
0.012742767
0.012286282
0.012074268
0.011839152
0.011669923
0.011528006
0.011415653
0.011323544
0.011247928
0.011184686
0.011131467
0.011086149
0.011047279
0.011013666
0.010984405
0.010958757
0.010936139
0.010916075
0.010898178
0.010882125
0.01086765
0.010854524
0.010842556
0.01083158
0.010821458
0.010812066
0.010803294
0.010795047
0.010787236
0.01077978
0.010772605
0.01076564
0.010758819
0.010752076
0.010745353
0.010738591
0.010731733
0.010724723
0.010717506
0.010710026
0.010702228
0.010694052
0.010685441
0.010676333
0.010666662
0.01065636
0.010645349
0.010633546
0.010620851
0.010607137
0.010592236
0.010575949
0.010558057
0.010538289
0.010516237
0.010491136
0.010461034
0.01042249
0.010374945
0.010320188
0.010264394
0.010213606
0.010169533
0.010131495
0.010100156
0.010073705
0.010056318
0.010036844
0.010036568
0.010022824
0.010079926
0.01002924
0.010100211
0.074431056
0.032772569
0.019267393
0.017001821
0.014434482
0.013911413
0.012901059
0.012639627
0.012205561
0.011984616
0.011765057
0.011600981
0.011469297
0.011365001
0.011279524
0.011209344
0.011150667
0.011101291
0.01105925
0.011023188
0.010991997
0.010964831
0.010941003
0.010919966
0.010901277
0.010884571
0.01086955
0.010855959
0.010843588
0.010832256
0.010821807
0.010812111
0.010803051
0.010794527
0.010786448
0.010778733
0.010771306
0.010764099
0.010757046
0.010750087
0.010743163
0.01073622
0.010729203
0.010722061
0.010714744
0.010707199
0.010699377
0.010691226
0.01068269
0.010673716
0.010664245
0.010654214
0.010643557
0.0106322
0.010620061
0.010607043
0.01059303
0.010577864
0.010561353
0.010543288
0.010523423
0.010501421
0.010476749
0.010448382
0.010413706
0.010369232
0.010316094
0.010260671
0.010209984
0.010166013
0.010128239
0.010096862
0.010071045
0.010052886
0.010035795
0.01003396
0.01002137
0.010068533
0.010027715
0.010090027
0.067164555
0.032080398
0.018774266
0.01677749
0.014240306
0.013760941
0.012794997
0.012523228
0.012122134
0.011891518
0.011688509
0.01153657
0.0114147
0.011318113
0.011239
0.011174037
0.01111974
0.01107405
0.011035152
0.011001776
0.010972897
0.010947726
0.010925624
0.01090608
0.010888679
0.010873082
0.010859009
0.010846223
0.010834527
0.01082375
0.010813748
0.010804398
0.010795592
0.010787236
0.010779247
0.01077155
0.010764076
0.010756762
0.01074955
0.010742383
0.01073521
0.010727981
0.010720647
0.010713162
0.01070548
0.010697554
0.010689339
0.010680785
0.010671844
0.010662462
0.010652585
0.010642154
0.010631104
0.010619363
0.010606852
0.010593478
0.010579129
0.010563659
0.010546883
0.0105286
0.010508581
0.010486521
0.010461986
0.010434257
0.010401907
0.010361288
0.010310399
0.010255711
0.010205352
0.010161711
0.010124324
0.010093157
0.010067894
0.010049335
0.010034128
0.010031021
0.01002014
0.010059215
0.01002636
0.010082632
0.060795065
0.03101668
0.018309825
0.016523623
0.014049737
0.013589977
0.012689293
0.012393061
0.012035274
0.011804416
0.011617202
0.011476796
0.01136431
0.011275088
0.011202069
0.011142097
0.011091993
0.011049826
0.011013928
0.010983112
0.010956429
0.010933146
0.010912667
0.010894517
0.010878309
0.010863728
0.010850511
0.010838438
0.010827324
0.010817011
0.010807365
0.01079827
0.010789629
0.010781353
0.010773367
0.010765602
0.010757998
0.010750497
0.010743047
0.010735599
0.010728106
0.010720524
0.01071281
0.010704923
0.01069682
0.010688461
0.010679804
0.010670803
0.010661412
0.010651584
0.010641264
0.010630397
0.01061892
0.010606764
0.010593852
0.010580092
0.010565377
0.010549572
0.010532499
0.010513965
0.01049375
0.010471578
0.010447063
0.010419629
0.010388277
0.010350983
0.010303075
0.010249521
0.010199725
0.010156635
0.010119782
0.010089027
0.010064294
0.010045693
0.010031871
0.010027237
0.010018938
0.01005111
0.010024969
0.010074678
0.055211792
0.029952402
0.017859598
0.016238734
0.013864588
0.013398115
0.012584303
0.01226495
0.011943108
0.011723372
0.011551186
0.011421739
0.011318201
0.011236007
0.011168806
0.011113601
0.011067497
0.011028687
0.010995641
0.01096725
0.010942639
0.010921125
0.010902157
0.010885293
0.010870171
0.010856499
0.010844032
0.010832566
0.01082193
0.010811977
0.010802582
0.010793641
0.010785062
0.010776767
0.010768688
0.010760763
0.010752939
0.010745166
0.010737398
0.010729593
0.010721709
0.010713708
0.010705552
0.010697206
0.010688632
0.010679793
0.01067065
0.010661163
0.010651288
0.010640979
0.010630186
0.010618854
0.010606924
0.010594329
0.010580992
0.010566825
0.010551724
0.01053556
0.010518168
0.010499357
0.010478921
0.0104566
0.010432048
0.010404771
0.010373977
0.010338194
0.010294136
0.010242153
0.010193157
0.010150829
0.010114674
0.010084508
0.010060318
0.010041949
0.010029174
0.010023249
0.010017618
0.010043385
0.010023325
0.010067405
0.050310808
0.028974737
0.017422267
0.015922484
0.013686121
0.01318515
0.012478511
0.012145048
0.011850621
0.011648465
0.011490529
0.011371486
0.011276463
0.011200961
0.011139301
0.011088633
0.011046332
0.011010706
0.010980353
0.010954244
0.010931569
0.010911694
0.010894111
0.010878408
0.01086425
0.010851366
0.010839528
0.010828549
0.01081827
0.010808558
0.010799297
0.010790393
0.010781765
0.010773343
0.010765066
0.010756882
0.010748745
0.010740612
0.010732443
0.010724205
0.010715861
0.010707379
0.010698725
0.010689869
0.010680778
0.010671418
0.010661753
0.010651747
0.010641359
0.010630544
0.010619255
0.010607439
0.010595038
0.010581986
0.010568208
0.01055362
0.010538119
0.010521583
0.010503855
0.010484753
0.010464078
0.010441589
0.010416968
0.010389782
0.010359386
0.010324692
0.010283594
0.010233679
0.010185714
0.010144351
0.010109063
0.010079644
0.010056057
0.010038131
0.010026154
0.010019544
0.010016146
0.010036142
0.010021544
0.010059977
0.046000556
0.02806238
0.016999905
0.015573801
0.013515258
0.012983884
0.01236933
0.012034046
0.011765374
0.01157977
0.011435306
0.011326133
0.011239187
0.011170046
0.011113642
0.011067279
0.011028574
0.010995948
0.01096812
0.010944134
0.010923244
0.010904863
0.010888522
0.010873838
0.010860503
0.010848266
0.010836918
0.010826287
0.010816228
0.010806621
0.010797364
0.01078837
0.01077957
0.010770904
0.010762319
0.010753773
0.010745226
0.010736645
0.010727998
0.010719254
0.010710386
0.010701365
0.010692164
0.010682755
0.010673109
0.010663196
0.010652983
0.010642435
0.010631514
0.010620177
0.010608379
0.010596067
0.010583184
0.010569667
0.010555442
0.010540425
0.010524519
0.010507605
0.010489536
0.010470136
0.010449216
0.010426548
0.010401841
0.01037471
0.010344608
0.010310681
0.010271466
0.010224203
0.01017749
0.010137282
0.010103029
0.010074499
0.0100516
0.010034271
0.010022912
0.010016107
0.010014524
0.010029553
0.01001967
0.010052547
0.042202044
0.027194341
0.016593837
0.015191343
0.013350585
0.012796046
0.012253543
0.011931919
0.011687364
0.011517357
0.011385595
0.011285776
0.011206469
0.011143357
0.011091921
0.01104962
0.011014293
0.010984471
0.010958982
0.010936944
0.010917669
0.010900614
0.010885348
0.01087152
0.010858844
0.010847092
0.010836073
0.010825631
0.010815637
0.010805986
0.010796586
0.010787365
0.010778263
0.010769231
0.010760226
0.010751214
0.010742165
0.010733053
0.010723852
0.010714539
0.010705091
0.010695485
0.010685696
0.010675702
0.010665475
0.010654988
0.010644211
0.010633109
0.010621646
0.010609781
0.010597469
0.010584658
0.010571293
0.01055731
0.010542639
0.010527196
0.010510887
0.010493598
0.01047519
0.010455495
0.010434332
0.010411487
0.010386692
0.0103596
0.010329739
0.010296411
0.010258471
0.010213855
0.010168596
0.010129722
0.010096663
0.010069148
0.010047043
0.010030416
0.010019556
0.010012924
0.010012777
0.010023848
0.010017919
0.010045856
0.0388467
0.026348638
0.01620591
0.014773949
0.013189998
0.012622374
0.012132543
0.011838639
0.0116166
0.011461296
0.011341481
0.011250513
0.01117841
0.01112099
0.011074224
0.01103573
0.011003548
0.010976313
0.010952955
0.010932664
0.010914807
0.010898884
0.010884501
0.010871336
0.01085913
0.010847675
0.010836802
0.010826371
0.01081627
0.010806409
0.010796712
0.010787118
0.010777581
0.01076806
0.010758526
0.010748951
0.010739314
0.010729597
0.01071978
0.010709846
0.010699775
0.01068955
0.010679148
0.010668549
0.010657729
0.01064666
0.010635314
0.010623658
0.010611655
0.010599267
0.010586446
0.010573144
0.010559305
0.010544866
0.010529757
0.010513898
0.010497197
0.010479544
0.010460807
0.010440827
0.010419433
0.010396422
0.010371547
0.010344494
0.010314855
0.010282055
0.010245207
0.010202793
0.010159166
0.010121785
0.010090062
0.01006368
0.010042478
0.010026621
0.010016197
0.010009969
0.010010895
0.010019124
0.010016263
0.010040221
0.035874356
0.025501623
0.015837957
0.014391223
0.013030268
0.012463634
0.012022259
0.011754156
0.011553095
0.011411655
0.011303051
0.011220439
0.011155103
0.011103031
0.011060623
0.01102566
0.010996364
0.010971476
0.010950015
0.01093124
0.010914571
0.010899552
0.010885826
0.010873101
0.010861145
0.010849775
0.010838841
0.010828224
0.010817831
0.010807587
0.010797433
0.01078732
0.010777216
0.010767093
0.010756928
0.010746704
0.010736407
0.010726026
0.010715547
0.010704955
0.010694237
0.010683375
0.010672351
0.010661144
0.010649731
0.010638086
0.010626181
0.010613982
0.010601454
0.010588557
0.010575244
0.010561468
0.010547171
0.010532293
0.010516765
0.010500508
0.010483432
0.010465433
0.010446386
0.01042614
0.010404534
0.010381378
0.010356441
0.01032944
0.010300018
0.010267699
0.010231791
0.010191195
0.010149352
0.010113599
0.010083335
0.010058188
0.010037991
0.010022941
0.010012927
0.010007218
0.010008814
0.010015176
0.010014725
0.010035364
0.033233583
0.024628587
0.015489117
0.014042591
0.012866774
0.012319397
0.01192249
0.011678452
0.011496896
0.011368518
0.011270406
0.011195656
0.011136639
0.011089554
0.011051175
0.01101944
0.01099274
0.010969914
0.010950074
0.010932539
0.010916787
0.010902404
0.01088907
0.010876529
0.010864576
0.010853052
0.010841834
0.010830823
0.010819945
0.010809143
0.010798375
0.010787608
0.01077682
0.010765993
0.010755116
0.010744179
0.010733172
0.01072209
0.010710922
0.010699659
0.010688286
0.01067679
0.010665151
0.010653349
0.010641361
0.010629161
0.010616719
0.010604002
0.010590973
0.010577593
0.010563814
0.010549589
0.010534861
0.01051957
0.010503647
0.010487017
0.010469592
0.010451273
0.01043194
0.010411454
0.010389663
0.010366389
0.010341418
0.010314493
0.010285298
0.010253431
0.010218352
0.01017926
0.010139319
0.010105303
0.010076591
0.010052769
0.010033666
0.01001944
0.010009836
0.010004692
0.010006518
0.01001101
0.01001324
0.010031322
0.030879827
0.023701971
0.015158184
0.013726325
0.012692961
0.012189217
0.011833058
0.011611504
0.011448055
0.011331962
0.011243633
0.011176242
0.0111231
0.011080611
0.011045891
0.011017034
0.010992587
0.010971489
0.010952939
0.01093632
0.010921165
0.010907106
0.010893863
0.010881217
0.010868993
0.010857064
0.010845329
0.010833713
0.010822164
0.010810642
0.010799122
0.010787584
0.010776018
0.010764415
0.010752771
0.010741082
0.010729343
0.010717549
0.010705694
0.010693767
0.010681758
0.010669648
0.010657422
0.010645055
0.010632524
0.010619803
0.010606859
0.010593659
0.010580166
0.010566337
0.010552127
0.010537487
0.010522361
0.010506688
0.010490404
0.010473432
0.010455689
0.010437081
0.010417495
0.010396801
0.010374858
0.0103515
0.010326531
0.010299715
0.01027077
0.010239351
0.010205023
0.010167197
0.010129243
0.010097037
0.010069945
0.010047517
0.010029581
0.01001619
0.010007021
0.010002406
0.010004194
0.010007374
0.010011655
0.010027812
0.028774923
0.022691811
0.014843192
0.013441726
0.012527819
0.012072668
0.011753824
0.011553292
0.011406632
0.011302051
0.01122283
0.011162278
0.011114515
0.011076178
0.011044687
0.011018294
0.010995694
0.010975925
0.010958272
0.010942187
0.010927259
0.010913172
0.010899688
0.010886625
0.010873849
0.010861258
0.010848782
0.010836369
0.010823985
0.01081161
0.010799231
0.010786842
0.010774439
0.010762023
0.010749593
0.010737147
0.010724684
0.010712198
0.010699682
0.010687127
0.010674519
0.01066184
0.01064907
0.010636184
0.010623157
0.01060996
0.01059656
0.010582923
0.010569009
0.010554775
0.010540176
0.010525161
0.010509677
0.010493663
0.010477054
0.010459778
0.010441755
0.010422894
0.010403092
0.010382227
0.01036017
0.010336768
0.010311841
0.010285176
0.010256517
0.010225562
0.010191947
0.010155223
0.010119304
0.010088945
0.010063506
0.010042519
0.010025792
0.010013251
0.010004569
0.010000402
0.010001872
0.010004138
0.010009799
0.010024621
0.026886886
0.021566115
0.014540977
0.013187337
0.012380039
0.011969447
0.011684724
0.011503758
0.011372645
0.011278869
0.011208051
0.011153759
0.011110817
0.011076112
0.011047339
0.011022914
0.011001674
0.01098276
0.010965547
0.010949557
0.010934444
0.010919947
0.010905875
0.010892087
0.010878486
0.010865003
0.010851592
0.010838225
0.010824886
0.010811569
0.010798272
0.010784996
0.010771746
0.010758522
0.010745326
0.010732157
0.010719011
0.010705882
0.01069276
0.010679633
0.010666485
0.010653296
0.010640041
0.010626696
0.010613232
0.010599616
0.010585815
0.010571792
0.010557509
0.010542919
0.010527978
0.010512636
0.010496838
0.010480525
0.010463635
0.010446097
0.010427836
0.010408765
0.010388787
0.010367793
0.010345663
0.010322259
0.01029742
0.010270952
0.010242626
0.010212169
0.010179266
0.010143551
0.010109677
0.010081164
0.010057379
0.010037848
0.01002234
0.010010656
0.01000253
0.0099987428
0.0099996885
0.010001237
0.010007772
0.0100217
0.025190002
0.020292223
0.014244883
0.012961477
0.012248934
0.011879267
0.011625777
0.011462966
0.011346222
0.011262465
0.011199272
0.011150567
0.011111785
0.011080081
0.01105341
0.011030355
0.011009897
0.010991289
0.010973997
0.010957628
0.0109419
0.010926611
0.010911618
0.010896826
0.010882171
0.010867613
0.010853132
0.010838717
0.010824365
0.010810079
0.010795863
0.010781723
0.010767663
0.010753683
0.010739783
0.01072596
0.010712206
0.010698511
0.01068486
0.010671238
0.010657626
0.010643999
0.010630332
0.010616596
0.010602759
0.010588788
0.010574647
0.010560298
0.0105457
0.010530809
0.010515579
0.010499958
0.010483896
0.010467333
0.010450209
0.010432456
0.010414001
0.010394765
0.010374657
0.010353577
0.010331417
0.010308056
0.01028335
0.010257128
0.010229186
0.010199278
0.010167117
0.010132382
0.01010053
0.010073825
0.010051658
0.010033562
0.010019252
0.010008427
0.010000914
0.0099974466
0.0099977908
0.0099988301
0.010005898
0.01001885
0.023665355
0.019045474
0.013942412
0.012762665
0.012133744
0.011801649
0.011576441
0.011430937
0.011327386
0.011252744
0.011196284
0.011152346
0.011116922
0.01108745
0.01106214
0.011039752
0.011019416
0.011000513
0.010982603
0.010965379
0.010948628
0.010932207
0.010916022
0.010900017
0.010884159
0.01086843
0.010852826
0.010837348
0.010822002
0.010806791
0.010791721
0.010776795
0.010762013
0.010747373
0.010732868
0.01071849
0.010704227
0.010690062
0.010675978
0.010661953
0.010647964
0.010633983
0.010619982
0.010605929
0.010591791
0.010577532
0.010563115
0.010548501
0.010533648
0.010518512
0.010503047
0.010487202
0.010470927
0.010454165
0.010436856
0.010418938
0.010400339
0.010380987
0.010360796
0.010339677
0.010317533
0.010294256
0.010269724
0.010243791
0.010216281
0.010186979
0.010155623
0.010121899
0.010092014
0.010067049
0.010046426
0.010029701
0.010016534
0.010006559
0.0099996729
0.0099964484
0.009996258
0.0099970484
0.010004031
0.010015919
0.022296226
0.017989506
0.013627515
0.012590114
0.012034343
0.011735875
0.01153706
0.01140772
0.011315999
0.011249351
0.011198529
0.011158347
0.011125307
0.011097152
0.011072349
0.011049857
0.011028958
0.011009158
0.010990123
0.010971629
0.010953531
0.010935739
0.0109182
0.010900887
0.010883787
0.010866898
0.010850221
0.01083376
0.010817518
0.010801496
0.010785696
0.010770112
0.010754738
0.010739566
0.010724581
0.01070977
0.010695113
0.010680589
0.010666175
0.010651845
0.010637572
0.010623324
0.010609071
0.010594779
0.010580413
0.010565935
0.010551307
0.01053649
0.010521442
0.010506119
0.010490474
0.01047446
0.010458026
0.010441118
0.010423678
0.010405645
0.010386955
0.010367537
0.010347315
0.010326205
0.010304122
0.010280972
0.01025665
0.010231036
0.010203989
0.010175338
0.010144861
0.010112252
0.010084256
0.010060939
0.010041761
0.010026299
0.010014186
0.010005024
0.0099987316
0.0099956797
0.0099951358
0.0099958425
0.010002022
0.010012709
0.021060285
0.017087278
0.013347435
0.012438428
0.011948838
0.011681892
0.011507431
0.011392722
0.011311306
0.011251326
0.011204851
0.011167229
0.011135457
0.011107609
0.011082425
0.01105906
0.011036957
0.01101575
0.010995202
0.010975165
0.01095555
0.010936303
0.010917399
0.010898825
0.010880577
0.010862653
0.01084505
0.010827767
0.010810799
0.010794138
0.010777775
0.010761698
0.01074589
0.010730335
0.010715012
0.010699899
0.010684972
0.010670204
0.010655567
0.010641032
0.010626567
0.01061214
0.010597716
0.010583261
0.010568738
0.010554109
0.010539336
0.010524378
0.010509194
0.010493742
0.010477974
0.010461846
0.010445307
0.010428306
0.010410789
0.010392697
0.01037397
0.010354541
0.010334341
0.010313292
0.010291318
0.010268335
0.010244255
0.010218977
0.010192393
0.010164386
0.010134822
0.01010356
0.010077352
0.010055582
0.010037738
0.010023414
0.010012231
0.010003805
0.0099980645
0.0099951682
0.0099942533
0.0099945137
0.0099997911
0.010008873
0.01993838
0.016292305
0.013098962
0.012302227
0.011875891
0.0116399
0.011486992
0.01138509
0.011312086
0.011257129
0.01121346
0.01117703
0.011145322
0.011116773
0.011090382
0.011065503
0.011041729
0.011018804
0.01099657
0.010974932
0.010953832
0.010933235
0.010913123
0.010893482
0.0108743
0.010855565
0.010837265
0.010819385
0.010801907
0.010784814
0.010768084
0.010751696
0.010735623
0.010719842
0.010704325
0.010689044
0.010673968
0.010659069
0.010644313
0.010629669
0.010615102
0.010600578
0.010586061
0.010571516
0.010556905
0.010542191
0.010527335
0.010512298
0.010497037
0.010481512
0.010465678
0.010449491
0.010432902
0.010415864
0.010398325
0.010380229
0.01036152
0.010342137
0.010322014
0.010301082
0.010279271
0.010256506
0.010232705
0.01020778
0.010181635
0.010154166
0.010125257
0.010095906
0.010071363
0.010051032
0.010034418
0.01002112
0.010010749
0.010002957
0.0099976845
0.0099949067
0.0099937094
0.0099936714
0.0099979441
0.010005019
0.01892028
0.015574058
0.012881991
0.012185083
0.011816749
0.011608898
0.011474341
0.01138291
0.011316066
0.011264215
0.01122168
0.011185067
0.01115234
0.011122273
0.011094106
0.011067365
0.011041759
0.011017106
0.010993292
0.010970243
0.010947908
0.010926248
0.010905232
0.010884831
0.010865017
0.010845764
0.010827041
0.01080882
0.010791071
0.010773764
0.010756867
0.010740349
0.010724178
0.010708321
0.010692747
0.010677422
0.010662313
0.010647387
0.010632609
0.010617945
0.010603359
0.010588815
0.010574279
0.010559713
0.01054508
0.010530344
0.010515465
0.010500406
0.010485126
0.010469585
0.01045374
0.010437549
0.010420966
0.010403946
0.010386439
0.010368395
0.010349761
0.01033048
0.010310493
0.010289736
0.010268147
0.010245658
0.010222197
0.010197685
0.010172039
0.010145169
0.010116974
0.010089349
0.01006631
0.010047282
0.010031785
0.010019413
0.010009775
0.010002556
0.0099976809
0.0099949843
0.009993646
0.0099935749
0.0099970659
0.010002698
0.018000021
0.01491485
0.012693925
0.012086876
0.011769218
0.01158611
0.011466421
0.011382737
0.011319678
0.011269025
0.011226132
0.011188255
0.011153802
0.011121827
0.011091755
0.011063224
0.011036006
0.011009946
0.010984935
0.010960889
0.010937741
0.010915431
0.010893906
0.010873117
0.010853015
0.010833557
0.010814697
0.010796394
0.010778605
0.010761292
0.010744416
0.010727937
0.010711819
0.010696025
0.010680518
0.010665264
0.010650225
0.010635367
0.010620654
0.010606051
0.010591522
0.010577032
0.010562544
0.010548022
0.01053343
0.010518732
0.010503891
0.010488868
0.010473625
0.010458123
0.010442323
0.010426183
0.010409661
0.010392713
0.010375294
0.010357358
0.010338854
0.010319731
0.010299936
0.01027941
0.010258098
0.010235939
0.01021287
0.010188823
0.010163725
0.010137499
0.01011006
0.010083935
0.010062205
0.01004431
0.010029782
0.010018211
0.010009214
0.010002504
0.0099979669
0.0099953383
0.0099939403
0.0099938859
0.0099967348
0.010001107
0.01717723
0.014355994
0.012533238
0.012004618
0.011730199
0.011567457
0.011458714
0.01137989
0.011318386
0.011267392
0.011223178
0.01118357
0.011147313
0.011113639
0.011082066
0.011052271
0.011024028
0.010997166
0.010971551
0.010947073
0.010923636
0.010901155
0.010879554
0.010858763
0.010838719
0.010819362
0.010800636
0.01078249
0.010764876
0.010747746
0.010731058
0.010714769
0.010698838
0.010683228
0.010667899
0.010652815
0.010637939
0.010623235
0.010608668
0.010594201
0.0105798
0.010565429
0.010551054
0.01053664
0.01052215
0.010507549
0.010492802
0.010477871
0.010462722
0.010447316
0.010431615
0.010415581
0.010399174
0.010382353
0.010365077
0.010347301
0.010328981
0.01031007
0.010290518
0.010270274
0.010249288
0.010227506
0.010204874
0.01018133
0.010156814
0.01013126
0.010104596
0.010079716
0.010059069
0.010042112
0.010028382
0.01001747
0.010009005
0.010002717
0.0099984482
0.0099958828
0.0099944945
0.009994482
0.0099968132
0.010000201
0.016465173
0.013903626
0.012397764
0.011933646
0.011693773
0.011546544
0.011445071
0.01136886
0.011307632
0.011255811
0.011210355
0.011169475
0.011132107
0.011097562
0.01106536
0.011035153
0.011006682
0.010979745
0.010954176
0.010929837
0.010906609
0.01088439
0.010863089
0.010842624
0.01082292
0.010803909
0.010785532
0.01076773
0.010750452
0.010733649
0.010717276
0.010701289
0.010685647
0.010670312
0.010655245
0.010640409
0.010625767
0.010611286
0.010596929
0.01058266
0.010568447
0.010554255
0.010540049
0.010525797
0.010511464
0.010497015
0.010482416
0.010467633
0.010452631
0.010437374
0.010421826
0.010405952
0.010389713
0.010373072
0.01035599
0.010338427
0.010320341
0.010301689
0.010282428
0.010262511
0.010241892
0.010220525
0.010198361
0.010175348
0.010151432
0.010126556
0.010100659
0.010076734
0.010056916
0.010040674
0.01002755
0.010017135
0.010009073
0.010003102
0.009999021
0.0099964992
0.0099951385
0.009995133
0.0099970075
0.0099996092
0.015761305
0.013499654
0.012264824
0.011856548
0.011644932
0.011510974
0.011415888
0.011342624
0.01128266
0.011231329
0.011186011
0.011145124
0.011107728
0.011073396
0.011041583
0.011011891
0.010984015
0.01095772
0.010932814
0.010909145
0.010886582
0.01086502
0.010844363
0.010824525
0.010805426
0.010786998
0.010769176
0.010751903
0.010735128
0.010718802
0.010702881
0.010687321
0.010672084
0.010657132
0.010642427
0.010627934
0.010613618
0.010599445
0.010585381
0.010571391
0.010557444
0.010543507
0.010529547
0.010515532
0.010501428
0.010487203
0.010472823
0.010458257
0.010443471
0.010428431
0.010413104
0.010397454
0.010381447
0.010365048
0.010348221
0.010330927
0.010313129
0.010294788
0.010275863
0.010256313
0.010236098
0.010215177
0.010193507
0.010171043
0.01014774
0.010123551
0.010098426
0.010075117
0.010055835
0.010040052
0.01002731
0.010017204
0.010009389
0.010003603
0.0099996113
0.0099970911
0.0099957621
0.009995792
0.0099973704
0.009999454
0.014478034
0.012840789
0.01200812
0.011696183
0.011526111
0.011415206
0.011334628
0.011271498
0.011219348
0.011174566
0.011135056
0.011099512
0.011067026
0.01103677
0.011008375
0.010981568
0.010956137
0.010931916
0.01090877
0.010886586
0.010865267
0.010844733
0.010825009
0.01080605
0.010787777
0.010770121
0.010753021
0.010736421
0.010720272
0.010704529
0.010689151
0.010674098
0.010659333
0.010644822
0.010630531
0.010616427
0.010602478
0.010588655
0.010574924
0.010561255
0.010547616
0.010533976
0.010520304
0.010506569
0.010492739
0.010478783
0.01046467
0.010450369
0.010435847
0.010421072
0.010406013
0.010390637
0.01037491
0.010358799
0.010342269
0.010325285
0.010307811
0.010289812
0.010271249
0.010252084
0.010232279
0.010211797
0.010190599
0.010168645
0.010145895
0.010122306
0.010097835
0.010074823
0.010055795
0.01004022
0.010027636
0.010017641
0.010009895
0.010004123
0.010000065
0.0099974372
0.0099960448
0.0099959276
0.0099969964
0.009998532
0.014030317
0.012623028
0.011862207
0.011584987
0.011434434
0.011336563
0.011265121
0.01120884
0.011161915
0.011121229
0.011084979
0.011052072
0.011021801
0.010993693
0.01096742
0.010942734
0.010919438
0.010897368
0.01087639
0.010856384
0.010837247
0.010818884
0.010801126
0.010783883
0.010767118
0.010750793
0.010734872
0.010719322
0.010704111
0.01068921
0.010674588
0.010660218
0.010646071
0.010632121
0.010618341
0.010604704
0.010591192
0.0105778
0.010564494
0.010551242
0.010538013
0.010524776
0.010511499
0.010498154
0.010484708
0.010471133
0.010457397
0.010443471
0.010429324
0.010414925
0.010400243
0.010385246
0.010369904
0.010354182
0.01033805
0.010321471
0.010304414
0.010286842
0.01026872
0.01025001
0.010230676
0.010210683
0.010189994
0.01016857
0.010146372
0.010123361
0.010099496
0.010076203
0.010056964
0.010041233
0.010028528
0.010018437
0.010010607
0.010004742
0.01000057
0.0099978363
0.0099963674
0.0099960863
0.0099968126
0.0099981505
0.013591382
0.012399723
0.011682695
0.011443796
0.011315993
0.011235385
0.011176718
0.011130488
0.011091602
0.011057518
0.011026791
0.010998583
0.010972366
0.010947787
0.010924595
0.0109026
0.010881655
0.010861639
0.010842456
0.010824022
0.010806269
0.010789136
0.010772568
0.010756519
0.01074095
0.010725823
0.010711102
0.01069675
0.010682736
0.010669025
0.010655587
0.01064239
0.010629405
0.010616601
0.010603949
0.010591422
0.010578982
0.010566577
0.010554185
0.010541783
0.010529347
0.010516855
0.010504281
0.010491601
0.010478789
0.01046582
0.010452667
0.010439304
0.010425704
0.010411839
0.010397681
0.010383201
0.010368369
0.010353156
0.010337531
0.010321462
0.010304918
0.010287864
0.010270266
0.01025209
0.010233301
0.010213862
0.010193741
0.010172898
0.010151298
0.010128901
0.010105668
0.010081557
0.010061495
0.010045061
0.010031755
0.010021147
0.010012869
0.010006603
0.010002067
0.0099990199
0.0099972714
0.009996667
0.0099970232
0.0099981493
55.662038
101.18721
60.416988
40.873847
28.325037
19.76616
13.960553
9.9908391
7.2103961
5.2225931
3.7806819
2.7342741
1.9688812
1.4149221
1.0076887
0.71377196
0.50099377
0.34937401
0.24274415
0.16821231
0.11654406
0.081101995
0.057077857
0.040993737
0.030373005
0.023453363
0.019010472
0.016193757
0.014428132
0.013331181
0.012652396
0.012230875
0.011965303
0.011793107
0.011676423
0.011592791
0.011529135
0.011477954
0.011434969
0.011397762
0.011364887
0.011335457
0.011308914
0.011284796
0.011262739
0.011242363
0.011222817
0.011199894
0.011166952
0.011123141
0.011072447
0.011019369
0.010967295
0.010918059
0.010872319
0.010830319
0.010793401
0.010761733
0.010733194
0.010707497
0.010679881
0.010653081
0.010618016