/*--------------------------------*- C++ -*----------------------------------*\
  =========                 |
  \\      /  F ield         | OpenFOAM: The Open Source CFD Toolbox
   \\    /   O peration     | Website:  https://openfoam.org
    \\  /    A nd           | Version:  6
     \\/     M anipulation  |
\*---------------------------------------------------------------------------*/
FoamFile
{
    version     2.0;
    format      ascii;
    class       volScalarField;
    location    "700";
    object      nut;
}
// * * * * * * * * * * * * * * * * * * * * * * * * * * * * * * * * * * * * * //

dimensions      [0 2 -1 0 0 0 0];

internalField   nonuniform List<scalar> 
16000
(
5.1235501e-06
2.1236063e-05
2.3295909e-05
3.3033625e-05
2.8394971e-05
3.6515413e-05
3.5942279e-05
4.0572025e-05
4.1815028e-05
4.1924247e-05
4.2582279e-05
4.122251e-05
4.1362032e-05
4.0271212e-05
4.0278368e-05
3.9760165e-05
3.9918379e-05
3.9939001e-05
4.0344275e-05
4.0788582e-05
4.148853e-05
4.231289e-05
4.3351285e-05
4.4565118e-05
4.6000136e-05
4.7659828e-05
4.9581044e-05
5.1791071e-05
5.4334377e-05
5.725972e-05
6.0630564e-05
6.4523255e-05
6.9032472e-05
7.4273676e-05
8.038909e-05
8.7553249e-05
9.5980792e-05
0.00010593567
0.00011774265
0.00013180093
0.00014860146
0.0001687496
0.00019298933
0.00022223362
0.00025760099
0.00030045768
0.0003524632
0.00041562132
0.00049233158
0.00058543714
0.00069826306
0.00083465543
0.00099905763
0.0010407329
0.0010418076
0.0010420122
0.0010415932
0.0010408296
0.0010399023
0.0010388261
0.0010374943
0.0010359227
0.0010340599
0.0010318333
0.0010291969
0.0010261868
0.0010229499
0.0010197953
0.0010168923
0.0010143881
0.0010120876
0.0010103171
0.0010084465
0.0010073246
0.0010058017
0.0010062667
0.0010048793
0.0010093001
0.0010042222
0.0010082078
4.2691637e-06
2.1002315e-05
2.135002e-05
3.019803e-05
2.6215817e-05
3.2921703e-05
3.309373e-05
3.6260747e-05
3.8157765e-05
3.7368869e-05
3.8411654e-05
3.66984e-05
3.6996764e-05
3.5781926e-05
3.5860636e-05
3.5341086e-05
3.5506943e-05
3.5508033e-05
3.5875582e-05
3.6267058e-05
3.6891662e-05
3.7625104e-05
3.8549602e-05
3.9629944e-05
4.0906402e-05
4.2382277e-05
4.4089612e-05
4.6052716e-05
4.8310384e-05
5.090554e-05
5.3893677e-05
5.7341731e-05
6.1332655e-05
6.5967489e-05
7.137064e-05
7.769466e-05
8.5126912e-05
9.3897472e-05
0.0001042891
0.00011664895
0.00013140279
0.00014907499
0.00017030906
0.00019589337
0.00022679258
0.00026418479
0.00030950175
0.00036447556
0.00043118905
0.00051212677
0.00061022584
0.00072892338
0.00087223276
0.001039379
0.0010406677
0.0010410129
0.0010406562
0.0010399054
0.0010389855
0.0010379581
0.0010367909
0.0010353698
0.001033652
0.0010315596
0.0010290363
0.0010260927
0.0010228696
0.0010196799
0.0010167589
0.0010142065
0.0010119244
0.0010100743
0.0010083173
0.0010071996
0.0010056779
0.0010057566
0.0010045306
0.0010084499
0.0010040107
0.0010080132
3.6476183e-06
2.0765438e-05
1.9813941e-05
2.7772364e-05
2.4477829e-05
2.9853064e-05
3.0926946e-05
3.2449366e-05
3.5023373e-05
3.3202175e-05
3.4587218e-05
3.251745e-05
3.2948367e-05
3.1693772e-05
3.1836257e-05
3.1335674e-05
3.1507892e-05
3.150604e-05
3.1844698e-05
3.2200605e-05
3.2766039e-05
3.342959e-05
3.4263262e-05
3.5237347e-05
3.6386215e-05
3.7714077e-05
3.9248705e-05
4.1012376e-05
4.3039324e-05
4.5367964e-05
4.8047535e-05
5.1137603e-05
5.4711871e-05
5.8860097e-05
6.3692679e-05
6.934498e-05
7.5983051e-05
8.3810682e-05
9.3077946e-05
0.00010409144
0.00011722637
0.00013294432
0.00015181071
0.00017451712
0.00020190828
0.00023501485
0.00027508887
0.00032364526
0.00038250914
0.00045386521
0.00054031146
0.000644913
0.00077127055
0.00092362445
0.0010395199
0.0010400206
0.0010397344
0.0010389943
0.0010380687
0.0010370419
0.0010358999
0.0010346066
0.0010330643
0.0010311349
0.0010287526
0.0010259052
0.001022715
0.0010195085
0.0010165714
0.0010139948
0.0010117202
0.0010098312
0.0010081322
0.0010070352
0.0010055537
0.0010053885
0.0010042829
0.0010077012
0.0010037833
0.0010073505
3.2452006e-06
2.0450508e-05
1.8513986e-05
2.5499298e-05
2.2843596e-05
2.7045506e-05
2.8820543e-05
2.9033344e-05
3.1976791e-05
2.9478459e-05
3.0989716e-05
2.8765723e-05
2.9255192e-05
2.8069289e-05
2.82281e-05
2.777718e-05
2.794195e-05
2.7951252e-05
2.8262236e-05
2.8593509e-05
2.9108621e-05
2.9715204e-05
3.0472352e-05
3.1357354e-05
3.2398576e-05
3.36016e-05
3.4990441e-05
3.6585899e-05
3.8418492e-05
4.0523026e-05
4.2943665e-05
4.5734073e-05
4.8960514e-05
5.2703742e-05
5.7062956e-05
6.2159802e-05
6.8143464e-05
7.5196901e-05
8.3544704e-05
9.346186e-05
0.00010528408
0.00011942443
0.00013638844
0.00015679355
0.00018139308
0.00021110592
0.00024704805
0.00029057018
0.00034330197
0.00040719926
0.00048459809
0.00057827198
0.00069149762
0.0008281505
0.00099282276
0.0010390297
0.0010388258
0.0010380979
0.0010371625
0.0010361284
0.0010349857
0.0010337115
0.0010322627
0.0010305305
0.0010283229
0.0010256059
0.0010224745
0.0010192688
0.001016325
0.0010137394
0.0010114737
0.0010095645
0.0010079085
0.001006737
0.0010054196
0.0010051441
0.0010040658
0.0010068928
0.0010035748
0.0010068781
2.9128589e-06
2.0023951e-05
1.7460376e-05
2.3390376e-05
2.1340801e-05
2.4479218e-05
2.6835944e-05
2.5938394e-05
2.9048055e-05
2.609736e-05
2.7604647e-05
2.5415889e-05
2.5893751e-05
2.4820787e-05
2.4971114e-05
2.4585068e-05
2.4737433e-05
2.4765321e-05
2.5052283e-05
2.5366421e-05
2.5839556e-05
2.6399332e-05
2.7092176e-05
2.7902192e-05
2.8852331e-05
2.9949544e-05
3.121471e-05
3.2667409e-05
3.4335135e-05
3.6249732e-05
3.8451188e-05
4.0988303e-05
4.3921266e-05
4.7323422e-05
5.128484e-05
5.5916035e-05
6.1352482e-05
6.7760232e-05
7.5343296e-05
8.4351589e-05
9.5089161e-05
0.00010793044
0.00012333359
0.00014185781
0.00016418459
0.00019114563
0.00022375096
0.00026322373
0.0003110418
0.00036898253
0.00043917617
0.00052416406
0.0006269661
0.00075116621
0.00090103421
0.0010380314
0.0010379255
0.0010372129
0.0010362651
0.0010352198
0.0010340701
0.0010327969
0.0010313699
0.0010297315
0.0010277359
0.0010251873
0.0010221446
0.0010189584
0.0010160193
0.0010134383
0.0010111865
0.0010092742
0.0010076529
0.0010064372
0.0010052528
0.0010048889
0.0010038746
0.0010061447
0.001003381
0.0010062086
2.6316172e-06
1.7489628e-05
1.65323e-05
2.1398054e-05
1.997295e-05
2.2106406e-05
2.4960656e-05
2.3120244e-05
2.6245462e-05
2.3059953e-05
2.4459064e-05
2.2443284e-05
2.2864726e-05
2.1928797e-05
2.2056082e-05
2.1740692e-05
2.1878904e-05
2.1928346e-05
2.2195173e-05
2.2497176e-05
2.2935771e-05
2.3457174e-05
2.4096553e-05
2.4843994e-05
2.5717973e-05
2.6726545e-05
2.7888082e-05
2.9221138e-05
3.0750781e-05
3.2506427e-05
3.452467e-05
3.6850331e-05
3.9538658e-05
4.265698e-05
4.628797e-05
5.0533069e-05
5.5516744e-05
6.1391448e-05
6.8344464e-05
7.6605837e-05
8.6454314e-05
9.8233365e-05
0.00011236345
0.00012935765
0.00014984027
0.0001745739
0.00020448467
0.00024069434
0.00028456009
0.00033771633
0.00040212714
0.00048014403
0.00057457357
0.00068875905
0.00082669512
0.00099315293
0.0010370286
0.001036337
0.0010353746
0.0010343155
0.0010331555
0.0010318773
0.0010304558
0.0010288507
0.0010269815
0.0010246445
0.0010217249
0.0010185782
0.001015656
0.0010130922
0.0010108608
0.0010089592
0.001007368
0.001006129
0.0010050496
0.0010046137
0.0010036952
0.0010055129
0.0010031992
0.0010057027
2.3710844e-06
1.6369845e-05
1.5443939e-05
1.9513363e-05
1.8732462e-05
1.9924085e-05
2.3171158e-05
2.0555306e-05
2.3570086e-05
2.0381709e-05
2.16009e-05
1.9808272e-05
2.0147688e-05
1.9355653e-05
1.9453116e-05
1.9206515e-05
1.933094e-05
1.9401355e-05
1.9651562e-05
1.9944251e-05
2.0354294e-05
2.0843664e-05
2.1438337e-05
2.2133157e-05
2.2943136e-05
2.3877065e-05
2.4951375e-05
2.6183713e-05
2.7597177e-05
2.92192e-05
3.1083584e-05
3.3231832e-05
3.5715191e-05
3.8596037e-05
4.1950972e-05
4.587409e-05
5.048086e-05
5.5912688e-05
6.2343256e-05
6.9986712e-05
7.9101324e-05
9.0005674e-05
0.00010308991
0.00011883029
0.0001378053
0.00016072231
0.00018844064
0.00022200105
0.00026266434
0.00031195053
0.00037168968
0.00044407918
0.00053175045
0.00063784991
0.00076614371
0.00092115009
0.0010361292
0.0010354672
0.0010344889
0.001033414
0.0010322413
0.0010309547
0.0010295323
0.0010279412
0.001026125
0.0010239698
0.0010212137
0.0010181283
0.0010152359
0.0010127014
0.0010104986
0.0010086189
0.0010070563
0.0010058141
0.0010048118
0.0010042901
0.001003517
0.0010049498
0.0010030182
0.0010051726
2.1416942e-06
1.5890039e-05
1.4387534e-05
1.7745632e-05
1.7589231e-05
1.7899125e-05
2.1409776e-05
1.8255751e-05
2.0994057e-05
1.8003506e-05
1.9004874e-05
1.7461603e-05
1.7711277e-05
1.7060418e-05
1.712916e-05
1.694668e-05
1.706058e-05
1.7150821e-05
1.7388715e-05
1.7674642e-05
1.806197e-05
1.8525134e-05
1.9083114e-05
1.9734314e-05
2.0491134e-05
2.1362897e-05
2.2364503e-05
2.3512797e-05
2.4829319e-05
2.6339847e-05
2.8075963e-05
3.0076376e-05
3.2389108e-05
3.5072491e-05
3.8198152e-05
4.1854231e-05
4.6148891e-05
5.1214607e-05
5.7213885e-05
6.4348335e-05
7.2859574e-05
8.3046115e-05
9.5273632e-05
0.00010998899
0.00012773364
0.00014917044
0.0001751052
0.00020651332
0.00024457803
0.00029072664
0.00034668036
0.00041451019
0.00049670283
0.00059624065
0.00071670021
0.00086238383
0.0010352202
0.0010346008
0.0010336058
0.0010325136
0.0010313266
0.0010300297
0.001028603
0.0010270182
0.0010252304
0.0010231565
0.0010206118
0.0010176118
0.0010147621
0.0010122685
0.0010101033
0.0010082553
0.0010067221
0.0010054922
0.0010045483
0.0010039543
0.0010033322
0.0010044091
0.0010028265
0.0010046872
1.9434926e-06
1.5363421e-05
1.340886e-05
1.6067604e-05
1.6520531e-05
1.599072e-05
1.9637386e-05
1.61944e-05
1.8543335e-05
1.5877141e-05
1.6653018e-05
1.5363057e-05
1.5528516e-05
1.5008856e-05
1.5054682e-05
1.4929866e-05
1.5037771e-05
1.5146228e-05
1.5376097e-05
1.5657467e-05
1.6027276e-05
1.6469378e-05
1.6997636e-05
1.7613062e-05
1.832616e-05
1.9146504e-05
2.0087911e-05
2.1166477e-05
2.2402516e-05
2.3820458e-05
2.5450069e-05
2.7327775e-05
2.9498954e-05
3.2018662e-05
3.4954508e-05
3.8389733e-05
4.2426651e-05
4.7190584e-05
5.2834644e-05
5.9550868e-05
6.7567261e-05
7.7166135e-05
8.8693367e-05
0.00010257251
0.00011931495
0.00013954774
0.00016403377
0.0001936956
0.00022965411
0.00027326171
0.00032615123
0.00039029054
0.00046804753
0.00056226869
0.00067637548
0.0008144902
0.00098157224
0.0010337353
0.0010327236
0.0010316132
0.0010304107
0.0010291021
0.0010276692
0.0010260871
0.0010243188
0.0010223027
0.0010199198
0.0010170325
0.0010142384
0.0010117969
0.0010096786
0.0010078712
0.0010063708
0.0010051651
0.001004266
0.0010036342
0.0010031394
0.0010038974
0.0010026308
0.0010041992
1.7713817e-06
1.476827e-05
1.2492842e-05
1.4462172e-05
1.5511729e-05
1.4262388e-05
1.7836986e-05
1.4340956e-05
1.6268713e-05
1.3971343e-05
1.4535278e-05
1.3484796e-05
1.3579e-05
1.3175637e-05
1.3206208e-05
1.3131613e-05
1.3238076e-05
1.3362975e-05
1.3588606e-05
1.3867331e-05
1.4224204e-05
1.4649799e-05
1.5154486e-05
1.5741045e-05
1.6418705e-05
1.7197101e-05
1.8089248e-05
1.91106e-05
2.0280493e-05
2.1622281e-05
2.3164272e-05
2.4941e-05
2.6995727e-05
2.9380877e-05
3.2160816e-05
3.5414804e-05
3.924053e-05
4.3757699e-05
4.9111325e-05
5.5486557e-05
6.3100253e-05
7.2221677e-05
8.3180601e-05
9.6382592e-05
0.00011231447
0.00013157438
0.00015489115
0.00018314456
0.00021740557
0.00025896614
0.00030938756
0.00037055395
0.00044473596
0.00053466829
0.0006436445
0.00077563742
0.00093543751
0.0010328682
0.0010318406
0.0010307115
0.0010294932
0.0010281723
0.0010267321
0.0010251504
0.0010233958
0.0010214196
0.0010191386
0.0010163965
0.00101367
0.0010112912
0.0010092292
0.0010074703
0.0010060077
0.0010048351
0.0010039708
0.0010033294
0.0010029393
0.0010034245
0.0010024339
0.0010037167
1.6217445e-06
1.4079236e-05
1.1640126e-05
1.2918428e-05
1.4538519e-05
1.2696612e-05
1.6001398e-05
1.2669649e-05
1.4179799e-05
1.2260302e-05
1.263891e-05
1.1803161e-05
1.184259e-05
1.1538826e-05
1.1562134e-05
1.1530471e-05
1.1639617e-05
1.1779359e-05
1.1953315e-05
1.222301e-05
1.2564808e-05
1.2973008e-05
1.3455072e-05
1.4014489e-05
1.4659296e-05
1.5398865e-05
1.6245393e-05
1.7213591e-05
1.832181e-05
1.9592381e-05
2.1052293e-05
2.2734243e-05
2.467961e-05
2.6938429e-05
2.9572168e-05
3.2656543e-05
3.628512e-05
4.0573111e-05
4.5962592e-05
5.2062803e-05
5.9352407e-05
6.8090373e-05
7.8593137e-05
9.1252996e-05
0.00010653672
0.00012501911
0.00014740258
0.00017453211
0.00020743935
0.00024736789
0.00029582168
0.00035461745
0.00042594738
0.00051245556
0.00061733135
0.00074442568
0.00089839011
0.0010319972
0.0010309559
0.0010298081
0.0010285739
0.0010272407
0.001025793
0.0010242109
0.0010224669
0.0010205212
0.0010183083
0.001015711
0.0010130633
0.0010107571
0.0010087605
0.0010070573
0.0010056384
0.0010045051
0.0010036695
0.0010030397
0.0010027337
0.001003004
0.0010022482
0.0010032808
1.4914777e-06
1.3283877e-05
1.0841835e-05
1.1427614e-05
1.3563935e-05
1.127453e-05
1.4149631e-05
1.1157143e-05
1.2280207e-05
1.0721224e-05
1.09485e-05
1.0297742e-05
1.0299825e-05
1.007952e-05
1.0054745e-05
1.0041671e-05
1.0146793e-05
1.0294607e-05
1.0516502e-05
1.0793124e-05
1.113393e-05
1.1536661e-05
1.2007657e-05
1.2551376e-05
1.3175404e-05
1.3889161e-05
1.4704445e-05
1.5635568e-05
1.6700259e-05
1.7920204e-05
1.9321606e-05
2.0935739e-05
2.2802734e-05
2.4970983e-05
2.7499902e-05
3.0462616e-05
3.3949659e-05
3.8073951e-05
4.2970582e-05
4.8806899e-05
5.578766e-05
6.4163096e-05
7.4814774e-05
8.704849e-05
0.00010182342
0.00011969534
0.00014134717
0.00016759542
0.00019944157
0.00023809109
0.0002850026
0.00034193954
0.00041103179
0.00049485139
0.00059650485
0.00071974626
0.00086911666
0.0010311201
0.0010300688
0.0010289028
0.0010276532
0.0010263083
0.0010248535
0.0010232708
0.0010215364
0.0010196172
0.0010174623
0.0010149851
0.0010124262
0.0010102015
0.0010082782
0.0010066374
0.0010052686
0.0010041786
0.0010033686
0.0010027639
0.0010025227
0.0010026417
0.0010020721
0.0010029089
1.3786346e-06
1.237945e-05
1.0098298e-05
1.0074993e-05
1.2556282e-05
9.9786866e-06
1.236408e-05
9.7846104e-06
1.0570773e-05
9.3361066e-06
9.4485529e-06
8.9522484e-06
8.8628137e-06
8.6891324e-06
8.7069477e-06
8.7396983e-06
8.8642399e-06
9.0326319e-06
9.2639928e-06
9.5469523e-06
9.8880484e-06
1.0287235e-05
1.0750268e-05
1.1282265e-05
1.1890472e-05
1.2584336e-05
1.337536e-05
1.4277506e-05
1.5307998e-05
1.6488019e-05
1.7843316e-05
1.9403868e-05
2.1208936e-05
2.3305682e-05
2.575201e-05
2.8619039e-05
3.1994527e-05
3.598982e-05
4.0736318e-05
4.6397493e-05
5.3173337e-05
6.1308696e-05
7.1104822e-05
8.2923316e-05
9.7207932e-05
0.00011544778
0.00013654204
0.00016211776
0.00019315441
0.00023082823
0.00027656287
0.00033208068
0.00039946341
0.00048122743
0.00058041543
0.00070070798
0.00084656303
0.0010233719
0.0010291793
0.0010279961
0.0010267322
0.0010253765
0.0010239157
0.0010223331
0.0010206079
0.0010187126
0.0010166073
0.0010142288
0.0010117672
0.0010096318
0.0010077886
0.0010062162
0.0010049036
0.0010038594
0.001003074
0.0010025015
0.0010023032
0.0010023264
0.0010019072
0.0010025852
1.2810858e-06
1.1369422e-05
9.4026549e-06
8.8490922e-06
1.1483064e-05
8.7975123e-06
1.0676098e-05
8.5397581e-06
9.0497765e-06
8.0921536e-06
8.0454944e-06
7.6373852e-06
7.5918021e-06
7.4955004e-06
7.5385115e-06
7.6079694e-06
7.7503449e-06
7.9360601e-06
8.1766106e-06
8.4657779e-06
8.8084926e-06
9.206077e-06
9.6640232e-06
1.0187952e-05
1.0784815e-05
1.146408e-05
1.2237046e-05
1.3117383e-05
1.4121879e-05
1.5271307e-05
1.6527342e-05
1.8034492e-05
1.9777802e-05
2.1803229e-05
2.4167285e-05
2.6939317e-05
3.0377753e-05
3.4275248e-05
3.8908424e-05
4.4438042e-05
5.1060547e-05
5.9015623e-05
6.8601324e-05
8.0171408e-05
9.4162181e-05
0.00011110685
0.00013164694
0.00015791788
0.00018836281
0.00022532337
0.00027019729
0.00032467654
0.00039080729
0.00047106474
0.00056844462
0.00068657517
0.00082985565
0.0010036142
0.0010282883
0.0010270892
0.0010258124
0.0010244475
0.001022982
0.0010214008
0.0010196855
0.0010178126
0.0010157507
0.0010134535
0.0010110959
0.0010090559
0.0010072986
0.0010057998
0.0010045485
0.0010035514
0.0010027911
0.0010022539
0.0010020746
0.0010020028
0.0010017498
0.0010023112
1.1976376e-06
1.0267152e-05
8.7470704e-06
7.7366924e-06
1.0313583e-05
7.7180727e-06
9.1103595e-06
7.4093224e-06
7.709025e-06
6.856872e-06
6.7947102e-06
6.5203351e-06
6.4981879e-06
6.4622918e-06
6.5291443e-06
6.6284299e-06
6.7873311e-06
6.9880969e-06
7.2377542e-06
7.5333359e-06
7.8790134e-06
8.2769097e-06
8.7324154e-06
9.2292898e-06
9.8131412e-06
1.0476531e-05
1.1230354e-05
1.2087807e-05
1.3065065e-05
1.4182128e-05
1.546338e-05
1.6938772e-05
1.8645138e-05
2.0627856e-05
2.2942842e-05
2.5659031e-05
2.8861367e-05
3.2654521e-05
3.7167334e-05
4.2558184e-05
4.9020603e-05
5.7220239e-05
6.6659904e-05
7.8058178e-05
9.1844632e-05
0.00010854822
0.00012880151
0.00015337891
0.00018488143
0.00022135634
0.00026564378
0.00031941487
0.00038469136
0.00046392025
0.00056006538
0.00067672092
0.00081824866
0.00098993799
0.0010273973
0.0010261841
0.0010248962
0.0010235239
0.0010220558
0.0010204779
0.0010187738
0.0010169231
0.0010149004
0.0010126714
0.0010104228
0.0010084825
0.0010068148
0.0010053938
0.0010042083
0.0010032594
0.0010025259
0.0010020227
0.001001848
0.0010017131
0.0010015914
0.001002071
1.1279665e-06
9.0858523e-06
8.1246022e-06
6.7282234e-06
9.0852177e-06
6.7303309e-06
7.6954909e-06
6.3333532e-06
6.3656018e-06
5.7888253e-06
5.7299383e-06
5.5576034e-06
5.5605231e-06
5.5720439e-06
5.6613047e-06
5.7853884e-06
5.9597298e-06
6.1740425e-06
6.4329099e-06
6.735342e-06
7.0686401e-06
7.4641234e-06
7.9152427e-06
8.4276098e-06
9.0084158e-06
9.6664388e-06
1.0412549e-05
1.1259836e-05
1.2224216e-05
1.3325517e-05
1.4587877e-05
1.6040964e-05
1.7721314e-05
1.9673967e-05
2.1954471e-05
2.4631321e-05
2.7788907e-05
3.1531169e-05
3.5986066e-05
4.1311217e-05
4.7700394e-05
5.538802e-05
6.4660973e-05
7.5866583e-05
9.0169099e-05
0.0001067269
0.00012680537
0.00015117684
0.00018076688
0.0002187315
0.00026266953
0.00031601833
0.00038078538
0.00045940111
0.00055481085
0.00067059084
0.00081108506
0.00098156716
0.0010265088
0.0010252835
0.0010239866
0.0010226092
0.0010211407
0.0010195685
0.0010178776
0.0010160501
0.0010140647
0.0010118949
0.0010097581
0.0010079198
0.001006344
0.0010050036
0.0010038867
0.0010029871
0.001002284
0.0010018107
0.0010016254
0.0010014502
0.0010014224
0.0010018524
1.0729496e-06
7.8367994e-06
7.516242e-06
5.8129462e-06
7.8301477e-06
5.806963e-06
6.8558306e-06
5.3033047e-06
5.2565777e-06
4.8708646e-06
4.8268968e-06
4.7313161e-06
4.7599209e-06
4.8095348e-06
4.9197757e-06
5.0651205e-06
5.254093e-06
5.4810156e-06
5.7339147e-06
6.0400271e-06
6.3918188e-06
6.7925429e-06
7.2469172e-06
7.7607625e-06
8.3413341e-06
8.9973876e-06
9.7397915e-06
1.0581621e-05
1.1538512e-05
1.2630241e-05
1.3880814e-05
1.5319776e-05
1.6983556e-05
1.8917111e-05
2.1175924e-05
2.3828436e-05
2.695896e-05
3.0671205e-05
3.5092661e-05
4.0380275e-05
4.6728778e-05
5.4371614e-05
6.3596151e-05
7.4749327e-05
8.8253547e-05
0.00010462226
0.00012554833
0.00014982877
0.00017931324
0.0002151184
0.00026105749
0.00031422829
0.00037878117
0.00045714071
0.00055224501
0.00066766708
0.00080775037
0.00097777383
0.0010256263
0.0010243912
0.0010230876
0.0010217074
0.0010202412
0.0010186773
0.0010170023
0.0010152001
0.001013252
0.0010111364
0.0010091123
0.0010073762
0.0010058926
0.0010046341
0.0010035866
0.0010027371
0.0010020686
0.0010016219
0.0010014149
0.0010012107
0.0010012483
0.0010016524
1.0368344e-06
6.5429944e-06
6.8919906e-06
4.9919198e-06
6.6084406e-06
5.463395e-06
5.3950236e-06
4.3843421e-06
4.3416426e-06
4.0827897e-06
4.0631754e-06
4.0273436e-06
4.0809987e-06
4.1621956e-06
4.2920562e-06
4.4560736e-06
4.6456411e-06
4.8811623e-06
5.1562416e-06
5.4720384e-06
5.8315359e-06
6.2384214e-06
6.6975692e-06
7.214926e-06
7.7978175e-06
8.4549048e-06
9.1970766e-06
1.0015358e-05
1.0963053e-05
1.2042861e-05
1.327849e-05
1.4699195e-05
1.6341138e-05
1.8249027e-05
2.0478141e-05
2.3096741e-05
2.6188979e-05
2.9858321e-05
3.4231632e-05
3.9725059e-05
4.6061831e-05
5.3693514e-05
6.2909809e-05
7.4057485e-05
8.7558849e-05
0.00010392812
0.00012378915
0.00014920767
0.00017870155
0.00021452242
0.00025801908
0.00031378941
0.00037837384
0.00045677632
0.00055193617
0.00066743596
0.00080763391
0.00097783265
0.0010247542
0.0010235118
0.001022204
0.0010208236
0.0010193621
0.0010178094
0.0010161534
0.0010143795
0.0010124707
0.0010104079
0.0010084954
0.0010068598
0.0010054665
0.001004289
0.0010033101
0.0010025113
0.001001881
0.0010014577
0.001001225
0.0010010037
0.0010010873
0.0010014596
1.0218273e-06
5.9792468e-06
6.2558335e-06
5.0806322e-06
6.2828094e-06
4.1505938e-06
4.1642971e-06
3.6179776e-06
3.5764751e-06
3.4197904e-06
3.4232067e-06
3.4352198e-06
3.5122514e-06
3.6197551e-06
3.7575519e-06
3.9341698e-06
4.1476079e-06
4.3965303e-06
4.6826308e-06
5.0078792e-06
5.3755139e-06
5.7895099e-06
6.2548526e-06
6.7775343e-06
7.3537002e-06
8.010809e-06
8.7512622e-06
9.5878269e-06
1.053615e-05
1.1615481e-05
1.2849577e-05
1.4267798e-05
1.5906501e-05
1.7810681e-05
2.0036027e-05
2.2651333e-05
2.5741456e-05
2.9410813e-05
3.3787636e-05
3.9028985e-05
4.5326698e-05
5.3301594e-05
6.2542271e-05
7.3723758e-05
8.7268784e-05
0.00010369328
0.00012362335
0.00014781854
0.00017877676
0.000214725
0.0002583743
0.00031137543
0.00037924672
0.00045793066
0.00055343445
0.00066936093
0.00081009608
0.00098098115
0.0010238983
0.0010226512
0.0010213418
0.0010199637
0.0010185094
0.0010169704
0.0010153361
0.0010135939
0.0010117281
0.0010097201
0.0010079166
0.0010063778
0.0010050713
0.0010039714
0.0010030582
0.0010023099
0.0010017189
0.0010013151
0.0010010606
0.0010008367
0.0010009311
0.0010012653
1.0250135e-06
6.1018078e-06
5.5740336e-06
5.4616194e-06
5.4390006e-06
3.2953989e-06
3.3593658e-06
2.9734542e-06
2.9441446e-06
2.8663949e-06
2.8938321e-06
2.9437305e-06
3.0425947e-06
3.1618195e-06
3.3228833e-06
3.516736e-06
3.7440443e-06
4.0049729e-06
4.3015405e-06
4.6362473e-06
5.0125358e-06
5.4345599e-06
5.9006384e-06
6.4278441e-06
7.0186527e-06
7.6816431e-06
8.4272439e-06
9.2682008e-06
1.0220166e-05
1.1302443e-05
1.2538912e-05
1.3959149e-05
1.5599816e-05
1.7506341e-05
1.9734972e-05
2.2355217e-05
2.5452789e-05
2.913317e-05
3.3525822e-05
3.8789166e-05
4.5116945e-05
5.2745752e-05
6.2430574e-05
7.3675197e-05
8.7298544e-05
0.00010381916
0.00012386612
0.00014820237
0.00017937113
0.00021552801
0.0002594269
0.00031272717
0.00038105543
0.00046019228
0.00055624847
0.00067285468
0.00081443454
0.0009863794
0.0010230653
0.0010218163
0.0010205079
0.0010191344
0.0010176895
0.0010161661
0.0010145556
0.0010128477
0.0010110293
0.0010090824
0.0010073836
0.0010059369
0.0010047117
0.0010036838
0.0010028317
0.001002132
0.0010015787
0.0010011906
0.0010009245
0.001000707
0.0010007713
0.0010010584
8.3743569e-07
6.4636989e-06
4.8121436e-06
3.4953856e-06
3.4791402e-06
2.7192356e-06
2.6664304e-06
2.4541726e-06
2.4315767e-06
2.4123509e-06
2.4632427e-06
2.542659e-06
2.6522676e-06
2.7974172e-06
2.9754203e-06
3.1837761e-06
3.4234303e-06
3.695489e-06
4.0022634e-06
4.3465846e-06
4.7320269e-06
5.1580701e-06
5.6375319e-06
6.1730483e-06
6.7716919e-06
7.4420052e-06
8.1943824e-06
9.0415625e-06
9.9992382e-06
1.1086817e-05
1.2328361e-05
1.3753738e-05
1.5400011e-05
1.731314e-05
1.955004e-05
2.2181033e-05
2.5292838e-05
2.8992179e-05
3.3409926e-05
3.8705671e-05
4.507468e-05
5.314754e-05
6.2506165e-05
7.3831844e-05
8.7554597e-05
0.0001041963
0.00012438985
0.00014890276
0.00018029617
0.00021670801
0.00026091268
0.00031458055
0.00038341029
0.00046309538
0.0005598207
0.00067724969
0.00081984939
0.00099306828
0.0010222627
0.0010210149
0.0010197103
0.001018344
0.0010169104
0.0010154037
0.0010138171
0.0010121435
0.0010103747
0.0010085019
0.0010069028
0.0010055428
0.001004393
0.0010034302
0.0010026325
0.0010019773
0.0010014595
0.0010010862
0.0010008074
0.0010005756
0.0010006034
0.0010008191
6.5064602e-07
4.9229958e-06
3.7418064e-06
2.6247034e-06
2.6789964e-06
2.1886148e-06
2.1344925e-06
2.0161739e-06
2.0190579e-06
2.0415669e-06
2.1163195e-06
2.2136532e-06
2.3472967e-06
2.5104307e-06
2.7028924e-06
2.9239545e-06
3.1749523e-06
3.4575954e-06
3.7744148e-06
4.1284346e-06
4.5205192e-06
4.9593225e-06
5.4479595e-06
5.9923122e-06
6.5994081e-06
7.277748e-06
8.0377041e-06
8.8920262e-06
9.8564746e-06
1.0950599e-05
1.2198693e-05
1.3630956e-05
1.5284905e-05
1.7207085e-05
1.9455106e-05
2.2100116e-05
2.522985e-05
2.8952337e-05
3.3400319e-05
3.8734327e-05
4.5463269e-05
5.3265757e-05
6.2694714e-05
7.4106612e-05
8.7934406e-05
0.00010470345
0.00012505088
0.00014974883
0.00018134131
0.00021801398
0.00026253199
0.00031657741
0.00038587152
0.00046611328
0.00056351966
0.00068178791
0.00082542974
0.00099995202
0.0010214992
0.0010202558
0.0010189582
0.001017602
0.0010161821
0.0010146933
0.0010131296
0.0010114845
0.0010097512
0.0010079845
0.0010064783
0.0010051991
0.0010041192
0.0010032155
0.0010024657
0.0010018495
0.0010013625
0.0010010019
0.0010007151
0.0010004767
0.0010004613
0.0010005815
5.0409665e-07
2.7294306e-06
2.9484791e-06
2.1175872e-06
2.0533261e-06
1.7572252e-06
1.7181028e-06
1.6658998e-06
1.6938259e-06
1.7489819e-06
1.844688e-06
1.9625299e-06
2.1133736e-06
2.2911277e-06
2.4959701e-06
2.7283084e-06
2.9897956e-06
3.282495e-06
3.6090552e-06
3.9725748e-06
4.3766951e-06
4.8231286e-06
5.3208535e-06
5.8739813e-06
6.4894933e-06
7.1758552e-06
7.94343e-06
8.8049981e-06
9.7764055e-06
1.087736e-05
1.2132398e-05
1.3572071e-05
1.5234357e-05
1.7166381e-05
1.9426426e-05
2.2086398e-05
2.5234791e-05
2.9139119e-05
3.3650649e-05
3.9062137e-05
4.5573385e-05
5.342768e-05
6.2920405e-05
7.440983e-05
8.8331263e-05
0.00010521303
0.00012569665
0.0001518797
0.00018227668
0.00021917
0.00026395324
0.00031831914
0.00038794528
0.00046865205
0.00056663042
0.00068560783
0.00083013628
0.0010057754
0.0010207843
0.0010195487
0.0010182617
0.0010169191
0.0010155165
0.0010140492
0.001012512
0.0010108992
0.0010092049
0.0010075343
0.0010061123
0.0010049067
0.0010038904
0.0010030404
0.0010023342
0.0010017536
0.0010012933
0.0010009431
0.0010006559
0.0010004251
0.0010003779
0.0010004324
4.0420723e-07
2.0781536e-06
2.2375985e-06
1.6598902e-06
1.5882278e-06
1.4176216e-06
1.3973686e-06
1.3921802e-06
1.4435119e-06
1.5244731e-06
1.6385243e-06
1.7751064e-06
1.9401026e-06
2.1301863e-06
2.3459645e-06
2.5885127e-06
2.85969e-06
3.1617387e-06
3.4973542e-06
3.8696506e-06
4.2822397e-06
4.7393165e-06
5.2458034e-06
5.8075455e-06
6.4315706e-06
7.1264231e-06
7.9025891e-06
8.7730289e-06
9.7538368e-06
1.086505e-05
1.2131627e-05
1.358465e-05
1.5262749e-05
1.7213826e-05
1.9497097e-05
2.2185621e-05
2.5369257e-05
2.9158213e-05
3.3687157e-05
3.9120624e-05
4.5659428e-05
5.3547982e-05
6.3083365e-05
7.4624173e-05
8.8606498e-05
0.00010645098
0.00012716973
0.00015230493
0.00018280532
0.00021982183
0.00026475268
0.00032231253
0.00038900746
0.00046996599
0.00056826142
0.00068764246
0.0008326903
0.0010090034
0.0010201279
0.0010189035
0.0010176303
0.0010163046
0.0010149225
0.0010134799
0.0010119721
0.0010103945
0.0010087418
0.001007155
0.0010058065
0.001004665
0.0010037043
0.0010029011
0.0010022334
0.0010016846
0.0010012476
0.0010009067
0.0010006231
0.0010004019
0.0010003294
0.0010003267
3.0781539e-07
1.6041182e-06
1.6660704e-06
1.3075107e-06
1.2362098e-06
1.1487322e-06
1.149036e-06
1.1785992e-06
1.250934e-06
1.3523279e-06
1.4815679e-06
1.6335665e-06
1.8096643e-06
2.0095572e-06
2.2342021e-06
2.4850486e-06
2.7640722e-06
3.0736004e-06
3.4163411e-06
3.795403e-06
4.2143762e-06
4.6774278e-06
5.1894342e-06
5.7561821e-06
6.3846395e-06
7.0832959e-06
7.8625943e-06
8.7354711e-06
9.7180232e-06
1.0830319e-05
1.2097392e-05
1.3550429e-05
1.5228203e-05
1.717878e-05
1.9461626e-05
2.2150188e-05
2.5334433e-05
2.9124662e-05
3.3655637e-05
3.9091983e-05
4.5634247e-05
5.3921153e-05
6.3533437e-05
7.5163406e-05
8.9248869e-05
0.00010632103
0.00012702417
0.00015214001
0.00018261748
0.00021960536
0.00026691283
0.0003217977
0.00038841494
0.00046928983
0.00056749974
0.00068680048
0.00083178398
0.0010080647
0.0010195407
0.0010183307
0.0010170743
0.0010157685
0.0010144096
0.0010129941
0.001011518
0.0010099774
0.0010083677
0.0010068506
0.0010055631
0.0010044751
0.0010035604
0.001002796
0.0010021606
0.0010016386
0.0010012207
0.0010008884
0.0010006115
0.0010004004
0.0010003083
0.0010002619
1.9163772e-07
1.25721e-06
1.2051558e-06
1.0397113e-06
9.7688978e-07
9.4527365e-07
9.6804232e-07
1.0256394e-06
1.1177578e-06
1.236668e-06
1.3795323e-06
1.5443023e-06
1.7309557e-06
1.9402459e-06
2.1735078e-06
2.4319547e-06
2.7185273e-06
3.0352108e-06
3.3847133e-06
3.7701493e-06
4.195125e-06
4.663813e-06
5.1810359e-06
5.7525083e-06
6.3851358e-06
7.0873393e-06
7.8695008e-06
8.7444996e-06
9.7283824e-06
1.0841179e-05
1.2107885e-05
1.3559648e-05
1.5235162e-05
1.7182356e-05
1.9534318e-05
2.2234841e-05
2.543283e-05
2.9238695e-05
3.3787405e-05
3.9243816e-05
4.5808487e-05
5.3724972e-05
6.3289124e-05
7.4860161e-05
8.887237e-05
0.00010585328
0.00012644265
0.00015276854
0.00018329184
0.00022032135
0.00026525282
0.00031978304
0.00038597653
0.00046634765
0.00056396193
0.00068256223
0.00082672677
0.0010020547
0.0010190347
0.0010178417
0.0010166048
0.0010153212
0.0010139876
0.0010126011
0.001011158
0.001009655
0.0010080881
0.0010066247
0.0010053843
0.0010043372
0.0010034578
0.001002723
0.0010021125
0.0010016112
0.0010012074
0.001000882
0.0010006121
0.0010004079
0.0010002981
0.0010002172
2.650854e-07
1.0040081e-06
8.8073303e-07
8.3003121e-07
7.9700064e-07
7.9830692e-07
8.3973383e-07
9.1562212e-07
1.0202273e-06
1.148518e-06
1.2978564e-06
1.4674449e-06
1.6576739e-06
1.8695873e-06
2.1046641e-06
2.3646959e-06
2.6517674e-06
2.9682925e-06
3.3170248e-06
3.7011167e-06
4.1241495e-06
4.5901699e-06
5.1035937e-06
5.6700668e-06
6.2965143e-06
6.991324e-06
7.7648139e-06
8.6297715e-06
9.6021196e-06
1.0701731e-05
1.1953403e-05
1.3388028e-05
1.5043982e-05
1.6968818e-05
1.9221257e-05
2.1873364e-05
2.5013596e-05
2.8750454e-05
3.3216667e-05
3.8574122e-05
4.5019624e-05
5.2792233e-05
6.266511e-05
7.4113347e-05
8.7974245e-05
0.00010476937
0.00012513158
0.00014982899
0.00017979422
0.00021616032
0.00026030459
0.0003139026
0.00037899442
0.00045806616
0.00055415072
0.00067095335
0.00081300795
0.00098586192
0.0010186222
0.0010174489
0.0010162339
0.0010149744
0.0010136679
0.0010123116
0.0010109026
0.001009438
0.0010079145
0.0010064859
0.0010052762
0.0010042558
0.0010033991
0.0010026832