/*--------------------------------*- C++ -*----------------------------------*\
  =========                 |
  \\      /  F ield         | OpenFOAM: The Open Source CFD Toolbox
   \\    /   O peration     | Website:  https://openfoam.org
    \\  /    A nd           | Version:  6
     \\/     M anipulation  |
\*---------------------------------------------------------------------------*/
FoamFile
{
    version     2.0;
    format      ascii;
    class       volScalarField;
    location    "700";
    object      omega;
}
// * * * * * * * * * * * * * * * * * * * * * * * * * * * * * * * * * * * * * //

dimensions      [0 0 -1 0 0 0 0];

internalField   nonuniform List<scalar> 
16000
(
1427.5402
1495.9883
767.35362
495.93475
333.37646
257.15618
192.50722
159.71694
129.1555
110.51039
93.61502
81.53957
70.987452
62.690726
55.567338
49.698041
44.698329
40.47166
36.834667
33.702725
30.979943
28.604967
26.520499
24.684217
23.059668
21.617904
20.334409
19.189004
18.164668
17.247151
16.424438
15.686369
15.024237
14.430507
13.898629
13.422845
12.998036
12.619604
12.283374
11.985502
11.722443
11.490965
11.288046
11.110848
10.956726
10.823226
10.70806
10.609123
10.524513
10.45254
10.391775
10.341116
10.300008
10.269096
10.247884
10.234346
10.225861
10.219464
10.213037
10.205587
10.196245
10.185137
10.171874
10.155902
10.136876
10.115091
10.091695
10.069088
10.048588
10.031363
10.015941
10.004899
9.9934017
9.9881118
9.9801968
9.9883602
9.9829193
10.023876
9.9926658
10.035404
1333.6569
1536.8801
769.34209
503.38308
335.32779
260.98983
194.17087
161.85024
130.38695
111.69039
94.399333
82.161872
71.412773
62.970252
55.776606
49.869086
44.834819
40.582902
36.925198
33.77711
31.041507
28.65651
26.5642
24.721769
23.092421
21.646921
20.360535
19.21289
18.186806
17.267887
16.444003
15.704919
15.041877
14.447297
13.914598
13.438008
13.012398
12.633167
12.296146
11.997494
11.733647
11.501384
11.297693
11.11974
10.964882
10.830673
10.714828
10.615239
10.529991
10.457374
10.395912
10.3444
10.301997
10.26851
10.244977
10.229877
10.220644
10.214057
10.207684
10.200619
10.192554
10.182615
10.170478
10.155547
10.137399
10.116127
10.092837
10.069957
10.049319
10.031721
10.016443
10.004786
9.994176
9.9889291
9.9810328
9.9862122
9.982054
10.01917
9.9929912
10.03605
1088.3701
1576.5534
769.21677
510.02091
336.60477
264.33037
195.49502
163.65346
131.39502
112.61389
94.991078
82.564194
71.654769
63.133549
55.893595
49.955776
44.895864
40.625439
36.953658
33.794959
31.05166
28.661142
26.565106
24.720223
23.089436
21.643257
20.356773
19.209451
18.18398
17.265841
16.442804
15.704571
15.04235
14.448524
13.916494
13.440478
13.015346
12.636496
12.299775
12.00135
11.737641
11.505438
11.301744
11.123734
10.968766
10.834411
10.718391
10.618599
10.533118
10.460229
10.39843
10.346465
10.303371
10.268626
10.242587
10.225719
10.215588
10.208732
10.20231
10.195262
10.187402
10.178461
10.167688
10.154026
10.136974
10.116451
10.093417
10.07041
10.04965
10.03187
10.016655
10.004703
9.9945519
9.9894784
9.9819067
9.9852076
9.9820123
10.015274
9.993188
10.03297
1114.5579
1610.7111
767.51057
515.79117
337.31108
267.10196
196.53595
165.05775
132.18477
113.22376
95.370043
82.712901
71.740858
63.185046
55.913759
49.953754
44.877948
40.59617
36.917448
33.754064
31.008542
28.617322
26.521928
24.678525
23.049865
21.606239
20.322603
19.178294
18.155909
17.240829
16.420735
15.685284
15.025665
14.434239
13.904396
13.430357
13.006993
12.629712
12.294378
11.997187
11.734534
11.503225
11.300284
11.122901
10.968437
10.834483
10.718777
10.619218
10.533896
10.461085
10.399276
10.347184
10.30378
10.26836
10.240756
10.221894
10.210699
10.203505
10.197002
10.189912
10.182062
10.17328
10.163242
10.151116
10.135426
10.115918
10.093346
10.070351
10.049547
10.031704
10.016568
10.004468
9.9946621
9.9890218
9.9827409
9.9852029
9.9822386
10.010922
9.9935151
10.031215
1138.5046
1636.6684
764.5983
520.58165
337.46943
269.22189
197.29763
166.00122
132.74223
113.47053
95.508454
82.715662
71.706564
63.12384
55.835879
49.862177
44.780137
40.49439
36.815898
33.653895
30.911686
28.524656
26.434349
24.596424
22.973506
21.535715
20.257916
19.119351
18.102557
17.192842
16.377815
15.6471
14.991888
14.404524
13.8784
13.407747
12.987452
12.612931
12.280074
11.985123
11.724442
11.494858
11.293422
11.117344
10.96399
10.830978
10.716067
10.617165
10.53238
10.459987
10.398474
10.346545
10.303136
10.267458
10.239113
10.218422
10.205964
10.198354
10.191748
10.184589
10.176702
10.167944
10.15809
10.146705
10.132667
10.114475
10.092598
10.069764
10.049006
10.03121
10.016193
10.004082
9.9945577
9.9885874
9.9833547
9.9851439
9.9826905
10.007043
9.993925
10.027768
1160.1716
1650.5559
760.97234
524.25451
337.11829
270.58364
197.7916
166.40179
133.04802
113.38067
95.391089
82.569567
71.548882
62.947569
55.657607
49.679236
44.600744
40.318734
36.647804
33.493456
30.760241
28.382452
26.301791
24.473451
22.859988
21.4314
20.162498
19.032467
18.023823
17.121826
16.314032
15.590038
14.94106
14.359444
13.838587
13.372744
12.956826
12.586264
12.256971
11.965266
11.707474
11.480442
11.281254
11.107156
10.955512
10.823973
10.710328
10.612502
10.528624
10.456976
10.396052
10.344555
10.301404
10.265761
10.237093
10.215346
10.201386
10.193266
10.186538
10.179292
10.171344
10.162567
10.152775
10.141663
10.128621
10.112081
10.09117
10.068654
10.04804
10.030391
10.015547
10.003533
9.9942566
9.988118
9.9837148
9.9849535
9.9832495
10.004064
9.9943861
10.02546
1179.585
1649.9247
756.87533
526.61989
336.31492
271.06227
198.03348
166.16712
133.06837
113.09193
95.124357
82.275306
71.267203
62.656418
55.378597
49.40495
44.339617
40.069187
36.413156
33.272841
30.554331
28.190894
26.124477
24.309884
22.709626
21.293641
20.036728
18.918047
17.920127
17.028216
16.22983
15.514545
14.873631
14.29944
13.785389
13.325764
12.915515
12.55009
12.225422
11.937945
11.683932
11.460253
11.264032
11.092562
10.943202
10.813644
10.701715
10.605359
10.522735
10.452141
10.392081
10.341262
10.2986
10.263232
10.234553
10.212324
10.196969
10.188224
10.181356
10.17401
10.165986
10.157166
10.147387
10.136405
10.123793
10.108679
10.089049
10.067022
10.046655
10.029249
10.014643
10.002814
9.9937752
9.9876244
9.9838304
9.9844035
9.9838251
10.001605
9.9948021
10.022834
1196.837
1645.9478
751.75804
527.49604
335.13952
270.53496
198.04129
165.54184
132.73794
112.61031
94.709545
81.83565
70.861992
62.251531
54.999087
49.039843
43.996974
39.746055
36.112206
32.992346
30.294279
27.950335
25.902802
24.106154
22.522883
21.122938
19.881129
18.776633
17.792023
16.912574
16.125779
15.42119
14.79016
14.225061
13.719337
13.267317
12.864004
12.504872
12.185851
11.903552
11.654177
11.43462
11.242049
11.073825
10.927295
10.800196
10.690406
10.595889
10.514845
10.445592
10.386648
10.336733
10.294768
10.259877
10.231414
10.209014
10.192733
10.183213
10.176189
10.168734
10.160623
10.151746
10.141958
10.131048
10.118678
10.104215
10.086241
10.064892
10.044873
10.027803
10.013505
10.001939
9.9931432
9.9870981
9.9837647
9.9837702
9.9843485
9.9992962
9.9950741
10.020437
1212.0613
1643.1343
745.62527
526.72705
333.67583
268.86264
197.79261
164.65324
132.11119
111.94426
94.14825
81.254443
70.334361
61.734858
54.519999
48.585055
43.573655
39.350162
35.745747
32.652778
29.980891
27.661603
25.637602
23.863127
22.300648
20.920192
19.696614
18.609137
17.640419
16.775801
16.002768
15.310841
14.691488
14.137117
13.641206
13.198133
12.802977
12.451256
12.138843
11.862624
11.618699
11.403987
11.215696
11.051294
10.908098
10.783894
10.67663
10.584286
10.505117
10.437463
10.379864
10.331057
10.289972
10.255732
10.227671
10.205362
10.188722
10.178218
10.171023
10.163454
10.15525
10.146309
10.136499
10.125634
10.113439
10.099447
10.082748
10.062292
10.042722
10.026075
10.012159
10.000925
9.9923974
9.9865495
9.9835647
9.9832624
9.9848
9.997179
9.9952488
10.01791
1225.4256
1641.1184
738.62568
524.06928
332.00032
266.76744
197.21932
163.53054
131.32789
111.10158
93.441202
80.535329
69.685292
61.108191
53.942292
48.041773
43.070623
38.882486
35.314755
32.255164
29.615224
27.325785
25.329995
23.581949
22.044085
20.686581
19.48437
18.416745
17.466484
16.61904
15.861923
15.184588
14.578664
14.036611
13.551948
13.119106
12.733262
12.390025
12.085098
11.815797
11.578074
11.368873
11.18543
11.025373
10.885966
10.765046
10.660651
10.570774
10.493739
10.427912
10.371859
10.324337
10.284291
10.250852
10.22334
10.201286
10.184499
10.173229
10.165849
10.158163
10.149865
10.140857
10.131017
10.120183
10.10812
10.094462
10.078576
10.059266
10.04024
10.024099
10.010639
9.999797
9.9915742
9.9859883
9.9832699
9.9828696
9.985175
9.9953235
9.9953425
10.015323
1237.1263
1639.4307
730.8811
519.18769
330.13557
264.32663
196.20462
162.19212
130.3887
110.09075
92.589583
79.682205
68.916163
60.373539
53.267263
47.411436
42.48919
38.344278
34.82057
31.800885
29.198706
26.944337
24.981466
23.264152
21.754742
20.423661
19.245951
18.200996
17.271717
16.443749
15.704668
15.043797
14.452992
13.924779
13.452729
13.031323
12.655853
12.322125
12.025452
11.763823
11.532979
11.329891
11.151779
10.996528
10.861308
10.744
10.642774
10.555609
10.480924
10.417115
10.362777
10.316692
10.277821
10.245306
10.218467
10.196806
10.180045
10.168243
10.160658
10.152857
10.144466
10.135392
10.125524
10.114714
10.102761
10.089365
10.074032
10.055867
10.037473
10.021915
10.008979
9.9985852
9.9907114
9.9854312
9.9829236
9.9825806
9.9854793
9.9938265
9.9954478
10.013005
1247.43
1637.4526
722.57237
511.63921
328.07615
261.6027
194.70639
160.6582
129.29418
108.92076
91.59507
78.698973
68.028639
59.532914
52.496351
46.695607
41.830927
37.737007
34.258112
31.284663
28.72629
26.512596
24.587818
22.906048
21.429416
20.128677
18.979007
17.959892
17.054421
16.248474
15.5298
14.887459
14.313624
13.800917
13.342974
12.934314
12.570331
12.247288
11.960854
11.707554
11.484173
11.287731
11.115329
10.965276
10.834582
10.721143
10.62333
10.53907
10.466905
10.405266
10.352778
10.30825
10.270664
10.239176
10.21311
10.191954
10.175371
10.163262
10.155445
10.147535
10.139055
10.129921
10.120028
10.109244
10.097394
10.084231
10.069372
10.052161
10.034476
10.01957
10.007221
9.9973239
9.989845
9.9848975
9.9825689
9.9823783
9.9857037
9.9927264
9.9955507
10.0111
1256.615
1634.3018
713.8845
503.52801
325.74956
258.66011
193.1079
158.94514
128.0418
107.59785
90.457937
77.58776
67.023486
58.587372
51.61852
45.880358
41.081533
37.048569
33.62837
30.709329
28.20195
26.035157
24.153946
22.512696
21.073154
19.806572
18.688327
17.69803
16.818946
16.037281
15.341169
14.719157
14.163878
13.668078
13.225489
12.830655
12.478929
12.167132
11.890803
11.64657
11.431303
11.242159
11.076719
10.932171
10.806284
10.696888
10.602681
10.521458
10.451932
10.392571
10.342031
10.299149
10.262931
10.232547
10.207331
10.18677
10.170494
10.158302
10.15021
10.142198
10.13364
10.124454
10.114545
10.103792
10.092042
10.079092
10.064645
10.048221
10.031312
10.017117
10.005406
9.99605
9.9890088
9.984407
9.9822417
9.9822481
9.9858149
9.991931
9.9956609
10.009488
1264.9785
1628.8272
704.96406
494.95871
322.99448
255.53787
191.40029
157.07077
126.63064
106.12839
89.179554
76.350752
65.875312
57.508129
50.626751
44.966554
40.246143
36.285386
32.933559
30.077336
27.628415
25.514869
23.682715
22.087053
20.688903
19.460249
18.376752
17.418175
16.567929
15.812574
15.141107
14.541068
14.005766
13.52811
13.101979
12.721984
12.383144
12.083241
11.817561
11.582853
11.376057
11.194316
11.03558
10.896914
10.776218
10.671668
10.581216
10.503095
10.43627
10.379247
10.330712
10.289535
10.25474
10.225514
10.201202
10.181296
10.165417
10.153326
10.144957
10.136855
10.128229
10.119004
10.109091
10.098379
10.086735
10.073987
10.059901
10.044131
10.028048
10.014611
10.003579
9.9948012
9.9882345
9.9839824
9.9819758
9.982193
9.9858016
9.991
9.9957488
10.008191
1272.8247
1619.3109
695.95062
485.9718
319.48455
252.27191
189.56628
155.05021
125.05941
104.51603
87.715334
74.930044
64.572681
56.29764
49.520985
43.955067
39.326521
35.449755
32.176526
29.391779
27.009143
24.955341
23.177651
21.63276
20.280257
19.093195
18.047647
17.123579
16.304481
15.577054
14.929875
14.353341
13.839341
13.380975
12.972334
12.608318
12.284491
11.996969
11.742323
11.517468
11.319467
11.145229
10.993389
10.860732
10.745179
10.6452
10.558752
10.484322
10.420197
10.365521
10.319006
10.279555
10.246212
10.218176
10.1948
10.175586
10.160151
10.14823
10.139695
10.131517
10.122838
10.113589
10.103686
10.093031
10.081502
10.068953
10.055196
10.039977
10.024758
10.01211
10.001785
9.9936139
9.9875502
9.9836497
9.9818075
9.9822149
9.9857404
9.99026
9.9957472
10.007087
1280.4313
1603.1774
686.95701
476.60619
315.81341
248.89281
187.57688
152.89289
123.32691
102.66453
86.033113
73.32789
63.111763
54.954204
48.301366
42.847247
38.325195
34.544824
31.361165
28.6567
26.34865
24.361266
22.643106
21.15032
19.847399
18.705362
17.70083
16.814042
16.028533
15.331499
14.711787
14.160047
13.668398
13.230154
12.839599
12.491801
12.182471
11.907851
11.664646
11.449976
11.261261
11.095696
10.950857
10.82432
10.713859
10.618444
10.535879
10.464936
10.404008
10.351631
10.307103
10.269361
10.23747
10.210635
10.188209
10.169708
10.154748
10.143049
10.13444
10.126201
10.117485
10.108228
10.098355
10.087773
10.076376
10.064033
10.050588
10.035848
10.021513
10.00967
10.000066
9.99252
9.9869756
9.9834293
9.9817707
9.9823274
9.9856413
9.9896509
9.9955812
10.006085
1288.0287
1576.4731
678.06513
466.83625
312.28533
245.42812
185.3996
150.52913
121.25938
100.55588
84.120363
71.536501
61.488476
53.476378
46.968977
41.6456
37.246223
33.575149
30.493048
27.877417
25.646497
23.732024
22.079816
20.646613
19.397549
18.303932
17.343245
16.496234
15.746206
15.081088
14.490062
13.964081
13.495542
13.078012
12.706001
12.374781
12.080228
11.818713
11.587028
11.382408
11.202725
11.045148
10.907482
10.787374
10.682792
10.591923
10.513068
10.445439
10.387495
10.337831
10.295201
10.259108
10.228636
10.202993
10.181514
10.163731
10.149265
10.137825
10.129213
10.120932
10.112196
10.10295
10.093124
10.082636
10.071389
10.059267
10.046134
10.031832
10.018386
10.007347
9.9984618
9.9915461
9.986523
9.9833305
9.9818811
9.9825525
9.9855602
9.989143
9.9952944
10.005168
1295.7698
1532.8812
669.16062
456.56502
308.79505
241.87053
183.64447
147.82735
118.83412
98.167858
81.962339
69.545721
59.69837
51.863459
45.526563
40.354412
36.096097
32.54709
29.569792
27.053534
24.912015
23.077727
21.497317
20.128347
18.937034
17.894653
16.979965
16.174915
15.461785
14.829659
14.26812
13.768478
13.323454
12.926903
12.573603
12.259058
11.97935
11.731002
11.510866
11.316009
11.1452
10.99535
10.864647
10.750698
10.651511
10.565389
10.490773
10.426223
10.371065
10.323928
10.283521
10.24896
10.219833
10.195354
10.174803
10.157729
10.143761
10.132606
10.124044
10.115738
10.107002
10.097784
10.088024
10.077651
10.066577
10.054697
10.041888
10.028012
10.015445
10.005192
9.9970085
9.9907115
9.9861973
9.9833562
9.9821379
9.9828942
9.9855582
9.9888042
9.9950303
10.004248
1303.4673
1475.8872
659.58936
445.59867
305.17363
239.6546
181.26421
144.65689
116.02241
95.459965
79.537865
67.343493
57.737225
50.116609
43.980189
38.980481
34.868962
31.458192
28.604583
26.198471
24.154862
22.407472
20.904095
19.603129
18.473085
17.48403
16.616253
15.85198
15.176605
14.578087
14.046454
13.57342
13.152062
12.776559
12.441975
12.144081
11.8792
11.644092
11.435854
11.251859
11.089699
10.9471
10.823063
10.715062
10.621053
10.539436
10.46875
10.407672
10.355017
10.31026
10.271893
10.239102
10.21118
10.18782
10.168165
10.151779
10.138303
10.127442
10.11897
10.110658
10.101939
10.092768
10.083092
10.072851
10.061969
10.050356
10.037898
10.02446
10.012748
10.00325
9.9957355
9.9900266
9.9859948
9.9834982
9.9825142
9.983319
9.9856669
9.9886909
9.9947251
10.003262
1311.0157
1428.7852
649.32659
440.01695
303.49111
235.66277
177.8326
140.97107
112.7705
92.405953
76.829786
64.925352
55.608242
48.243395
42.322079
37.51971
33.584067
30.328398
27.611261
25.32505
23.386788
21.731966
20.310128
19.079073
18.009385
17.075388
16.256244
15.534953
14.89759
14.3327
13.83083
13.384142
12.986107
12.631252
12.314948
12.033236
11.782684
11.56026
11.363244
11.189164
11.035816
10.901167
10.783302
10.68097
10.591881
10.514521
10.447503
10.389571
10.339601
10.297079
10.260602
10.229397
10.202794
10.180493
10.161687
10.145958
10.132955
10.122391
10.114032
10.105735
10.097053
10.087945
10.078368
10.068271
10.057595
10.046267
10.034191
10.021236
10.010343
10.001561
9.994669
9.9894998
9.9859087
9.9837386
9.9829718
9.9837925
9.9859035
9.9887803
9.9943136
10.002123
1317.9638
1405.8739
641.21241
442.14687
303.4504
230.25473
173.77473
136.66822
109.0196
88.980637
73.830027
62.296928
53.325825
46.239982
40.577255
36.001097
32.262135
29.176679
26.606913
24.448477
22.621202
21.062701
19.721643
18.563158
17.556876
16.678362
15.907839
15.229217
14.629348
14.097445
13.624623
13.203536
12.828073
12.493123
12.194373
11.928142
11.69125
11.48089
11.294525
11.129761
10.984524
10.856961
10.745871
10.648863
10.56439
10.491023
10.427448
10.372474
10.325034
10.284596
10.249883
10.22016
10.194788
10.173472
10.155456
10.140342
10.127788
10.117512
10.10928
10.10102
10.092394
10.083366
10.0739
10.063955
10.053483
10.042436
10.030756
10.018384
10.008267
10.000154
9.9938357
9.9891492
9.985943
9.9840633
9.9834941
9.9843228
9.9861902
9.9887643
9.9937612
10.000682
1322.8412
1412.7214
633.85455
436.22107
298.929
224.30529
168.77363
131.80664
104.75436
85.189686
70.553848
59.482028
50.889689
44.145325
38.778245
34.45416
30.92956
28.026266
25.611695
23.586047
21.873197
20.410056
19.153175
18.067394
17.124054
16.300159
15.577142
14.939933
14.376243
13.876008
13.430954
13.034249
12.680216
12.364108
12.081919
11.830232
11.606108
11.406994
11.230672
11.07468
10.936981
10.816645
10.711223
10.619126
10.538901
10.469206
10.408808
10.356561
10.311499
10.272968
10.23987
10.21151
10.187273
10.166855
10.149562
10.13501
10.122871
10.112868
10.10477
10.096568
10.08802
10.079094
10.069755
10.059966
10.049687
10.038874
10.027478
10.015934
10.006538
9.9990455
9.993254
9.9889998
9.9861253
9.9844902
9.9840816
9.9849026
9.9865677
9.9889094
9.9933342
9.9992044
1323.389
1423.475
624.60715
425.87291
292.89757
217.19862
162.76906
126.23902
99.951088
81.028039
67.017819
56.485863
48.356807
42.004206
36.965261
32.914275
29.617157
26.903686
24.647926
22.755481
21.154641
19.79029
18.616324
17.601488
16.71904
15.947575
15.269844
14.671868
14.142267
13.671734
13.252628
12.878644
12.544543
12.24594
11.979115
11.740875
11.528427
11.339294
11.172314
11.024654
10.894473
10.780053
10.679782
10.592126
10.51572
10.449314
10.391785
10.341927
10.299178
10.262347
10.230692
10.203556
10.180362
10.160743
10.144095
10.130046
10.11828
10.108527
10.10056
10.092442
10.083996
10.075195
10.066007
10.0564
10.04634
10.035786
10.024698
10.013901
10.005156
9.9982243
9.9929087
9.9890421
9.9864639
9.9850466
9.9847679
9.9855668
9.9870957
9.9893283
9.9932899
9.9983752
1316.9351
1377.4123
615.60578
414.46107
284.91005
208.81424
155.7574
120.0072
94.687997
76.589982
63.32153
53.407664
45.802907
39.879445
35.190607
31.425223
28.361938
25.840783
23.743818
21.982942
20.491417
19.218039
18.123056
17.175269
16.349954
15.627354
14.991567
14.429724
13.931356
13.487913
13.092382
12.738983
12.42292
12.14018
11.887363
11.66154
11.460136
11.280904
11.121818
10.981025
10.856815
10.747609
10.651945
10.568245
10.49519
10.43156
10.37673
10.329264
10.288257
10.252891
10.222462
10.196353
10.174172
10.155241
10.139147
10.125533
10.114091
10.104558
10.096711
10.088698
10.080378
10.071723
10.062709
10.053306
10.043483
10.033208
10.022445
10.012297
10.004116
9.9976704
9.9927654
9.9892316
9.9869096
9.9856826
9.9855093
9.9862836
9.9877174
9.9898711
9.993443
9.9978409
1300.6134
1324.2685
606.70634
400.73089
275.20626
199.34442
147.90716
113.28803
89.154398
72.052916
59.622705
50.379777
43.332297
37.853717
33.520552
30.040381
27.20662
24.871835
22.927102
21.291299
19.903132
18.71567
17.692517
16.805124
16.030862
15.351637
14.752877
14.222772
13.751714
13.331845
12.956723
12.621035
12.32038
12.051082
11.81004
11.594604
11.402262
11.230918
11.078671
10.943765
10.824568
10.719544
10.627963
10.547837
10.477912
10.417052
10.364215
10.31846
10.278942
10.244818
10.215401
10.19032
10.168826
10.150458
10.134818
10.12156
10.110384
10.101033
10.093288
10.085402
10.077226
10.068738
10.059914
10.05073
10.04116
10.031175
10.020745
10.011134
10.003419
9.9973728
9.9928035
9.9895398
9.9874266
9.9863536
9.9862584
9.9870106
9.9883865
9.9904822
9.9937326
9.9975825
1268.6541
1271.3903
599.30383
384.46898
263.28927
188.50142
139.07568
106.04911
83.389119
67.476124
55.981799
47.455168
40.974615
35.944393
31.967014
28.770904
26.158581
24.001151
22.199474
20.679863
19.386725
18.277516
17.319241
16.48598
15.757159
15.116297
14.550094
14.04775
13.600456
13.200998
12.843444
12.52289
12.23526
11.977128
11.745582
11.539016
11.354421
11.18985
11.043531
10.913829
10.799223
10.698287
10.609681
10.532155
10.464432
10.405416
10.354102
10.309573
10.271342
10.238333
10.20989
10.185435
10.164458
10.146515
10.131215
10.118223
10.107245
10.09803
10.090361
10.082619
10.074605
10.066298
10.057678
10.048724
10.039412
10.029719
10.019619
10.010418
10.003057
9.9973137
9.9929958
9.9899323
9.9879734
9.9870108
9.9869629
9.9876903
9.9890246
9.9910579
9.9940284
9.9974372
1218.7993
1204.748
587.64614
364.84428
248.0685
176.41352
129.98114
99.216881
78.30518
63.653978
53.059325
45.172818
39.15669
34.480913
30.776931
27.793644
25.355528
23.337177
21.647268
20.218112
18.998718
17.950063
17.041842
16.250183
15.556127
14.944476
14.402952
13.921568
13.492171
13.108071
12.763764
12.4547
12.177093
11.927766
11.704021
11.503443
11.323977
11.163781
11.021176
10.894604
10.782608
10.683814
10.596925
10.521312
10.455237
10.397648
10.347578
10.304143
10.266544
10.234066
10.206066
10.18198
10.161308
10.143612
10.128509
10.115666
10.104795
10.095646
10.088002
10.080421
10.072581
10.064467
10.056061
10.047344
10.038296
10.028898
10.019129
10.010192
10.003057
9.9975047
9.9933416
9.9903973
9.988527
9.9876211
9.9875822
9.9882739
9.9895781
9.9915744
9.9943518
9.9974579
1161.4952
1125.6642
562.48496
341.57998
227.63515
160.1962
117.97069
90.345717
71.745993
58.761429
49.377158
42.386823
37.041488
32.851288
29.505387
26.790332
24.555944
22.694308
21.126352
19.793093
18.649801
17.662055
16.802756
16.050719
15.389042
14.804048
14.284618
13.821651
13.407675
13.036528
12.703119
12.403222
12.133305
11.890392
11.672763
11.477391
11.302346
11.145899
11.006477
10.882615
10.772932
10.676117
10.590935
10.516216
10.450863
10.393858
10.344259
10.301204
10.263911
10.231679
10.203878
10.17995
10.159403
10.141805
10.126777
10.113988
10.103153
10.094023
10.086382
10.078965
10.071303
10.063377
10.055174
10.046675
10.037864
10.028724
10.019235
10.010421
10.00339
9.9979196
9.9938151
9.9909062
9.9890499
9.9881304
9.9880392
9.9886561
9.9899
9.9917933
9.9943017
9.997114
1124.1949
1168.299
573.71549
344.96207
227.97456
159.35817
116.91184
89.556511
71.26221
58.510382
49.282042
42.38536
37.091318
32.934951
29.609417
26.904804
24.673788
22.810624
21.237867
19.89775
18.746433
17.750094
16.882517
16.122796
15.454088
14.862741
14.337606
13.869538
13.451012
13.075815
12.738808
12.435718
12.162981
11.91759
11.696991
11.498973
11.321561
11.162922
11.021457
10.895698
10.784263
10.685845
10.599205
10.523173
10.456648
10.398605
10.348094
10.304243
10.266262
10.233437
10.205128
10.180768
10.159855
10.141946
10.126654
10.113642
10.102616
10.093321
10.085536
10.078314
10.070852
10.063136
10.05515
10.046878
10.038304
10.029411
10.020182
10.01124
10.004111
9.998565
9.994399
9.9914381
9.9895339
9.9885611
9.9884049
9.9889583
9.9901494
9.9919487
9.9942816
9.9969785
1160.556
1236.5118
595.01794
360.44604
237.52862
166.06795
121.58836
92.957174
73.79489
60.450133
50.796747
43.586004
38.053575
33.713485
30.244155
27.425877
25.104366
23.168779
21.537829
20.150804
18.9616
17.934649
17.042097
16.261793
15.575967
14.970257
14.432967
13.954519
13.527041
13.14404
12.800146
12.490903
12.212596
11.962102
11.736775
11.534337
11.352813
11.190489
11.045721
10.91699
10.802879
10.702056
10.613261
10.535307
10.467076
10.407525
10.355689
10.310681
10.271693
10.237997
10.208938
10.183936
10.162475
10.144101
10.128419
10.115079
10.103781
10.094263
10.086296
10.079301
10.072071
10.064592
10.056849
10.048827
10.04051
10.031882
10.022927
10.013627
10.006136
10.000279
9.9958461
9.9926548
9.9905496
9.9893963
9.9890765
9.9894882
9.990553
9.9922074
9.9943754
9.996978
30486.785
33032.449
18964.814
13116.971
9501.0418
6916.4607
5041.5148
3694.2714
2725.0026
2026.4783
1515.7801
1141.4278
862.14483
657.64772
499.10366
380.63027
288.29465
218.93698
167.60129
129.87509
101.85685
81.264121
66.041872
54.755136
46.342132
39.971573
35.096588
31.29911
28.281659
25.816994
23.754695
22.00144
20.490422
19.174449
18.019524
17.000722
16.099238
15.300447
14.592629
13.966142
13.412759
12.925276
12.497337
12.123215
11.797655
11.515789
11.273084
11.065232
10.888584
10.740328
10.618494
10.52037
10.441506
10.37906
10.331068
10.295494
10.270416
10.253061
10.239914
10.229135
10.217938
10.207213
10.193059
10.179605
10.158434
10.14108
10.110804
10.092239
10.050359
10.034473
10.004149
9.9986526
9.9722604
9.9790045
9.9495468
9.9793488
9.9493608
10.001134
9.9617326
10.000383
33489.429
28362.533
21559.77
16304.404
12071.034
8779.7076
6353.3487
4600.6991
3348.5527
2453.2052
1808.4064
1339.5855
996.60442
743.85544
557.0175
418.52665
315.74167
239.62853
183.23978
141.51695
110.50922
87.620622
70.699319
58.186776
48.896292
41.882017
36.534894
32.39704
29.137347
26.502303
24.310006
22.455008
20.863776
19.483451
18.276146
17.214168
16.276764
15.447893
14.714789
14.067008
13.495683
12.993099
12.552479
12.167749
11.833356
11.544185
11.295492
11.082717
10.901969
10.750229
10.625563
10.524747
10.443428
10.379014
10.329485
10.293214
10.268145
10.251023
10.238207
10.227829
10.216969
10.206623
10.19273
10.179633
10.158613
10.141527
10.111281
10.092867
10.051446
10.035786
10.005085
9.9998631
9.9731566
9.9801329
9.9506689
9.9801663
9.9506742
10.002142
9.9629357
10.00183
36845.288
20087.339
12943.779
8306.8526
4615.6636
2235.2679
1019.8608
489.35468
276.67889
187.39767
145.7521
120.72166
104.17808
90.939326
80.587401
72.090871
64.629019
58.722712
53.172784
48.730547
44.475696
40.99604
37.743987
34.941624
32.413669
30.052427
27.960927
26.087501
24.378648
22.811198
21.381924
20.092872
18.932397
17.887481
16.947221
16.10196
15.343215
14.663373
14.055673
13.514052
13.032858
12.606904
12.231471
11.902124
11.614678
11.365161
11.14982
10.964879
10.80739
10.675248
10.567371
10.479404
10.40795
10.351463
10.30844
10.278197
10.257777
10.243886
10.232898
10.22373
10.213205
10.203422
10.189198
10.17663
10.154692
10.138542
10.106976
10.090307
10.047544
10.035083
10.002947
10.000328
9.9720436
9.9812946
9.9500954
9.9819152
9.950698
10.00401
9.9633096
10.003366
34088.235
23400.197
13757.924
7705.6458
3551.748
1392.138
549.63171
277.60348
191.80179
152.28601
129.79293
111.43174
98.31497
86.464989
77.2607
69.48242
62.438526
57.050025
51.654481
47.528095
43.339426
40.100886
36.84496
34.238303
31.680642
29.475849
27.389957
25.59586
23.900284
22.373584
20.997618
19.757167
18.639806
17.633272
16.72695
15.911584
15.179127
14.52236
13.934884
13.410942
12.945157
12.532624
12.168848
11.849599
11.570861
11.328822
11.119871
10.940348
10.787479
10.6593
10.554501
10.468321
10.398279
10.342978
10.301651
10.273032
10.253853
10.240861
10.230485
10.221755
10.211522
10.201965
10.187897
10.175435
10.153586
10.137477
10.106037
10.089557
10.047498
10.035816
10.003261
10.001508
9.9726369
9.982695
9.9510056
9.9834347
9.9517074
10.00579
9.964298
10.004987
36067.184
23019.337
13320.61
7235.6286
3230.3532
1220.6825
484.47977
256.92465
183.80005
147.09293
125.68553
107.78478
95.219248
83.789064
75.259974
67.468792
61.09985
55.390358
50.55413
46.228079
42.470476
39.075361
36.099177
33.396533
30.988481
28.805677
26.842118
25.045891
23.423126
21.957471
20.635112
19.4424
18.36663
17.396389
16.521756
15.734102
15.025921
14.39044
13.821637
13.31405
12.862568
12.462539
12.109666
11.799885
11.529339
11.294353
11.091443
10.917051
10.768568
10.644159
10.54208
10.457516
10.388798
10.334866
10.295421
10.268328
10.250319
10.238129
10.228339
10.21996
10.210034
10.200604
10.186756
10.174265
10.152636
10.136368
10.105277
10.088614
10.047382
10.035678
10.003555
10.001358
9.9733084
9.9830239
9.9518968
9.9842262
9.9526904
10.007198
9.9652665
10.006432
36612.317
22705.58
12944.185
6686.5096
2715.6544
943.71938
386.13552
226.57656
173.74595
141.10607
121.73821
104.23166
92.330017
81.123378
73.046269
65.449565
59.353421
53.813119
49.175532
44.997002
41.369474
38.122917
35.241763
32.65014
30.321969
28.217647
26.3126
24.582854
23.014615
21.597199
20.31845
19.164455
18.123046
17.183302
16.335763
15.572181
14.885383
14.268878
13.716886
13.224137
12.785725
12.397189
12.054385
11.753388
11.490465
11.262064
11.064807
10.895226
10.750867
10.630008
10.530189
10.447082
10.3796
10.327585
10.289922
10.26423
10.247277
10.235805
10.226521
10.218442
10.208767
10.199434
10.18576
10.173227
10.151777
10.135353
10.104568
10.087854
10.047439
10.036014
10.004025
10.001965
9.9740123
9.9839451
9.9528248
9.9852319
9.9537028
10.008691
9.9662478
10.007894
37533.568
22460.282
12518.121
6134.0769
2362.5935
791.90457
340.95442
214.09125
168.54731
137.87596
119.02014
101.81028
90.207917
79.126274
71.309708
63.839839
57.959919
52.554301
48.068713
43.999468
40.485073
37.322097
34.527364
32.005943
29.746554
27.702906
25.855008
24.173168
22.650143
21.274383
20.033198
18.912939
17.901744
16.989024
16.165626
15.423601
14.75604
14.156689
13.619954
13.140729
12.714289
12.336326
12.00282
11.709962
11.454128
11.231865
11.03989
10.874813
10.734325
10.616804
10.518724
10.436951
10.371189
10.321159
10.285132
10.260707
10.244699
10.233852
10.225003
10.217162
10.207695
10.198415
10.18489
10.172279
10.151001
10.134388
10.10392
10.087153
10.047464
10.03598
10.004344
10.001999
9.9747089
9.9846078
9.9537575
9.9861194
9.9547179
10.010136
9.9672292
10.009328
38278.445
22116.715
12033.913
5585.7098
2007.2479