/*--------------------------------*- C++ -*----------------------------------*\
  =========                 |
  \\      /  F ield         | OpenFOAM: The Open Source CFD Toolbox
   \\    /   O peration     | Website:  https://openfoam.org
    \\  /    A nd           | Version:  6
     \\/     M anipulation  |
\*---------------------------------------------------------------------------*/
FoamFile
{
    version     2.0;
    format      ascii;
    class       volScalarField;
    location    "700";
    object      p;
}
// * * * * * * * * * * * * * * * * * * * * * * * * * * * * * * * * * * * * * //

dimensions      [1 -1 -2 0 0 0 0];

internalField   nonuniform List<scalar> 
16000
(
99085.716
99143.849
99147.839
99203.829
99215.986
99267.087
99288.407
99335.138
99364.264
99408.415
99443.423
99486.745
99525.989
99569.699
99612.012
99656.767
99701.37
99747.394
99793.738
99840.962
99888.59
99936.758
99985.223
100033.95
100082.77
100131.58
100180.22
100228.55
100276.43
100323.69
100370.18
100415.74
100460.2
100503.41
100545.22
100585.48
100624.04
100660.77
100695.56
100728.28
100758.84
100787.17
100813.18
100836.82
100858.06
100876.87
100893.24
100907.16
100918.67
100927.77
100934.51
100938.94
100941.11
100941.08
100938.93
100934.71
100928.52
100920.41
100910.48
100898.82
100885.47
100870.57
100854.09
100836.29
100816.89
100796.62
100774.23
100752.22
100726.05
100704.15
100671.13
100654.68
100606.36
100611.58
100519.6
100587.07
100385.24
100613.92
100187.73
100668.86
99136.804
99199.1
99203.058
99263.539
99276.028
99331.279
99353.65
99404.01
99434.882
99482.23
99519.477
99565.722
99607.474
99653.955
99698.872
99746.289
99793.47
99842.034
99890.836
99940.428
99990.313
100040.6
100091.04
100141.57
100192
100242.2
100292
100341.24
100389.75
100437.37
100483.91
100529.21
100573.1
100615.42
100656
100694.72
100731.43
100766
100798.34
100828.35
100855.96
100881.1
100903.73
100923.84
100941.4
100956.43
100968.95
100979
100986.61
100991.85
100994.78
100995.47
100994
100990.45
100984.92
100977.48
100968.22
100957.22
100944.58
100930.38
100914.68
100897.58
100879.13
100859.43
100838.45
100816.45
100793.04
100769.12
100742.97
100718.02
100687.56
100664.53
100623.96
100614.19
100543.47
100579.57
100418.25
100595.36
100219.38
100654.98
99209.182
99276.56
99280.538
99345.882
99359.117
99418.595
99442.538
99496.516
99529.614
99580.158
99620.02
99669.227
99713.752
99763.061
99810.749
99860.876
99910.716
99961.828
100013.09
100065
100117.05
100169.34
100221.57
100273.67
100325.43
100376.7
100427.28
100476.99
100525.66
100573.08
100619.08
100663.49
100706.12
100746.81
100785.42
100821.8
100855.84
100887.42
100916.47
100942.92
100966.71
100987.83
101006.26
101022.01
101035.11
101045.61
101053.55
101059.01
101062.07
101062.82
101061.34
101057.74
101052.12
101044.57
101035.21
101024.12
101011.41
100997.17
100981.49
100964.45
100946.12
100926.58
100905.9
100884.13
100861.31
100837.53
100812.69
100787.12
100760.15
100733.17
100703.28
100676.39
100640.03
100620.31
100563
100577.99
100445.4
100581.36
100246.83
100643.64
99304.327
99377.184
99381.209
99451.952
99466.035
99530.213
99555.947
99613.924
99649.549
99703.611
99746.406
99798.858
99846.449
99898.832
99949.53
100002.56
100055.23
100109.01
100162.81
100217.05
100271.26
100325.45
100379.34
100432.8
100485.61
100537.6
100588.54
100638.24
100686.49
100733.1
100777.87
100820.62
100861.17
100899.38
100935.09
100968.2
100998.59
101026.18
101050.93
101072.8
101091.77
101107.85
101121.09
101131.53
101139.23
101144.29
101146.8
101146.86
101144.59
101140.11
101133.54
101125.01
101114.64
101102.54
101088.84
101073.65
101057.06
101039.19
101020.11
100999.92
100978.68
100956.47
100933.34
100909.34
100884.5
100858.88
100832.45
100805.32
100777.25
100748.74
100718.61
100689.37
100655.1
100629.41
100580.24
100580.11
100469.86
100573.4
100274.62
100644.05
99421.764
99500.836
99505.111
99581.993
99597.251
99666.684
99694.646
99757.025
99795.64
99853.539
99899.682
99955.653
100006.64
100062.32
100116.26
100172.35
100227.96
100284.47
100340.82
100397.35
100453.58
100509.48
100564.76
100619.25
100672.7
100724.9
100775.63
100824.66
100871.78
100916.78
100959.45
100999.63
101037.14
101071.85
101103.62
101132.37
101158.03
101180.54
101199.9
101216.11
101229.21
101239.26
101246.33
101250.52
101251.94
101250.73
101247.02
101240.96
101232.69
101222.37
101210.15
101196.17
101180.57
101163.5
101145.08
101125.43
101104.67
101082.88
101060.17
101036.61
101012.27
100987.21
100961.48
100935.12
100908.16
100880.62
100852.49
100823.82
100794.48
100764.65
100733.84
100702.99
100669.5
100639.87
100596.33
100584.22
100492.17
100569.87
100300.91
100647.21
99564.359
99650.67
99655.254
99738.897
99755.479
99830.585
99861.101
99928.164
99970.149
100032.12
100081.96
100141.66
100196.32
100255.47
100312.83
100372.09
100430.73
100489.97
100548.8
100607.49
100665.54
100722.87
100779.16
100834.21
100887.74
100939.53
100989.31
101036.85
101081.93
101124.34
101163.88
101200.38
101233.69
101263.7
101290.33
101313.5
101333.19
101349.41
101362.19
101371.59
101377.7
101380.63
101380.52
101377.51
101371.77
101363.46
101352.78
101339.9
101325
101308.27
101289.88
101270
101248.78
101226.38
101202.92
101178.54
101153.34
101127.44
101100.9
101073.81
101046.23
101018.21
100989.79
100960.99
100931.85
100902.36
100872.51
100842.3
100811.67
100780.64
100749.01
100717.02
100683.7
100651.57
100611.83
100590.59
100513.55
100569.66
100327.33
100654.02
99733.313
99827.901
99832.622
99923.726
99941.839
100023.05
100056.53
100128.59
100174.4
100240.72
100294.66
100358.34
100416.96
100479.79
100540.74
100603.25
100664.95
100726.87
100788.06
100848.67
100908.22
100966.55
101023.32
101078.28
101131.15
101181.66
101229.54
101274.55
101316.46
101355.07
101390.2
101421.7
101449.47
101473.41
101493.5
101509.72
101522.1
101530.71
101535.64
101537.03
101535.01
101529.76
101521.48
101510.36
101496.62
101480.47
101462.14
101441.85
101419.8
101396.21
101371.25
101345.12
101317.99
101290
101261.3
101232.02
101202.25
101172.1
101141.65
101110.96
101080.08
101049.05
101017.91
100986.67
100955.33
100923.89
100892.33
100860.62
100828.71
100796.58
100764.09
100731.25
100697.76
100664.12
100627.08
100599.23
100534.55
100571.48
100353.91
100664.35
99928.498
100032.46
100037.43
100136.92
100157
100244.94
100282.01
100359.51
100409.77
100480.81
100539.35
100607.34
100670.28
100736.99
100801.72
100867.56
100932.29
100996.76
101060.06
101122.23
101182.78
101241.49
101297.99
101352
101403.21
101451.33
101496.09
101537.24
101574.58
101607.92
101637.12
101662.07
101682.71
101699.01
101711.02
101718.77
101722.39
101721.99
101717.77
101709.9
101698.62
101684.16
101666.76
101646.69
101624.21
101599.57
101573.04
101544.85
101515.24
101484.44
101452.64
101420.05
101386.82
101353.12
101319.08
101284.81
101250.43
101216.02
101181.64
101147.35
101113.19
101079.18
101045.35
101011.7
100978.21
100944.88
100911.66
100878.53
100845.41
100812.27
100778.99
100745.51
100711.73
100677.31
100642.02
100609.64
100555.46
100575.29
100382.11
100677.13
100150.85
100265.59
100271.02
100379.98
100402.59
100497.97
100539.37
100622.83
100678.24
100754.44
100818.12
100890.76
100958.34
101029.14
101097.75
101166.88
101234.5
101301.23
101366.21
101429.36
101490.17
101548.37
101603.57
101655.44
101703.66
101747.94
101788.02
101823.67
101854.71
101881.01
101902.47
101919.05
101930.77
101937.69
101939.92
101937.59
101930.91
101920.1
101905.4
101887.1
101865.48
101840.84
101813.5
101783.76
101751.93
101718.29
101683.13
101646.72
101609.3
101571.1
101532.34
101493.19
101453.83
101414.41
101375.04
101335.85
101296.91
101258.31
101220.08
101182.28
101144.94
101108.05
101071.63
101035.67
101000.13
100965
100930.23
100895.77
100861.56
100827.52
100793.56
100759.61
100725.54
100690.89
100656.69
100621.44
100576.2
100580.95
100412.01
100691.1
100402.18
100529.38
100535.49
100655.1
100680.93
100784.46
100831.05
100921
100982.31
101064.11
101133.46
101211.05
101283.56
101358.54
101431
101503.25
101573.4
101641.88
101707.82
101771.06
101831.07
101887.5
101939.95
101988.09
102031.59
102070.17
102103.61
102131.72
102154.39
102171.54
102183.18
102189.35
102190.17
102185.81
102176.46
102162.39
102143.88
102121.25
102094.84
102065.01
102032.1
101996.5
101958.54
101918.59
101876.98
101834.01
101790
101745.21
101699.89
101654.28
101608.56
101562.94
101517.55
101472.53
101427.99
101384.02
101340.69
101298.06
101256.17
101215.04
101174.67
101135.07
101096.22
101058.1
101020.67
100983.89
100947.72
100912.07
100876.9
100842.12
100807.62
100773.35
100739.1
100704.62
100671.08
100634.43
100596.61
100588.41
100443.32
100705.1
100684.71
100826.19
100833.19
100964.71
100994.53
101107
101159.75
101256.74
101324.77
101412.6
101488.14
101570.95
101648.54
101727.66
101803.76
101878.7
101950.74
102020.08
102085.9
102147.9
102205.55
102258.47
102306.25
102348.56
102385.1
102415.64
102440.02
102458.15
102469.98
102475.58
102475.05
102468.57
102456.38
102438.75
102416.03
102388.58
102356.79
102321.08
102281.88
102239.6
102194.67
102147.5
102098.49
102048.01
101996.41
101944.02
101891.13
101838.01
101784.91
101732.04
101679.58
101627.7
101576.52
101526.16
101476.71
101428.24
101380.8
101334.41
101289.11
101244.89
101201.74
101159.66
101118.6
101078.53
101039.41
101001.17
100963.77
100927.13
100891.17
100855.8
100820.94
100786.52
100752.26
100718.23
100685.1
100648.24
100616.31
100597.25
100474.84
100718.04
100999.67
101157.85
101166.25
101311.22
101346.16
101468.46
101528.57
101633.25
101708.89
101803.22
101885.38
101973.55
102056.19
102139.17
102218.35
102295.16
102367.99
102436.83
102500.86
102559.72
102612.86
102659.89
102700.43
102734.19
102760.95
102780.58
102793.01
102798.28
102796.5
102787.87
102772.65
102751.17
102723.8
102690.99
102653.18
102610.87
102564.56
102514.74
102461.91
102406.55
102349.14
102290.11
102229.88
102168.82
102107.3
102045.62
101984.07
101922.9
101862.33
101802.55
101743.71
101685.95
101629.38
101574.07
101520.1
101467.49
101416.29
101366.5
101318.12
101271.14
101225.52
101181.23
101138.24
101096.48
101055.91
101016.45
100978.04
100940.6
100904.05
100868.3
100833.27
100798.86
100764.82
100731.45
100698.62
100662.53
100635.08
100606.98
100506.18
100730.45
101350.71
101528.21
101538.58
101698.6
101739.92
101872.92
101941.67
102054.62
102138.67
102239.83
102328.84
102422.26
102509.55
102595.66
102676.87
102754.15
102826.01
102892.26
102952.1
103005.12
103050.8
103088.79
103118.79
103140.61
103154.16
103159.45
103156.59
103145.81
103127.38
103101.71
103069.23
103030.44
102985.89
102936.15
102881.81
102823.46
102761.69
102697.08
102630.16
102561.46
102491.46
102420.61
102349.32
102277.96
102206.86
102136.31
102066.56
101997.83
101930.31
101864.14
101799.45
101736.34
101674.88
101615.12
101557.11
101500.84
101446.33
101393.56
101342.5
101293.13
101245.4
101199.25
101154.64
101111.49
101069.74
101029.32
100990.15
100952.15
100915.24
100879.32
100844.33
100810.12
100776.52
100743.97
100711.5
100677.01
100652.99
100617.61
100536.84
100742.16
101741.26
101941.14
101954.26
102131.06
102180.35
102324.89
102403.67
102525.42
102618.51
102726.65
102822.38
102920.51
103011.51
103099.37
103180.77
103256.29
103324.51
103385.13
103437.4
103480.91
103515.24
103540.16
103555.5
103561.27
103557.58
103544.66
103522.86
103492.62
103454.46
103408.99
103356.85
103298.71
103235.29
103167.28
103095.39
103020.28
102942.61
102862.98
102781.96
102700.07
102617.8
102535.56
102453.73
102372.65
102292.61
102213.86
102136.6
102061.01
101987.23
101915.36
101845.49
101777.67
101711.96
101648.35
101586.86
101527.48
101470.16
101414.89
101361.62
101310.29
101260.84
101213.2
101167.32
101123.1
101080.49
101039.39
100999.73
100961.43
100924.39
100888.53
100853.78
100819.99
100787.08
100755.45
100723.55
100691.34
100669.68
100628.97
100566.61
100752.69
102175.19
102401.13
102418.08
102613.5
102672.6
102829.49
102919.92
103051.01
103153.42
103268.21
103369.97
103471.49
103564.35
103651.59
103730.25
103800.57
103861.27
103911.98
103952.07
103981.26
103999.31
104006.19
104002
103987.02
103961.65
103926.4
103881.92
103828.91
103768.16
103700.48
103626.72
103547.72
103464.31
103377.29
103287.42
103195.43
103101.97
103007.66
102913.05
102818.61
102724.8
102631.98
102540.48
102450.58
102362.51
102276.47
102192.59
102111.02
102031.82
101955.07
101880.8
101809.03
101739.76
101672.98
101608.65
101546.73
101487.18
101429.93
101374.92
101322.09
101271.35
101222.62
101175.84
101130.91
101087.75
101046.28
101006.41
100968.07
100931.15
100895.59
100861.31
100828.13
100796.16
100765.52
100734.47
100704.94
100684.59
100640.75
100595.32
100761.13
102657.77
102913.96
102936.14
103151.74
103222.73
103392.61
103496.16
103637.05
103748.59
103868.76
103974.8
104077.31
104168.87
104251.71
104323.19
104383.34
104431.08
104466.13
104488.09
104496.93
104492.74
104475.83
104446.67
104405.9
104354.3
104292.73
104222.14
104143.54
104057.93
103966.34
103869.76
103769.16
103665.43
103559.42
103451.92
103343.61
103235.14
103127.07
103019.88
102914.01
102809.8
102707.58
102607.58
102510.02
102415.06
102322.82
102233.39
102146.84
102063.2
101982.47
101904.67
101829.75
101757.69
101688.44
101621.93
101558.11
101496.9
101438.21
101381.98
101328.11
101276.52
101227.12
101179.81
101134.52
101091.15
101049.62
101009.83
100971.71
100935.17
100900.14
100866.53
100834.21
100803.35
100773.78
100743.96
100717.33
100697.53
100652.78
100622.59
100766.99
103194.61
103486.13
103516.07
103753.85
103840.32
104024.21
104140.09
104287.97
104407.94
104531.5
104638.66
104738.14
104823.43
104896.12
104954.01
104997.07
105024.6
105036.59
105033.08
105014.47
104981.32
104934.42
104874.74
104803.34
104721.42
104630.18
104530.89
104424.79
104313.08
104196.91
104077.36
103955.42
103832.01
103707.93
103583.91
103460.59
103338.52
103218.16
103099.92
102984.12
102871.03
102760.86
102653.79
102549.93
102449.37
102352.17
102258.35
102167.92
102080.85
101997.12
101916.67
101839.45
101765.38
101694.39
101626.39
101561.29
101499
101439.42
101382.47
101328.04
101276.03
101226.36
101178.91
101133.61
101090.35
101049.06
101009.64
100972
100936.09
100901.81
100869.07
100837.82
100808.22
100779.8
100751.59
100727.86
100707.85
100664.18
100647.68
100770.29
103793.01
104126.26
104168.38
104429.13
104533.06
104728.34
104857.07
105012.27
105136.39
105258.95
105361.47
105451.13
105522.41
105576.51
105611.84
105628.64
105626.8
105606.86
105569.51
105515.76
105446.81
105364.03
105268.9
105162.95
105047.74
104924.79
104795.58
104661.48
104523.8
104383.7
104242.24
104100.36
103958.89
103818.55
103679.93
103543.55
103409.84
103279.15
103151.75
103027.86
102907.63
102791.19
102678.62
102569.94
102465.17
102364.3
102267.3
102174.11
102084.67
101998.89
101916.71
101838.01
101762.7
101690.69
101621.85
101556.09
101493.3
101433.36
101376.18
101321.64
101269.64
101220.08
101172.86
101127.88
101085.05
101044.29
101005.5
100968.6
100933.53
100900.22
100868.55
100838.54
100810.3
100783.15
100756.9
100735.76
100715.01
100674.3
100669.42
100770.7
104478.49
104856.28
104912.07
105191.98
105309.4
105513.65
105653.47
105811.62
105934.67
106048.4
106137.2
106206.71
106252.88
106276.89
106278.14
106257.51
106215.78
106154.32
106074.65
105978.54
105867.89
105744.65
105610.76
105468.12
105318.55
105163.72
105005.17
104844.3
104682.35
104520.37
104359.32
104199.97
104043
103888.95
103738.27
103591.3
103448.34
103309.57
103175.16
103045.19
102919.72
102798.76
102682.31
102570.33
102462.75
102359.52
102260.52
102165.68
102074.87
101988
101904.93
101825.56
101749.75
101677.39
101608.35
101542.51
101479.74
101419.94
101362.99
101308.77
101257.17
101208.09
101161.43
101117.1
101074.98
101035.01
100997.1
100961.17
100927.16
100894.98
100864.55
100835.94
100809.13
100783.39
100759.26
100740.16
100718.84
100682.91
100686.83
100767.85
105250.89
105671.62
105737.15
106031.07
106176.89
106400.57
106539.3
106688.61
106798.44
106889.8
106950.63
106985.39
106991.76
106971.5
106925.34
106855.19
106763.02
106651.17
106522.11
106378.34
106222.36
106056.55
105883.15
105704.22
105521.6
105336.95
105151.67
104967.01
104784
104603.5
104426.22
104252.74
104083.5
103918.84
103759.04
103604.26
103454.62
103310.19
103170.99
103037.01
102908.19
102784.46
102665.74
102551.92
102442.88
102338.5
102238.65
102143.19
102051.98
101964.87
101881.73
101802.41
101726.78
101654.7
101586.03
101520.64
101458.39
101399.18
101342.87
101289.36
101238.52
101190.26
101144.47
101101.05
101059.91
101020.98
100984.16
100949.39
100916.61
100885.73
100856.7
100829.59
100804.29
100780.12
100758.11
100740.85
100720.2
100688.96
100698.54
100761.28
106111.39
106575.86
106670.95
107002.67
107152.37
107361.23
107497
107622.95
107704.55
107756.6
107771.6
107753.94
107703.7
107623.93
107517.11
107386.53
107235.41
107067.09
106884.78
106691.52
106490.11
106283.06
106072.61
105860.67
105648.89
105438.64
105231.07
105027.1
104827.46
104632.71
104443.3
104259.53
104081.63
103909.73
103743.89
103584.14
103430.45
103282.74
103140.93
103004.91
102874.54
102749.69
102630.19
102515.89
102406.63
102302.24
102202.56
102107.42
102016.65
101930.1
101847.61
101769.01
101694.16
101622.92
101555.13
101490.66
101429.37
101371.15
101315.86
101263.39
101213.63
101166.47
101121.81
101079.56
101039.62
101001.92
100966.38
100932.94
100901.53
100872.07
100844.55
100819.04
100795.3
100772.82
100753
100737.59
100717.79
100689.99
100704.4
100752.14
107102.88
107623.79
107744.06
108067.6
108222.47
108408.19
108515.06
108595.28
108622.9
108611.36
108557.43
108466.94
108342.68
108189.5
108011.65
107813.66
107599.72
107373.74
107139.25
106899.33
106656.64
106413.44
106171.6
105932.62
105697.72
105467.85
105243.73
105025.9
104814.75
104610.51
104413.34
104223.3
104040.39
103864.56
103695.71
103533.71
103378.41
103229.64
103087.23
102950.98
102820.7
102696.19
102577.25
102463.68
102355.29
102251.89
102153.28
102059.28
101969.71
101884.4
101803.18
101725.87
101652.33
101582.4
101515.94
101452.8
101392.85
101335.96
101282.01
101230.88
101182.46
101136.64
101093.34
101052.45
101013.9
100977.6
100943.49
100911.5
100881.56
100853.62
100827.67
100803.77
100781.59
100760.86
100743.15
100729.11
100710.29
100687.17
100703.68
100738.44
108264.81
108811.77
108943.14
109243.77
109371.13
109501.73
109546.18
109548.31
109491.82
109390.28
109245.33
109064.89
108854.43
108620.35
108368.15
108103
107829.3
107550.89
107270.91
106991.98
106716.16
106445.07
106179.96
105921.74
105671.09
105428.44
105194.08
104968.15
104750.69
104541.67
104340.97
104148.46
103963.95
103787.23
103618.09
103456.27
103301.55
103153.67
103012.4
102877.49
102748.7
102625.8
102508.56
102396.75
102290.16
102188.59
102091.82
101999.66
101911.92
101828.43
101749
101673.48
101601.69
101533.49
101468.72
101407.26
101348.95
101293.69
101241.34
101191.79
101144.94
101100.68
101058.91
101019.56
100982.53
100947.76
100915.18
100884.73
100856.34
100829.97
100805.63
100783.32
100762.71
100743.78
100727.98
100715.03
100697.71
100679.52
100695.59
100718.76
109581.35
110111.32
110222.69
110462
110525.48
110561.68
110505.89
110396.3
110227.4
110014.53
109764.1
109485.93
109187.23
108875
108554.81
108231.4
107908.47
107588.96
107275.1
106968.54
106670.45
106381.66
106102.67
105833.77
105575.08
105326.58
105088.15
104859.63
104640.76
104431.28
104230.9
104039.32
103856.22
103681.29
103514.21
103354.69
103202.42
103057.11
102918.48
102786.24
102660.15
102539.93
102425.36
102316.19
102212.2
102113.17
102018.89
101929.17
101843.81
101762.63
101685.46
101612.12
101542.47
101476.34
101413.6
101354.1
101297.72
101244.32
101193.8
101146.04
101100.94
101058.39
101018.32
100980.62
100945.24
100912.09
100881.11
100852.25
100825.45
100800.67
100777.93
100757.17
100738.12
100720.94
100706.83
100694.8
100679.34
100665.7
100679.8
100693.62
110925.1
111446.37
111515.06
111641.59
111590.6
111482.81
111285.18
111033.43
110732.83
110400.07
110044.41
109675.66
109300.74
108925.42
108553.92
108189.41
107834.09
107489.48
107156.56
106835.88
106527.69
106232.02
105948.73
105677.59
105418.27
105170.41
104933.6
104707.44
104491.5
104285.37
104088.63
103900.9
103721.77
103550.89
103387.88
103232.41
103084.14
102942.77
102808
102679.53
102557.1
102440.45
102329.33
102223.5
102122.74
102026.83
101935.56
101848.75
101766.19
101687.72
101613.16
101542.34
101475.12
101411.34
101350.87
101293.56
101239.3
101187.96
101139.44
101093.62
101050.4
101009.69
100971.4
100935.46
100901.78
100870.3
100840.97
100813.72
100788.5
100765.29
100744.09
100724.81
100707.26
100691.73
100679.02
100667.83
100654.41
100644.56
100655.87
100662.49
112436.15
112789.54
112741.82
112657.71
112424.26
112126.52
111762.52
111362.6
110937.67
110501.9
110063.45
109629.31
109203.85
108790.28
108390.54
108005.8
107636.59
107283.06
106945.07
106622.28
106314.25
106020.45
105740.34
105473.31
105218.78
104976.18
104744.93
104524.51
104314.39
104114.09
103923.13
103741.08
103567.53
103402.07
103244.33
103093.96
102950.64
102814.04
102683.86
102559.82
102441.64
102329.09
102221.9
102119.85
102022.72
101930.29
101842.38
101758.78
101679.31
101603.81
101532.1
101464.03
101399.45
101338.22
101280.2
101225.26
101173.28
101124.15
101077.75
101033.99
100992.76
100953.98
100917.57
100883.43
100851.52
100821.75
100794.08
100768.45
100744.81
100723.14
100703.43
100685.58
100669.47
100655.44
100643.93
100633.56
100622.15
100615.27
100623.59
100625.24
113784.21
113754.95
113505.35
113161.96
112728.77
112253.68
111751.74
111243.06
110737.18
110242.32
109762.8
109301.5
108859.59
108437.59
108035.45
107652.73
107288.78
106942.79
106613.94
106301.35
106004.19
105721.64
105452.86
105197.09
104953.62
104721.8
104501
104290.65
104090.23
103899.22
103717.18
103543.66
103378.25
103220.56
103070.25
102926.96
102790.38
102660.19
102536.11
102417.87
102305.23
102197.93
102095.75
101998.47
101905.88
101817.79
101734
101654.34
101578.64
101506.73
101438.46
101373.68
101312.24
101254.02
101198.88
101146.7
101097.36
101050.77
101006.8
100965.38
100926.39
100889.77
100855.42
100823.27
100793.27
100765.33
100739.41
100715.46
100693.44
100673.31
100655.06
100638.58
100623.85
100611.14
100600.62
100591.01
100581.36
100576.84
100583.08
100580.27
114213.61
113891.14
113448.39
112928.25
112376.44
111817.46
111265.36
110729.48
110214.09
109721.65
109252.75
108807.32
108384.74
107983.99
107603.85
107243.13
106900.65
106575.32
106266.08
105971.95
105692.04
105425.53
105171.76
104930.01
104699.65
104480.07
104270.71
104071.06
103880.63
103698.97
103525.66
103360.31
103202.54
103052.01
102908.38
102771.34
102640.61
102515.94
102397.06
102283.75
102175.77
102072.89
101974.92
101881.63
101792.85
101708.37
101628.04
101551.68
101479.13
101410.23
101344.84
101282.81
101224.02
101168.33
101115.62
101065.77
101018.68
100974.24
100932.35
100892.91
100855.84
100821.05
100788.47
100758.01
100729.63
100703.25
100678.82
100656.29
100635.62
100616.77
100599.72
100584.38
100570.77
100559.04
100549.2
100540.48
100532.6
100528.55
100530.68
100528.38
112836.07
112576.77
112192.64
111721.56
111231.43
110735.22
110248.54
109776.61
109322.72
108888.11
108472.98
108077
107699.5
107339.81
106997.14
106670.66
106359.56
106063.05
105780.38
105510.82
105253.69
105008.28
104774.06
104550.51
104337.15
104133.5
103939.11
103753.55
103576.41
103407.31
103245.91
103091.84
102944.8
102804.49
102670.62
102542.93
102421.16
102305.05
102194.35
102088.83
101988.29
101892.5
101801.29
101714.46
101631.84
101553.26
101478.56
101407.58
101340.18
101276.21
101215.54
101158.04
101103.58
101052.04
101003.31
100957.27
100913.83
100872.88
100834.33
100798.1
100764.08
100732.21
100702.41
100674.61
100648.74
100624.75
100602.57
100582.17
100563.48
100546.49
100531.16
100517.42
100505.3
100494.84
100486
100478.47
100472.26
100468.53
100467.99
100466.79
108191.38
109220.14
109377.5
109427.6
109284.62
109071.25
108801.17
108505.46
108194.65
107879.16
107564.1
107253.43
106949.4
106653.54
106366.72
106089.46
105822.02
105564.44
105316.68
105078.58
104849.97
104630.6
104420.15
104218.3
104024.76
103839.22
103661.4
103491.03
103327.83
103171.55
103021.94
102878.75
102741.75
102610.72
102485.45
102365.74
102251.36
102142.08
102037.73
101938.11
101843.06
101752.41
101665.99
101583.65
101505.24
101430.61
101359.63
101292.15
101228.05
101167.2
101109.47
101054.76
101002.93
100953.9
100907.54
100863.76
100822.46
100783.55
100746.94
100712.53
100680.26
100650.04
100621.8
100595.47
100570.99
100548.29
100527.32
100508.02
100490.36
100474.29
100459.77
100446.77
100435.27
100425.27
100416.72
100409.55
100403.81
100399.67
100397.27
100396.2
110422.55
110464.84
110341.61
110091.95
109728.1
109296.07
108823.25
108329.15
107825.78
107319.61
106824.3
106339.22
105874.59
105426.41
104997.91
104602.31
104235.95
103907.45
103611.77
103347.25
103112.79
102904.59
102720.79
102558.19
102414.6
102286.45
102169.95
102063.35
101966.83
101883.61
101809.07
101740.01
101675.78
101615.46
101558.41
101504.14
101452.35
101402.8
101355.36
101309.9
101266.35
101224.64
101184.73
101146.57
101110.12
101075.31
101042.1
101010.43
100980.23
100951.45
100924.01
100897.87
100872.89
100849.09
100826.22
100804.47
100783.28
100763.3
100743.24
100724.87
100705.13
100688.51
100667.85
100653.73
100630.02
100620.38
100589.93
100588.84
100545.26
100560.36
100491.85
100537.66
100426.82
100524.34
100344.39
100525.95
100239.27
100548.11
100104.97
100602.05
97144.306
97346.429
97731.31
98144.682
98591.472
99069.84
99478.447
99828.906
100157.08
100451.17
100704.76
100926.07
101116.71
101279.08
101416.71
101530.98
101625.82
101700.67
101757.58
101797.83
101824.87
101838.81
101842.26
101835
101819.22
101796.02
101767.64
101735.34
101699.13
101660.99
101621.08
101579.76
101536.78
101493.14
101449.56
101406.41
101364.05
101322.7
101282.54
101243.67
101206.12
101169.93
101135.12
101101.67
101069.56
101038.78
101009.29
100981.07
100954.06
100928.23
100903.51
100879.88
100857.2
100835.53
100814.61
100794.63
100775.07
100756.56
100737.86
100720.64
100702.09
100686.28
100666.74
100653
100630.55
100620.69
100591.85
100589.71
100548.52
100561.64
100497.39
100538.87
100433.24
100525.95
100350.74
100528.34
100243.41
100553.92
100105.6
100610.41
104086.82
104120.74
104119.52
104092.1
104036.25
103958.55
103865.24
103759.94
103646.22
103528.49
103407.45
103285.89
103164.16
103044.09
102925.6
102811.66
102699.57
102595.97
102494.71
102402.81
102309.12
102226.45
102140.76
102066.84
101995.08
101929.85
101872.06
101817.3
101766.11
101705.2
101647.71
101593.56
101541.8
101492.46
101445.29
101400.11
101356.74
101315.08
101275.01
101236.48
101199.45
101163.86
101129.7
101096.93
101065.52
101035.44
101006.65
100979.12
100952.8
100927.65
100903.59
100880.6
100858.55
100837.47
100817.1
100797.66
100778.58
100760.51
100742.18
100725.33
100707.04
100691.48
100672.11
100658.48
100636.14
100626.18
100597.44
100595.01
100553.57
100566.26
100502.64
100542.43
100438.94
100528.32
100356.55
100529.88
100248.82
100555.56
100109.47
100613.26
101635.82
101637.95
101645.75
101660.76
101679.94
101699.7
101720.17
101742.11
101763.8
101785.74
101806.21
101825.67
101842.55
101856.87
101867.32
101874.33
101876.5
101874.84
101868.44
101858.34
101844.38
101827.24
101806.92
101781.83
101752.29
101718.77
101682.85
101644.93
101606.98
101568.96
101530.25
101491.56
101452.92
101414.5
101376.48
101339.01
101302.23
101266.27
101231.21
101197.13
101164.09
101132.13
101101.28
101071.55
101042.94
101015.45
100989.07
100963.77
100939.52
100916.3
100894.03
100872.7
100852.18
100832.52
100813.45
100795.21
100777.2
100760.13
100742.67
100726.63
100708.99
100694.1
100675.16
100662.08
100639.94
100630.47
100601.71
100599.76
100558.23
100571.25
100507.1
100547.5
100442.9
100533.24
100360.1
100534.75
100251.84
100559.98
100111.66
100617.22
102019.21
102026.81
102027.88
102026.54
102023.56
102018.37
102011.62
102004.25
101995.54
101985.98
101974.61
101963.09
101949.03
101934.58
101917.98
101899.46
101880.25
101857.17
101834.45
101807.28
101781.12
101750.23
101720.61
101687.35
101655.27
101621.24
101588.5
101553.61
101519.21
101484.67
101450.2
101415.92
101381.94
101348.32
101315.15
101282.5
101250.41
101218.97
101188.21
101158.2
101128.97
101100.58
101073.04
101046.4
101020.67
100995.86
100971.96
100948.97
100926.87
100905.63
100885.2
100865.58
100846.63
100828.41
100810.66
100793.62
100776.7
100760.6
100744.01
100728.72
100711.75
100697.41
100678.95
100666.23
100644.43
100635.12
100606.58
100604.63
100563.17
100575.98
100512.05
100551.97
100447.9
100537.35
100364.76
100538.29
100255.87
100563.44
100114.45
100620.44
101499.4
101504.58
101509.56
101516.48
101523.5
101530.56
101535.72
101542.01
101545.94
101550.44
101552.22
101554.06
101553.38
101552.83
101549.93
101546.6
101541.35
101535.43
101527.68
101519.12
101508.74
101497.69
101484.62
101470.54
101454.52
101437.29
101418.34
101398.28
101376.94
101354.69
101331.56
101307.72
101283.31
101258.48
101233.36
101208.08
101182.78
101157.58
101132.58
101107.88
101083.58
101059.74
101036.44
101013.72
100991.63
100970.19
100949.42
100929.33
100909.91
100891.16
100873.02
100855.5
100838.48
100822.03
100805.89
100790.3
100774.7
100759.77
100744.23
100729.84
100713.69
100699.99
100682.15
100669.85
100648.49
100639.4
100611.19
100609.22
100568.11
100580.62
100516.85
100556.44
100452.24
100541.51
100368.99
100542.14
100259.49
100566.92
100117.05
100623.5
101314.5
101321.27
101326.3
101332.02
101338.08
101343.85
101348.61
101353.58
101356.33
101360.53
101361.84
101365.13
101365.42
101367.18
101366.58
101365.86
101363.08
101360.27
101355.79
101350.72
101344.27
101336.89
101328.3
101318.65
101307.89
101296.07
101283.25
101269.42
101254.67
101239.06
101222.65
101205.55
101187.83
101169.58
101150.89
101131.87
101112.6
101093.19
101073.71
101054.26
101034.93
101015.78
100996.89
100978.3
100960.08
100942.26
100924.86
100907.91
100891.4
100875.33
100859.68
100844.44
100829.52
100814.98
100800.59
100786.56
100772.38
100758.69
100744.29
100730.85
100715.57
100702.54
100685.37
100673.47
100652.62
100643.66
100615.91
100613.77
100573.05
100585.15
100521.84
100560.76
100457.2
100545.46
100373.53
100545.63
100263.34
100570.18
100119.73
100626.28
101055.31
101062.13
101067.65
101074.23
101081.06
101087.96
101094.19
101101.76
101107.11
101114.79
101119.66