/*--------------------------------*- C++ -*----------------------------------*\
  =========                 |
  \\      /  F ield         | OpenFOAM: The Open Source CFD Toolbox
   \\    /   O peration     | Website:  https://openfoam.org
    \\  /    A nd           | Version:  6
     \\/     M anipulation  |
\*---------------------------------------------------------------------------*/
FoamFile
{
    version     2.0;
    format      ascii;
    class       surfaceScalarField;
    location    "700";
    object      phi;
}
// * * * * * * * * * * * * * * * * * * * * * * * * * * * * * * * * * * * * * //

dimensions      [1 0 -1 0 0 0 0];

internalField   nonuniform List<scalar> 
31760
(
-0.00058071143
-0.038356168
0.03893688
-0.0012916843
-0.042527503
0.043238476
-0.0020194925
-0.04363662
0.044364428
-0.0028019446
-0.046183492
0.046965944
-0.0036044023
-0.048015271
0.048817729
-0.0044616074
-0.050463684
0.051320889
-0.0053475542
-0.052683364
0.053569311
-0.0062859498
-0.055233449
0.056171845
-0.0072617686
-0.05775137
0.058727189
-0.0082899338
-0.060486056
0.061514221
-0.0093632289
-0.063281168
0.064354463
-0.010490758
-0.066248602
0.067376131
-0.011669634
-0.069325184
0.07050406
-0.012905874
-0.072561841
0.073798081
-0.014199451
-0.075936306
0.077229883
-0.015554633
-0.07947367
0.080828852
-0.016972663
-0.083170087
0.084588118
-0.018456838
-0.087039699
0.088523874
-0.020009191
-0.091086868
0.092639221
-0.021632792
-0.09532199
0.096945591
-0.023329911
-0.09975291
0.10145003
-0.025103631
-0.10438955
0.10616327
-0.026955954
-0.10924163
0.11109395
-0.028889772
-0.11431965
0.11625347
-0.030907421
-0.11963443
0.12165208
-0.033010981
-0.12519815
0.12730171
-0.035202786
-0.13102244
0.13321425
-0.037485123
-0.13712077
0.1394031
-0.039859609
-0.14350672
0.14588121
-0.042327614
-0.15019505
0.15266306
-0.044890838
-0.1572008
0.15976403
-0.047550054
-0.1645407
0.16719992
-0.050306348
-0.17223132
0.17498761
-0.053159608
-0.18029125
0.18314451
-0.056109773
-0.1887398
0.19168996
-0.059156433
-0.19759695
0.20064361
-0.06229867
-0.2068839
0.21002614
-0.065534351
-0.2166238
0.21985948
-0.068861598
-0.22684006
0.23016731
-0.072277335
-0.23755776
0.2409735
-0.075778207
-0.2488033
0.25230417
-0.079359568
-0.26060468
0.26418604
-0.083016508
-0.27299074
0.27664768
-0.08674253
-0.28599296
0.28971898
-0.090530783
-0.29964291
0.30343117
-0.094373221
-0.31397519
0.31781762
-0.098260086
-0.32902518
0.33291205
-0.10218101
-0.34483072
0.34875165
-0.10612398
-0.36143101
0.36537398
-0.11007485
-0.37886797
0.38281883
-0.11401853
-0.39718459
0.40112828
-0.11793718
-0.4164269
0.42034554
-0.12181107
-0.4366428
0.44051669
-0.12561761
-0.45788279
0.46168934
-0.12933215
-0.4801994
0.48391393
-0.13292616
-0.50364853
0.50724254
-0.13636809
-0.52828857
0.53173051
-0.13962172
-0.55418106
0.55743468
-0.14264718
-0.58138914
0.5844146
-0.14539909
-0.60998037
0.61273228
-0.14782662
-0.64002584
0.64245338
-0.14987257
-0.67159847
0.67364442
-0.15147412
-0.70477736
0.70637891
-0.15255737
-0.73964137
0.74072462
-0.15304644
-0.77627822
0.77676729
-0.15284303
-0.81476999
0.81456658
-0.15186154
-0.85521852
0.85423703
-0.14995953
-0.89768663
0.89578463
-0.14706874
-0.9423241
0.93943331
-0.14294838
-0.98911344
0.98499308
-0.13762225
-1.0383689
1.0330428
-0.13062962
-1.0897827
1.08279
-0.12226007
-1.1442438
1.1358742
-0.11150071
-1.2004044
1.1896451
-0.099338361
-1.2610246
1.2488622
-0.083727204
-1.3211804
1.3055692
-0.066873895
-1.3893901
1.3725368
-0.045340724
-1.4516644
1.4301312
-0.022257306
-1.5291019
1.5060185
-1.5944159
1.5657694
-0.00056128764
-0.037794881
-0.0012329164
-0.041855875
-0.001922755
-0.042946781
-0.0026630346
-0.045443213
-0.0034258212
-0.047252485
-0.0042373426
-0.049652163
-0.0050793625
-0.051841344
-0.0059701377
-0.054342675
-0.0068990002
-0.056822508
-0.0078774798
-0.059507577
-0.0089006722
-0.062257975
-0.0099761505
-0.065173124
-0.0111022
-0.068199135
-0.012284407
-0.071379635
-0.013522501
-0.074698212
-0.014820948
-0.078175224
-0.016180985
-0.08181005
-0.017606116
-0.085614568
-0.019098341
-0.089594643
-0.020660628
-0.093759703
-0.022295355
-0.098118183
-0.02400513
-0.10267978
-0.025792889
-0.10745387
-0.027660763
-0.11245178
-0.029611072
-0.11768413
-0.031646451
-0.12316277
-0.033768948
-0.12889995
-0.035980609
-0.13490911
-0.038282877
-0.14120445
-0.04067774
-0.14780019
-0.043166322
-0.15471222
-0.045749611
-0.16195741
-0.048428233
-0.16955269
-0.05120211
-0.17751737
-0.054071691
-0.18587022
-0.057036027
-0.19463261
-0.060093808
-0.20382612
-0.063243764
-0.21347384
-0.066483554
-0.22360027
-0.069810219
-0.2342311
-0.073220482
-0.24539304
-0.076710133
-0.25711503
-0.080274001
-0.26942688
-0.083906546
-0.28236041
-0.087600999
-0.29594846
-0.091349909
-0.31022628
-0.09514431
-0.32523078
-0.098974466
-0.34100057
-0.10282898
-0.3575765
-0.10669553
-0.37500141
-0.11055956
-0.39332057
-0.1144052
-0.41258126
-0.11821436
-0.43283364
-0.12196659
-0.45413056
-0.12563898
-0.47652701
-0.12920583
-0.50008168
-0.13263806
-0.52485634
-0.13590372
-0.55091539
-0.13896557
-0.57832729
-0.14178247
-0.60716347
-0.14430906
-0.63749925
-0.14649266
-0.66941486
-0.14827636
-0.70299366
-0.14959367
-0.73832407
-0.15037293
-0.77549895
-0.15053146
-0.81461147
-0.14998047
-0.85576951
-0.14860862
-0.89905848
-0.14632288
-0.94460985
-0.14295181
-0.99248451
-0.13843726
-1.0428835
-0.13248083
-1.0957391
-0.1251682
-1.1515564
-0.11586699
-1.2097056
-0.10505358
-1.271838
-0.091370628
-1.3348634
-0.07621556
-1.4045451
-0.057110645
-1.4707693
-0.036473176
-1.5497394
-1.6199433
-0.00052961599
-0.037265265
-0.0011780903
-0.041207401
-0.0018290095
-0.042295862
-0.0025340342
-0.044738188
-0.0032567873
-0.046529732
-0.0040309341
-0.048878017
-0.0048322593
-0.051040019
-0.0056833916
-0.053491543
-0.006570387
-0.055935512
-0.0075075433
-0.058570421
-0.0084878164
-0.061277702
-0.0095200217
-0.064140919
-0.010602118
-0.067117038
-0.011739374
-0.070242379
-0.012932667
-0.073504919
-0.014185287
-0.076922603
-0.015499523
-0.080495814
-0.016877879
-0.084236213
-0.018323356
-0.088149166
-0.019838289
-0.092244769
-0.02142552
-0.096530952
-0.023087855
-0.10101744
-0.024827082
-0.10571464
-0.026646572
-0.11063229
-0.028548496
-0.1157822
-0.030534961
-0.12117631
-0.032608099
-0.12682681
-0.034769783
-0.13274742
-0.037022015
-0.13895222
-0.039366164
-0.14545604
-0.04180305
-0.15227533
-0.044334174
-0.15942629
-0.046959439
-0.16692743
-0.049679612
-0.1747972
-0.052494036
-0.18305579
-0.055402172
-0.19172448
-0.058402837
-0.20082546
-0.061494268
-0.21038241
-0.064674397
-0.22042014
-0.067940871
-0.23096462
-0.07128962
-0.24204429
-0.074717202
-0.25368745
-0.078218895
-0.26592518
-0.081789468
-0.27878984
-0.085422587
-0.29231534
-0.089111145
-0.30653772
-0.092847385
-0.32149454
-0.096622239
-0.33722571
-0.10042573
-0.35377301
-0.10424629
-0.37118086
-0.10807109
-0.38949577
-0.11188575
-0.4087666
-0.1156738
-0.42904559
-0.11941716
-0.45038719
-0.12309537
-0.4728488
-0.12668509
-0.49649196
-0.13016052
-0.52138091
-0.13349244
-0.54758348
-0.13664793
-0.5751718
-0.13959018
-0.60422122
-0.14227746
-0.63481197
-0.14466369
-0.66702863
-0.14669631
-0.70096105
-0.14831714
-0.73670323
-0.1494605
-0.77435559
-0.15005031
-0.81402166
-0.15001083
-0.85580899
-0.14924053
-0.89982879
-0.14764556
-0.94620481
-0.1450946
-0.99503547
-0.14149605
-1.046482
-0.13663736
-1.1005978
-0.13049811
-1.1576956
-0.12267079
-1.2175329
-0.11336837
-1.2811404
-0.10163151
-1.3466002
-0.088371101
-1.4178055
-0.071740748
-1.4873996
-0.053448551
-1.5680316
-1.6422773
-0.00050028492
-0.03676498
-0.0011305
-0.040577186
-0.0017487978
-0.041677565
-0.0024242698
-0.044062717
-0.0031138266
-0.045840175
-0.0038564617
-0.048135382
-0.0046242103
-0.050272271
-0.0054422978
-0.052673455
-0.0062952712
-0.055082539
-0.0071983951
-0.057667297
-0.0081444165
-0.060331681
-0.0091421938
-0.063143141
-0.010189653
-0.066069579
-0.011292553
-0.069139479
-0.012451141
-0.072346331
-0.013669545
-0.075704199
-0.01494941
-0.079215949
-0.016294163
-0.08289146
-0.017706042
-0.086737287
-0.019188171
-0.09076264
-0.020742886
-0.094976237
-0.022372777
-0.099387553
-0.024080842
-0.10400658
-0.025869391
-0.10884374
-0.027740595
-0.113911
-0.029697035
-0.11921987
-0.031740434
-0.12478341
-0.033873018
-0.13061484
-0.036096179
-0.13672906
-0.038411444
-0.14314077
-0.040819783
-0.149867
-0.043321933
-0.15692414
-0.045918611
-0.16433075
-0.04860943
-0.17210638
-0.051394133
-0.18027109
-0.054272303
-0.18884631
-0.057242544
-0.19785522
-0.060303208
-0.20732175
-0.063452287
-0.21727106
-0.066687102
-0.22772981
-0.070004748
-0.23872665
-0.073401383
-0.25029081
-0.076872759
-0.26245381
-0.080414109
-0.27524849
-0.084019859
-0.28870959
-0.087683774
-0.3028738
-0.091398836
-0.31777948
-0.095157107
-0.33346744
-0.098949585
-0.34998053
-0.10276618
-0.36736426
-0.10659594
-0.38566601
-0.11042551
-0.40493703
-0.11424115
-0.42522995
-0.11802673
-0.44660161
-0.12176365
-0.46911189
-0.12543199
-0.49282361
-0.12900914
-0.51780377
-0.13246867
-0.54412394
-0.13578185
-0.57185862
-0.13891608
-0.60108699
-0.14183454
-0.63189351
-0.14449594
-0.66436723
-0.1468542
-0.69860279
-0.14885685
-0.73470057
-0.15044594
-0.7727665
-0.15155574
-0.81291186
-0.15211251
-0.85525222
-0.15203168
-0.89990962
-0.15122634
-0.94701016
-0.14958476
-0.99667705
-0.1470059
-1.0490609
-0.14333488
-1.1042688
-0.13849642
-1.1625341
-0.13220695
-1.2238224
-0.12455447
-1.2887929
-0.11482123
-1.3563335
-0.10361321
-1.4290136
-0.089520443
-1.5014924
-0.073851706
-1.5837003
-1.661432
-0.00047344027
-0.03629154
-0.0010877273
-0.039962899
-0.0016782381
-0.041087054
-0.0023297363
-0.043411219
-0.0029920277
-0.045177884
-0.0037097142
-0.047417695
-0.004451011
-0.049530974
-0.0052437942
-0.051880672
-0.0060711788
-0.054255154
-0.0069489385
-0.056789538
-0.0078701806
-0.059410439
-0.0088438124
-0.06216951
-0.0098678254
-0.065045566
-0.010947597
-0.068059708
-0.012084071
-0.071209858
-0.013281336
-0.074506934
-0.014541175
-0.07795611
-0.015867023
-0.081565612
-0.017261171
-0.08534314
-0.018726491
-0.08929732
-0.02026604
-0.093436689
-0.021882281
-0.097771312
-0.023577974
-0.10231089
-0.025355156
-0.10706656
-0.027216844
-0.11204931
-0.029164802
-0.11727191
-0.031201283
-0.12274693
-0.033327704
-0.12848842
-0.035546094
-0.13451067
-0.037857031
-0.14082984
-0.040262097
-0.14746193
-0.042761567
-0.15442467
-0.045355837
-0.16173648
-0.048044886
-0.16941733
-0.050828323
-0.17748765
-0.053704984
-0.18596965
-0.056674094
-0.19488611
-0.059734166
-0.20426167
-0.062882909
-0.21412232
-0.066117903
-0.22449481
-0.069436714
-0.23540783
-0.072835762
-0.24689177
-0.076311358
-0.25897821
-0.079859474
-0.27170037
-0.083475097
-0.28509397
-0.087153132
-0.29919577
-0.090887246
-0.31404537
-0.094670692
-0.329684
-0.098496014
-0.34615521
-0.10235473
-0.36350555
-0.1062368
-0.38178394
-0.110132
-0.40104183
-0.11402776
-0.42133419
-0.11791039
-0.44271897
-0.12176469
-0.46525759
-0.12557287
-0.48901544
-0.12931513
-0.51406151
-0.13296949
-0.54046958
-0.13651078
-0.56831733
-0.13991063
-0.59768714
-0.14313683
-0.62866731
-0.14615376
-0.6613503
-0.14892085
-0.6958357
-0.15139262
-0.7322288
-0.15351803
-0.7706411
-0.15523916
-0.81119072
-0.15649114
-0.85400024
-0.15720174
-0.89919902
-0.15729091
-0.94692099
-0.15666026
-0.99730771
-0.15522099
-1.0505002
-0.15284247
-1.1066473
-0.14943636
-1.1659402
-0.144791
-1.2284678
-0.13891815
-1.2946657
-0.13130024
-1.3639514
-0.12230366
-1.4380101
-0.11082509
-1.512971
-0.097886926
-1.5966385
-1.6773178
-0.00045297845
-0.035838562
-0.0010444711
-0.039371407
-0.0016145808
-0.040516944
-0.002249834
-0.042775966
-0.0028932215
-0.044534496
-0.00359441
-0.046716507
-0.0043184709
-0.048806913
-0.0050953191
-0.051103824
-0.0059071674
-0.053443306
-0.0067705748
-0.05592613
-0.0076781908
-0.058502823
-0.008639311
-0.06120839
-0.0096523766
-0.064032501
-0.010722737
-0.066989347
-0.011851541
-0.070081054
-0.013042401
-0.073316075
-0.014298068
-0.076700443
-0.015621338
-0.080242342
-0.017015287
-0.08394919
-0.018482828
-0.087829779
-0.020026322
-0.091893194
-0.02164917
-0.096148464
-0.02335332
-0.10060674
-0.025141814
-0.10527807
-0.027016623
-0.1101745
-0.028979888
-0.11530865
-0.031033692
-0.12069312
-0.033179507
-0.1263426
-0.035418744
-0.13227143
-0.037752523
-0.13849606
-0.040181721
-0.14503273
-0.04270645
-0.15189994
-0.04532722
-0.15911571
-0.048043675
-0.16670088
-0.050855338
-0.17467599
-0.053761417
-0.18306357
-0.056760782
-0.19188674
-0.059851964
-0.20117049
-0.063033083
-0.2109412
-0.0663022
-0.2212257
-0.069656793
-0.23205324
-0.07309406
-0.2434545
-0.076611209
-0.25546106
-0.080204298
-0.26810728
-0.083869705
-0.28142856
-0.087603045
-0.29546243
-0.091399542
-0.31024887
-0.095253933
-0.32582961
-0.099159553
-0.34224959
-0.10310993
-0.35955517
-0.10709738
-0.37779648
-0.11111291
-0.3970263
-0.11514679
-0.41730031
-0.11918762
-0.43867815
-0.12322256
-0.46122265
-0.1272374
-0.4850006
-0.13121574
-0.51008317
-0.13513872
-0.53654659
-0.13898562
-0.56447044
-0.14273185
-0.59394091
-0.1463512
-0.62504796
-0.1498124
-0.65788911
-0.15308142
-0.69256667
-0.1561193
-0.72919092
-0.1588821
-0.7678783
-0.16132014
-0.80875269
-0.16337859
-0.85194179
-0.16499394
-0.89758367
-0.16609259
-0.94582234
-0.16659921
-0.99680108
-0.16642293
-1.0506764
-0.16546467
-1.1076056
-0.16362763
-1.1677773
-0.16075716
-1.2313382
-0.15681987
-1.298603
-0.15143608
-1.3693352
-0.14482452
-1.4446217
-0.13609469
-1.5217008
-0.12608861
-1.6066446
-1.6898422
-0.00043904547
-0.035399517
-0.0010113806
-0.038799072
-0.0015678491
-0.039960476
-0.0021941807
-0.042149635
-0.0028266164
-0.043902061
-0.0035195985
-0.046023525
-0.0042356492
-0.048090862
-0.0050060413
-0.050333432
-0.005813028
-0.052636319
-0.0066729743
-0.055066184
-0.0075793319
-0.057596465
-0.0085409315
-0.06024679
-0.0095566466
-0.063016786
-0.010631762
-0.065914232
-0.011768298
-0.068944517
-0.012969606
-0.072114767
-0.014238337
-0.075431712
-0.015578137
-0.078902542
-0.01699129
-0.082536037
-0.01848131
-0.08633976
-0.02005085
-0.090323654
-0.021702496
-0.094496819
-0.023439334
-0.098869896
-0.025263235
-0.10345417
-0.02717648
-0.10826126
-0.029181449
-0.11330368
-0.031279573
-0.118595
-0.033472488
-0.12414969
-0.035761072
-0.12998285
-0.038146381
-0.13611075
-0.040629075
-0.14255004
-0.043209468
-0.14931955
-0.045887323
-0.15643786
-0.04866268
-0.16392552
-0.051534678
-0.17180399
-0.054502683
-0.18009556
-0.057565699
-0.18882373
-0.060722001
-0.19801419
-0.063970821
-0.20769238
-0.067309851
-0.21788667
-0.070737497
-0.2286256
-0.074251693
-0.2399403
-0.077849817
-0.25186294
-0.081529693
-0.26442741
-0.085288406
-0.27766985
-0.089122719
-0.29162812
-0.093029061
-0.30634253
-0.097003508
-0.32185516
-0.10104201
-0.33821108
-0.10513915
-0.35545804
-0.10928936
-0.37364627
-0.11348591
-0.39282975
-0.11772154
-0.41306468
-0.12198763
-0.43441205
-0.12627417
-0.45693611
-0.13057007
-0.48070469
-0.13486203
-0.50579122
-0.13913569
-0.53227293
-0.14337364
-0.56023249
-0.14755716
-0.58975739
-0.15166353
-0.62094159
-0.1556682
-0.65388444
-0.1595424
-0.68869247
-0.16325429
-0.72547903
-0.16676752
-0.76436508
-0.17004103
-0.80547917
-0.17302621
-0.84895661
-0.17567028
-0.8949396
-0.1779157
-0.94357692
-0.17969335
-0.99502344
-0.18092832
-1.0494415
-0.18153449
-1.1069994
-0.18142755
-1.1678842
-0.18048365
-1.2322821
-0.17864939
-1.3004373
-0.17564671
-1.3723378
-0.17160348
-1.4486649
-0.16578854
-1.5275157
-0.15889356
-1.6135395
-1.6988812
-0.00043049497
-0.034969022
-0.00099852951
-0.038231037
-0.0015481157
-0.03941089
-0.0021727486
-0.041525002
-0.0028025838
-0.043272225
-0.0034959419
-0.045330167
-0.0042138097
-0.047372995
-0.0049882399
-0.049559002
-0.0058017675
-0.051822792
-0.0066704579
-0.054197494
-0.0075887992
-0.056678124
-0.008564886
-0.059270704
-0.0095988863
-0.061982785
-0.010695738
-0.06481738
-0.011857339
-0.067782916
-0.013087801
-0.070884304
-0.014389806
-0.074129708
-0.015766552
-0.077525796
-0.017221447
-0.081081142
-0.018757051
-0.084804156
-0.020376661
-0.088704044
-0.022082726
-0.092790755
-0.023877787
-0.097074835
-0.025764412
-0.10156754
-0.027744468
-0.1062812
-0.02981959
-0.11122856
-0.031991467
-0.11642312
-0.034261186
-0.12187997
-0.036629931
-0.12761411
-0.039098145
-0.13364253
-0.041666222
-0.13998196
-0.044334228
-0.14665154
-0.04710213
-0.15366995
-0.049969291
-0.16105836
-0.052935533
-0.16883775
-0.056000138
-0.17703096
-0.059161661
-0.1856622
-0.062419857
-0.19475599
-0.065773254
-0.20433898
-0.069220974
-0.21443895
-0.072761386
-0.22508519
-0.076393645
-0.23630804
-0.080116373
-0.24814021
-0.083928037
-0.26061575
-0.087826948
-0.27377094
-0.091811263
-0.2876438
-0.095879517
-0.30227427
-0.10002926
-0.31770542
-0.10425755
-0.33398279
-0.10856185
-0.35115374
-0.11293842
-0.3692697
-0.1173832
-0.38838497
-0.12189128
-0.4085566
-0.12645672
-0.42984662
-0.1310732
-0.45231963
-0.13573196
-0.47604594
-0.14042437
-0.5010988
-0.14513925
-0.52755805
-0.14986424
-0.5555075
-0.1545843
-0.58503734
-0.15928311
-0.61624278
-0.16394084
-0.64922671
-0.16853551
-0.6840978
-0.17304176
-0.72097278
-0.17743062
-0.75997622
-0.18166936
-0.80124044
-0.1857196
-0.84490637
-0.18953941
-0.89111978
-0.19307775
-0.94003858
-0.19628168
-0.99181951
-0.19908632
-1.0466368
-0.20142135
-1.1046644
-0.20321712
-1.1660884
-0.20437784
-1.2311214
-0.20484004
-1.2999751
-0.20440238
-1.3727755
-0.20312845
-1.4499389
-0.20041955
-1.5302246
-0.196845
-1.6171141
-1.7042534
-0.00042780175
-0.03454122
-0.0010009932
-0.037657846
-0.0015520259
-0.038859857
-0.0021837137
-0.040893314
-0.0028208891
-0.04263505
-0.0035249762
-0.04462608
-0.0042563737
-0.046641597
-0.0050468629
-0.048768513
-0.0058805083
-0.050989146
-0.0067723
-0.053305702
-0.007718143
-0.055732281
-0.0087256344
-0.058263212
-0.0097956148
-0.060912805
-0.01093284
-0.063680155
-0.012139912
-0.066575845
-0.013420849
-0.069603367
-0.01477852
-0.072772037
-0.016216473
-0.076087843
-0.017737596
-0.079560019
-0.019345212
-0.08319654
-0.021042049
-0.087007207
-0.02283072
-0.091002083
-0.024713452
-0.095192103
-0.026692318
-0.099588675
-0.028769496
-0.10420402
-0.030946199
-0.10905185
-0.033223586
-0.11414574
-0.035602759
-0.1195008
-0.038084209
-0.12513265
-0.0406686
-0.13105814
-0.043355517
-0.13729504
-0.046145408
-0.14386165
-0.04903757
-0.15077779
-0.052032003
-0.15806393
-0.055128239
-0.16574151
-0.058325292
-0.1738339
-0.061623378
-0.18236412
-0.065021533
-0.19135784
-0.068519277
-0.20084124
-0.072116401
-0.21084182
-0.075812857
-0.22138873
-0.079607955
-0.23251295
-0.083501541
-0.24424662
-0.087493673
-0.25662361
-0.09158447
-0.26968014
-0.095773427
-0.28345484
-0.10006043
-0.29798727
-0.10444509
-0.31332077
-0.10892703
-0.32950085
-0.11350525
-0.34657552
-0.11817875
-0.3645962
-0.12294605
-0.38361768
-0.12780477
-0.40369788
-0.13275237
-0.42489901
-0.13778489
-0.4472871
-0.1428985
-0.47093233
-0.14808707
-0.49591023
-0.15334428
-0.52230083
-0.15866184
-0.55018994
-0.16403011
-0.57966906
-0.16943734
-0.61083555
-0.1748703
-0.64379374
-0.18031331
-0.6786548
-0.18574765
-0.71553843
-0.19115262
-0.75457125
-0.19650328
-0.79588977
-0.20177223
-0.83963742
-0.20692382
-0.8859682
-0.21192405
-0.93503835
-0.2167255
-0.98701806
-0.22128069
-1.0420816
-0.22553562
-1.1004094
-0.22942712
-1.1621969
-0.23288869
-1.2276599
-0.23586172
-1.297002
-0.23819883
-1.3704384
-0.23991954
-1.4482182
-0.24053964
-1.5296045
-0.2405121
-1.6171416
-1.7057277
-0.00043191206
-0.034109308
-0.0010188968
-0.037070861
-0.0015809361
-0.038297818
-0.0022298965
-0.040244354
-0.0028859508
-0.041978996
-0.0036126959
-0.043899335
-0.0043710305
-0.045883263
-0.005191807
-0.047947737
-0.0060610192
-0.050119934
-0.006992543
-0.052374178
-0.0079837373
-0.054741087
-0.0090416574
-0.057205292
-0.010168089
-0.059786373
-0.011367573
-0.062480671
-0.01264344
-0.065299979
-0.013999161
-0.068247645
-0.015438376
-0.071332823
-0.016964303
-0.074561916
-0.018580332
-0.077943989
-0.020289161
-0.081487711
-0.022093333
-0.085203035
-0.023995528
-0.089099889
-0.025997802
-0.093189828
-0.028102015
-0.097484462
-0.030309225
-0.10199681
-0.032620993
-0.10674008
-0.035038128
-0.1117286
-0.037561105
-0.11697782
-0.040189885
-0.12250388
-0.042924982
-0.12832305
-0.045766168
-0.13445386
-0.048713238
-0.14091458
-0.051765831
-0.1477252
-0.054924056
-0.1549057
-0.05818717
-0.1624784
-0.061555652
-0.17046542
-0.065029082
-0.17889069
-0.068607689
-0.18777923
-0.072292376
-0.19715655
-0.076083265
-0.20705093
-0.079981039
-0.21749096
-0.083987293
-0.22850669
-0.088102878
-0.24013104
-0.0923294
-0.25239709
-0.096668044
-0.2653415
-0.10112108
-0.27900181
-0.10568966
-0.29341868
-0.11037602
-0.30863441
-0.11518156
-0.32469531
-0.12010788
-0.3416492
-0.12515661
-0.35954747
-0.13032866
-0.37844563
-0.1356251
-0.39840144
-0.14104595
-0.41947816
-0.14659168
-0.44174138
-0.15226098
-0.46526303
-0.15805249
-0.49011873
-0.16396391
-0.51638941
-0.1699917
-0.54416214
-0.17613115
-0.57352962
-0.18237676
-0.60458994
-0.18872074
-0.63744976
-0.19515369
-0.67222184
-0.20166513
-0.709027
-0.20824138
-0.747995
-0.21486688
-0.78926428
-0.22152153
-0.83298277
-0.22818575
-0.87930397
-0.23482934
-0.92839476
-0.2414243
-0.9804231
-0.24793366
-1.0355723
-0.2543155
-1.0940276
-0.26052313
-1.1559893
-0.26651196
-1.221671
-0.27222743
-1.2912866
-0.27758064
-1.3650852
-0.28255151
-1.4432473
-0.28675571
-1.5254003
-0.29054631
-1.613351
-1.7030268
-0.00044412019
-0.033665188
-0.0010552106
-0.036459771
-0.0016394161
-0.037713612
-0.0023170462
-0.039566724
-0.0030050115
-0.04129103
-0.0037679788
-0.043136368
-0.0045684763
-0.045082765
-0.0054357322
-0.047080481
-0.0063582573
-0.049197409
-0.0073484847
-0.051383951
-0.0084056231
-0.053683948
-0.0095359679
-0.056074948
-0.01074232
-0.058580021
-0.012029149
-0.061193842
-0.013399865
-0.063929263
-0.014858427
-0.066789083
-0.016408398
-0.069782852
-0.018052881
-0.072917433
-0.019794978
-0.076201892
-0.021637374
-0.079645316
-0.023582743
-0.083257666
-0.025632759
-0.087049873
-0.027789293
-0.091033294
-0.030053464
-0.095220291
-0.032426596
-0.09962368
-0.034909243
-0.10425744
-0.037501601
-0.10913624
-0.040203846
-0.11427557
-0.043016206
-0.11969152
-0.045938039
-0.12540121
-0.048969697
-0.1314222
-0.052110476
-0.1377738
-0.055360805
-0.14447487
-0.058720346
-0.15154616
-0.0621897
-0.15900905
-0.06576897
-0.16688615
-0.069459458
-0.1752002
-0.073262049
-0.18397664
-0.077178226
-0.19324038
-0.081209925
-0.20301923
-0.085359538
-0.21334134
-0.089629086
-0.22423714
-0.094022216
-0.23573791
-0.098541349
-0.24787796
-0.10319051
-0.26069234
-0.10797296
-0.27421935
-0.11289305
-0.2884986
-0.1179543
-0.30357316
-0.12316113
-0.31948848
-0.12851779
-0.33629254
-0.13402833
-0.35403693
-0.13969679
-0.37277717
-0.14552718
-0.39257105
-0.15152342
-0.41348192
-0.15768855
-0.43557625
-0.16402602
-0.45892556
-0.17053869
-0.48360606
-0.17722817
-0.50969993
-0.18409651
-0.53729381
-0.19114441
-0.56648172
-0.19837112
-0.59736323
-0.20577619
-0.6300447
-0.21335718
-0.66464085
-0.22111027
-0.70127391
-0.22903038
-0.74007489
-0.23711095
-0.78118371
-0.2453434
-0.82475032
-0.2537148
-0.87093257
-0.26221148
-0.91989808
-0.27081191
-0.97182267
-0.27949656
-1.0268876
-0.28823879
-1.0852854
-0.29700876
-1.1472193
-0.30577589
-1.2129039
-0.31450047
-1.282562
-0.32313002
-1.3564556
-0.33163851
-1.4347388
-0.33971719
-1.5173216
-0.34763256
-1.6054357
-1.6958269
-0.00046424393
-0.033200944
-0.0011097913
-0.035814224
-0.0017276782
-0.037095725
-0.0024464666
-0.038847935
-0.003180856
-0.040556641
-0.0039953212
-0.042321903
-0.0048553381
-0.044222748
-0.0057876476
-0.046148172
-0.0067838806
-0.048201176
-0.0078548269
-0.050313005
-0.0090015427
-0.052537232
-0.010229802
-0.054846688
-0.011543163
-0.05726666
-0.012945989
-0.059791017
-0.014442179
-0.062433072
-0.016035324
-0.065195939
-0.017729019
-0.068089157
-0.019526192
-0.07112026
-0.021429617
-0.074298466
-0.023441652
-0.077633281
-0.025564181
-0.081135137
-0.027798709
-0.084815345
-0.030146544
-0.088685459
-0.032608193
-0.092758641
-0.035184027
-0.097047847
-0.03787417
-0.10156729
-0.040678574
-0.10633184
-0.04359694
-0.11135721
-0.046629094
-0.11665936
-0.049774766
-0.12225554
-0.053033506
-0.12816346
-0.05640573
-0.13440158
-0.059891654
-0.14098895
-0.063491691
-0.14794612
-0.067207144
-0.15529359
-0.07103944
-0.16305386
-0.07499048
-0.17124916
-0.079062836
-0.17990428
-0.08325892
-0.18904429
-0.087582644
-0.19869551
-0.092037597
-0.20888639
-0.096628516
-0.21964622
-0.10135945
-0.23100697
-0.10623623
-0.24300118
-0.1112641
-0.25566447
-0.11644906
-0.26903439
-0.12179731
-0.28315034
-0.12731526
-0.29805521
-0.1330098
-0.31379393
-0.13888782
-0.33041452
-0.14495619
-0.34796857
-0.15122254
-0.36651081
-0.15769379
-0.3860998
-0.16437747
-0.40679824
-0.17128083
-0.42867288
-0.17841108
-0.45179531
-0.1857753
-0.47624184
-0.19338069
-0.50209455
-0.20123333
-0.52944117
-0.20934023
-0.55837482
-0.21770711
-0.58899635
-0.22633925
-0.62141256
-0.23524173
-0.65573837
-0.24441876
-0.69209688
-0.25387384
-0.73061981
-0.26360904
-0.7714485
-0.27362591
-0.81473345
-0.28392408
-0.86063439
-0.29449962
-0.90932254
-0.30534743
-0.96097486
-0.31645838
-1.0157767
-0.32782266
-1.0739211
-0.33942388
-1.1356181
-0.35124729
-1.2010805
-0.36327403
-1.2705353
-0.37548179
-1.3442479
-0.38784459
-1.422376
-0.4001304
-1.5050358
-0.41252397
-1.5930421
-1.6837745
-0.0004947127
-0.032706231
-0.0011874472
-0.035121489
-0.0018533889
-0.036429784
-0.0026281759
-0.038073148
-0.003426247
-0.03975857
-0.0043104363
-0.041437714
-0.0052503444
-0.04328284
-0.0062697732
-0.045128743
-0.0073636456
-0.047107304
-0.0085412103
-0.04913544
-0.0098052934
-0.051273149
-0.011161011
-0.05349097
-0.012612796
-0.055814875
-0.014164664
-0.058239148
-0.01582067
-0.060777066
-0.017584262
-0.063432347
-0.019458373
-0.066215046
-0.021446064
-0.069132569
-0.023549297
-0.072195233
-0.025769819
-0.075412759
-0.028108629
-0.078796327
-0.030566615
-0.08235736
-0.033144127
-0.086107947
-0.035841192
-0.090061576
-0.038657427
-0.094231612
-0.041592441
-0.098632279
-0.044645633
-0.10327865
-0.047816732
-0.10818611
-0.05110497
-0.11337112
-0.054510435
-0.11885008
-0.058033527
-0.12464037
-0.06167455
-0.13076056
-0.06543458
-0.13722892
-0.069315188
-0.14406551
-0.07331864
-0.15129014
-0.077447927
-0.15892457
-0.081705793
-0.16699129
-0.086096849
-0.17551323
-0.090625451
-0.18451569
-0.095296653
-0.19402431
-0.10011652
-0.20406652
-0.10509112
-0.21467163
-0.11022746
-0.22587063
-0.115533
-0.23769565
-0.12101542
-0.25018204
-0.1266833
-0.26336651
-0.13254505
-0.27728859
-0.13860992
-0.29199034
-0.14488763
-0.30751622
-0.1513877
-0.32391445
-0.15812059
-0.34123568
-0.1650967
-0.3595347
-0.17232685
-0.37886965
-0.17982213
-0.39930297
-0.18759403
-0.42090098
-0.19565413
-0.4437352
-0.20401409
-0.46788188
-0.21268598
-0.49342265
-0.22168201
-0.52044514
-0.23101424
-0.54904258
-0.24069536
-0.57931523
-0.25073747
-0.61137045
-0.26115311
-0.64532272
-0.27195435
-0.68129565
-0.28315376
-0.7194204
-0.29476325
-0.75983901
-0.30679476
-0.80270194
-0.31925861
-0.84817054
-0.33216358
-0.89641757
-0.34552187
-0.94761658
-0.3593347
-1.0019639
-0.37360386
-1.0596519
-0.38833489
-1.1208871
-0.40353158
-1.1858838
-0.41918739
-1.2548795
-0.43530676
-1.3281285
-0.4518692
-1.4058135
-0.46873049
-1.4881745
-0.486005
-1.5757676
-1.6664743
-0.00053604767
-0.032170184
-0.001290122
-0.034367415
-0.0020202447
-0.035699661
-0.0028680262
-0.037225367
-0.00374961
-0.038876986
-0.0047246067
-0.040462717
-0.0057681786
-0.042239268
-0.0069004868
-0.043996435
-0.0081199868
-0.045887804
-0.0094343212
-0.047821106
-0.010847939
-0.049859532
-0.012365425
-0.051973484
-0.013991624
-0.054188676
-0.015730232
-0.05650054
-0.017585095
-0.058922203
-0.019559057
-0.061458385
-0.021654826
-0.064119277
-0.023874008
-0.066913387
-0.026218014
-0.069851228
-0.028687652
-0.072943121
-0.031283059
-0.07620092
-0.034004237
-0.079636181
-0.036850231
-0.083261953
-0.039820623
-0.087091185
-0.042914255
-0.09113798
-0.046130424
-0.09541611
-0.049468077
-0.099940995
-0.052926859
-0.10472733
-0.056506912
-0.10979107
-0.060208336
-0.11514865
-0.064032043
-0.12081666
-0.067979522
-0.12681308
-0.072053173
-0.13315526
-0.076256042
-0.13986265
-0.08059149
-0.14695469
-0.085063838
-0.15445222
-0.089678835
-0.1623763
-0.094441707
-0.17075036
-0.099359541
-0.17959786
-0.10443932
-0.18894453
-0.10968901
-0.19881683
-0.1151172
-0.20924343
-0.12073327
-0.22025457
-0.12654662
-0.23188229
-0.13256772
-0.24416094
-0.13880735
-0.25712688
-0.14527694
-0.27081899
-0.15198874
-0.28527854
-0.15895475
-0.30055021
-0.16618842
-0.31668078
-0.17370278
-0.33372132
-0.18151229
-0.3517252
-0.18963148
-0.37075045
-0.19807531
-0.39085914
-0.2068593
-0.41211699
-0.21599992
-0.43459459
-0.22551387
-0.45836793
-0.23541846
-0.48351806
-0.24573178
-0.51013182
-0.25647203
-0.53830234
-0.26765865
-0.56812861
-0.27931105
-0.59971805
-0.29144962
-0.63318415
-0.30409525
-0.66865001
-0.31726908
-0.70624658
-0.33099399
-0.74611411
-0.34529195
-0.78840397
-0.36018583
-0.83327667
-0.3756994
-0.880904
-0.39185243
-0.93146355
-0.40866553
-0.98515076
-0.42616094
-1.0421565
-0.44435358
-1.1026944
-0.4632633
-1.1669741
-0.4829072
-1.2352356
-0.5033123
-1.3077234
-0.52447048
-1.3846554
-0.54630514
-1.4663399
-0.56889357
-1.5531791
-1.6434685
-0.00058906621
-0.031581117
-0.0014200196
-0.033536462
-0.0022331142
-0.034886566
-0.003173652
-0.036284829
-0.0041623101
-0.037888328
-0.0052535301
-0.039371497
-0.0064291484
-0.04106365
-0.0077047146
-0.042720868
-0.0090828081
-0.04450971
-0.010569389
-0.046334525
-0.01217025
-0.04825867
-0.013889264
-0.050254471
-0.015731242
-0.052346698
-0.017699245
-0.054532538
-0.019796418
-0.05682503
-0.022024729
-0.059230074
-0.024385671
-0.061758336
-0.026879875
-0.064419183
-0.029507501
-0.067223602
-0.032267873
-0.070182749
-0.03516026
-0.073308532
-0.038182991
-0.07661345
-0.04133498
-0.080109965
-0.044614467
-0.083811697
-0.048020417
-0.08773203
-0.051551423
-0.091885105
-0.055207224
-0.096285194
-0.058987733
-0.10094682
-0.062893143
-0.10588566
-0.066925374
-0.11111642
-0.071085967
-0.11665607
-0.075378593
-0.12252045
-0.079806563
-0.12872729
-0.084374862
-0.13529435
-0.089088865
-0.14224069
-0.093955417
-0.14958567
-0.098981362