/*--------------------------------*- C++ -*----------------------------------*\
  =========                 |
  \\      /  F ield         | OpenFOAM: The Open Source CFD Toolbox
   \\    /   O peration     | Website:  https://openfoam.org
    \\  /    A nd           | Version:  6
     \\/     M anipulation  |
\*---------------------------------------------------------------------------*/
FoamFile
{
    version     2.0;
    format      ascii;
    class       volScalarField;
    location    "700";
    object      rho;
}
// * * * * * * * * * * * * * * * * * * * * * * * * * * * * * * * * * * * * * //

dimensions      [1 -3 0 0 0 0 0];

internalField   nonuniform List<scalar> 
16000
(
1.1565492
1.1618044
1.1602145
1.1615132
1.1610879
1.1618038
1.1617773
1.1622811
1.1624371
1.1628516
1.1631054
1.1634845
1.1637952
1.1641663
1.1645123
1.164888
1.1652578
1.1656432
1.1660299
1.1664256
1.1668247
1.1672291
1.1676364
1.1680465
1.1684579
1.1688698
1.1692808
1.1696899
1.1700958
1.1704971
1.1708925
1.1712808
1.1716606
1.1720306
1.1723894
1.1727359
1.173069
1.1733874
1.1736902
1.1739765
1.1742455
1.1744964
1.1747287
1.1749419
1.1751357
1.1753098
1.1754642
1.1755989
1.175714
1.1758096
1.1758862
1.1759439
1.1759833
1.1760047
1.1760087
1.1759959
1.1759668
1.175922
1.1758619
1.1757873
1.1756985
1.1755963
1.1754806
1.1753532
1.1752112
1.1750608
1.1748899
1.1747204
1.1745102
1.1743354
1.1740544
1.1739197
1.1734884
1.1735393
1.1726813
1.1732737
1.1713245
1.1734146
1.1691763
1.1738335
1.1570366
1.1623024
1.1606427
1.1620067
1.1615638
1.1623287
1.1623022
1.1628421
1.1630093
1.1634525
1.1637243
1.1641285
1.1644603
1.1648547
1.1652229
1.165621
1.1660127
1.1664195
1.1668271
1.1672429
1.167661
1.1680835
1.1685075
1.168933
1.1693581
1.1697819
1.1702029
1.1706198
1.1710312
1.1714357
1.1718319
1.1722182
1.1725934
1.1729561
1.173305
1.1736389
1.1739566
1.1742571
1.1745396
1.1748034
1.1750476
1.175272
1.1754761
1.1756597
1.1758227
1.1759652
1.1760874
1.1761895
1.1762719
1.1763351
1.1763796
1.176406
1.1764149
1.1764068
1.1763825
1.1763427
1.176288
1.1762191
1.1761365
1.1760409
1.1759326
1.1758125
1.1756806
1.1755378
1.1753833
1.175219
1.1750407
1.1748558
1.1746479
1.1744473
1.1741921
1.1739989
1.173638
1.1735565
1.1728951
1.1732085
1.1716313
1.1732527
1.1694592
1.1737597
1.1576889
1.162958
1.1612575
1.1626847
1.1622337
1.1630412
1.1630233
1.1635953
1.1637802
1.16425
1.1645437
1.1649721
1.1653273
1.1657448
1.1661361
1.1665565
1.1669703
1.1673982
1.1678262
1.1682611
1.1686974
1.1691363
1.1695753
1.1700139
1.1704501
1.1708828
1.1713104
1.1717313
1.1721441
1.1725472
1.1729391
1.1733182
1.1736832
1.1740326
1.1743654
1.1746802
1.174976
1.1752521
1.1755076
1.1757421
1.1759551
1.1761464
1.176316
1.1764638
1.1765901
1.1766953
1.1767799
1.1768443
1.1768893
1.1769156
1.1769239
1.176915
1.1768897
1.1768488
1.1767931
1.1767233
1.1766403
1.1765448
1.1764373
1.1763184
1.1761887
1.1760487
1.1758986
1.175739
1.1755697
1.1753911
1.1752016
1.1750035
1.1747898
1.1745723
1.1743236
1.1740969
1.1737756
1.1736017
1.1730681
1.1731913
1.1718799
1.1731201
1.1697099
1.1736415
1.15853
1.1637877
1.1620678
1.16356
1.163103
1.1639565
1.1639496
1.1645565
1.1647617
1.1652607
1.1655792
1.1660342
1.1664154
1.1668581
1.1672749
1.1677194
1.1681569
1.168607
1.1690564
1.1695109
1.1699651
1.1704201
1.1708731
1.1713231
1.1717684
1.1722073
1.1726381
1.1730592
1.1734689
1.1738655
1.1742474
1.1746131
1.1749611
1.1752902
1.1755992
1.175887
1.1761528
1.176396
1.1766161
1.1768127
1.1769859
1.1771356
1.1772622
1.177366
1.1774476
1.1775078
1.1775473
1.1775669
1.1775677
1.1775506
1.1775166
1.1774668
1.177402
1.1773234
1.1772317
1.1771279
1.1770128
1.1768872
1.1767517
1.1766069
1.1764532
1.1762912
1.1761211
1.1759433
1.1757577
1.1755643
1.1753622
1.1751518
1.17493
1.1747005
1.1744514
1.1742048
1.1739049
1.1736772
1.1732192
1.1732078
1.1721081
1.1730441
1.1699717
1.1736566
1.1595543
1.1647817
1.1630706
1.1646307
1.1641736
1.1650754
1.165085
1.1657289
1.1659593
1.1664896
1.1668369
1.1673204
1.1677305
1.1682002
1.1686444
1.1691141
1.1695765
1.1700492
1.1705199
1.1709935
1.1714648
1.1719342
1.1723988
1.1728576
1.1733084
1.1737494
1.1741787
1.1745945
1.1749951
1.1753786
1.1757434
1.1760881
1.1764112
1.1767115
1.1769881
1.1772402
1.177467
1.1776684
1.177844
1.177994
1.1781187
1.1782185
1.1782941
1.1783463
1.178376
1.1783843
1.1783723
1.1783413
1.1782924
1.1782269
1.1781461
1.1780512
1.1779432
1.1778234
1.1776927
1.177552
1.1774024
1.1772444
1.1770789
1.1769063
1.1767271
1.1765416
1.1763503
1.1761532
1.1759503
1.1757414
1.1755258
1.1753032
1.1750717
1.1748318
1.1745783
1.1743187
1.1740276
1.1737642
1.1733604
1.17324
1.1723159
1.1730097
1.1702209
1.1736848
1.160787
1.1659809
1.1642935
1.1659229
1.1654699
1.1664212
1.1664516
1.1671338
1.1673934
1.1679563
1.1683355
1.1688491
1.1692905
1.1697887
1.1702618
1.1707576
1.1712454
1.1717409
1.1722325
1.1727241
1.1732108
1.1736923
1.1741656
1.1746294
1.1750811
1.1755189
1.1759408
1.1763446
1.1767287
1.1770911
1.1774302
1.1777448
1.1780334
1.1782952
1.1785294
1.1787355
1.1789132
1.1790626
1.179184
1.1792777
1.1793446
1.1793856
1.1794018
1.1793944
1.1793647
1.1793143
1.1792445
1.1791569
1.1790531
1.1789344
1.1788025
1.1786585
1.1785039
1.1783398
1.1781673
1.1779874
1.177801
1.177609
1.1774118
1.17721
1.1770041
1.1767943
1.1765808
1.1763638
1.176143
1.1759184
1.1756891
1.1754544
1.1752129
1.1749639
1.1747046
1.1744363
1.1741485
1.1738633
1.1734961
1.1732902
1.1725156
1.1730062
1.170478
1.1737465
1.1622365
1.1674344
1.1657451
1.1674456
1.1670011
1.1680032
1.1680593
1.1687811
1.1690743
1.1696715
1.1700862
1.1706317
1.1711069
1.1716351
1.1721385
1.1726612
1.1731747
1.1736925
1.1742039
1.1747117
1.175211
1.1757011
1.1761787
1.1766421
1.1770888
1.1775164
1.1779229
1.1783062
1.1786644
1.1789957
1.1792988
1.1795723
1.1798154
1.1800273
1.1802077
1.1803565
1.1804739
1.1805605
1.180617
1.1806445
1.1806443
1.1806176
1.1805661
1.1804916
1.1803956
1.1802802
1.1801471
1.179998
1.1798349
1.1796593
1.1794728
1.179277
1.1790733
1.1788629
1.1786469
1.1784264
1.1782021
1.1779748
1.1777452
1.1775137
1.1772805
1.1770459
1.17681
1.1765729
1.1763342
1.1760938
1.1758507
1.1756042
1.1753529
1.1750956
1.1748302
1.1745558
1.1742681
1.1739704
1.1736305
1.1733631
1.1727118
1.1730201
1.1707366
1.1738415
1.1638991
1.1691195
1.1674261
1.1692012
1.1687719
1.1698277
1.1699161
1.1706802
1.1710127
1.171647
1.1721015
1.1726816
1.1731936
1.1737534
1.1742887
1.1748389
1.1753779
1.175917
1.1764462
1.1769672
1.1774752
1.1779688
1.1784447
1.1789006
1.1793339
1.1797423
1.1801234
1.1804753
1.1807961
1.1810843
1.1813387
1.1815584
1.1817429
1.1818919
1.1820057
1.1820847
1.1821298
1.1821421
1.1821229
1.182074
1.1819971
1.1818941
1.1817672
1.1816185
1.1814501
1.1812642
1.181063
1.1808485
1.1806226
1.1803871
1.1801439
1.1798944
1.17964
1.1793821
1.1791218
1.1788599
1.1785973
1.1783346
1.1780725
1.1778111
1.1775508
1.1772916
1.1770336
1.1767766
1.1765205
1.1762646
1.1760083
1.1757506
1.17549
1.1752253
1.1749543
1.1746757
1.1743871
1.1740836
1.1737622
1.1734529
1.1729079
1.1730533
1.1710151
1.1739666
1.1657805
1.1710424
1.1693463
1.1712012
1.1707949
1.1719081
1.1720366
1.1728462
1.1732246
1.1738991
1.1743982
1.1750154
1.175567
1.1761602
1.1767282
1.1773057
1.177869
1.178427
1.1789706
1.1795001
1.1800108
1.1805007
1.1809663
1.181405
1.1818142
1.1821914
1.1825343
1.1828412
1.1831104
1.1833409
1.1835318
1.1836827
1.1837938
1.1838655
1.1838987
1.1838946
1.1838547
1.1837808
1.1836751
1.1835398
1.1833774
1.1831902
1.1829809
1.1827521
1.1825062
1.1822457
1.1819729
1.18169
1.1813992
1.1811023
1.1808011
1.1804972
1.1801919
1.1798864
1.1795818
1.1792789
1.1789785
1.178681
1.178387
1.1780966
1.1778099
1.1775269
1.1772475
1.1769715
1.1766986
1.1764282
1.1761594
1.1758913
1.1756224
1.1753512
1.1750757
1.1747944
1.1745048
1.1742008
1.1738914
1.173556
1.1731027
1.1731044
1.1713133
1.1741008
1.167901
1.1732144
1.1715237
1.1734642
1.1730892
1.1742637
1.1744407
1.1752992
1.1757302
1.1764482
1.1769963
1.1776532
1.1782466
1.178874
1.1794746
1.180078
1.1806628
1.1812356
1.1817877
1.1823185
1.1828231
1.183299
1.1837426
1.1841512
1.184522
1.1848527
1.1851414
1.1853866
1.1855871
1.1857426
1.1858527
1.185918
1.1859394
1.1859181
1.1858558
1.1857547
1.1856171
1.1854456
1.1852431
1.1850124
1.1847565
1.1844784
1.1841812
1.1838676
1.1835405
1.1832026
1.1828563
1.1825039
1.1821474
1.1817889
1.18143
1.1810721
1.1807166
1.1803645
1.1800169
1.1796743
1.1793373
1.1790064
1.1786819
1.1783638
1.1780521
1.1777466
1.1774472
1.1771535
1.1768651
1.1765812
1.1763012
1.1760239
1.1757479
1.1754714
1.1751926
1.1749101
1.1746205
1.17432
1.1740184
1.1736712
1.1732949
1.1731739
1.1716306
1.1742415
1.1702934
1.1756558
1.1739769
1.1760092
1.175675
1.1769148
1.1771497
1.178061
1.1785515
1.1793165
1.1799181
1.1806169
1.1812535
1.1819148
1.1825462
1.183172
1.1837731
1.1843537
1.1849054
1.1854267
1.1859127
1.1863603
1.1867661
1.1871273
1.1874414
1.1877065
1.1879211
1.1880844
1.1881961
1.1882566
1.1882667
1.1882278
1.1881419
1.1880113
1.1878386
1.187627
1.1873797
1.1871001
1.1867916
1.1864579
1.1861024
1.1857285
1.1853396
1.1849386
1.1845287
1.1841124
1.1836924
1.1832707
1.1828496
1.1824307
1.1820156
1.1816056
1.1812019
1.1808055
1.1804169
1.1800368
1.1796655
1.1793034
1.1789504
1.1786067
1.178272
1.1779459
1.1776283
1.1773185
1.1770162
1.1767206
1.1764308
1.1761458
1.175864
1.1755838
1.1753033
1.175021
1.174733
1.1744386
1.1741424
1.1737951
1.1734809
1.173258
1.1719514
1.1743692
1.1729709
1.178379
1.1767219
1.1788547
1.1785737
1.1798845
1.1801884
1.1811571
1.181715
1.1825306
1.1831893
1.1839313
1.1846109
1.185304
1.1859617
1.1866035
1.1872119
1.1877891
1.1883271
1.1888233
1.1892729
1.1896729
1.1900199
1.1903115
1.1905458
1.1907215
1.1908383
1.1908962
1.1908961
1.1908396
1.1907287
1.1905663
1.1903553
1.1900993
1.1898021
1.1894677
1.1891002
1.1887038
1.1882825
1.1878405
1.1873815
1.1869093
1.1864272
1.1859385
1.1854462
1.1849528
1.1844607
1.1839721
1.1834887
1.1830123
1.182544
1.1820851
1.1816364
1.1811986
1.1807723
1.1803577
1.1799552
1.1795646
1.1791861
1.1788193
1.178464
1.1781198
1.1777861
1.1774625
1.1771483
1.1768428
1.1765451
1.176254
1.1759682
1.1756859
1.1754054
1.1751249
1.1748405
1.1745543
1.1742626
1.1739249
1.1736584
1.1733523
1.1722737
1.1744953
1.1759479
1.1814166
1.1797916
1.1820337
1.1818193
1.1832061
1.1835906
1.1846208
1.185253
1.1861219
1.1868396
1.1876239
1.1883434
1.1890625
1.189738
1.1903845
1.190986
1.1915429
1.1920474
1.1924967
1.192886
1.1932125
1.1934736
1.1936677
1.193794
1.1938523
1.1938437
1.1937697
1.1936327
1.1934359
1.1931829
1.1928778
1.192525
1.1921292
1.1916954
1.1912284
1.1907331
1.1902141
1.1896762
1.1891235
1.1885601
1.1879898
1.187416
1.1868417
1.1862697
1.1857025
1.1851422
1.1845906
1.1840493
1.1835196
1.1830026
1.182499
1.1820095
1.1815346
1.1810745
1.1806293
1.180199
1.1797836
1.1793827
1.1789961
1.1786232
1.1782635
1.1779164
1.1775814
1.1772576
1.1769444
1.1766407
1.1763456
1.1760576
1.175775
1.1754964
1.1752192
1.1749407
1.1746641
1.1743778
1.174058
1.1738284
1.1734561
1.1725909
1.1746173
1.1792543
1.1847984
1.1832178
1.1855792
1.1854477
1.1869154
1.1873929
1.1884885
1.1892005
1.190124
1.1908999
1.1917224
1.192474
1.1932083
1.1938868
1.1945198
1.1950929
1.1956047
1.1960482
1.1964205
1.1967176
1.1969376
1.1970792
1.1971421
1.1971271
1.1970361
1.1968718
1.1966379
1.1963385
1.1959787
1.1955635
1.1950988
1.1945901
1.1940434
1.1934645
1.1928588
1.1922317
1.1915884
1.1909336
1.1902716
1.1896063
1.1889414
1.18828
1.1876249
1.1869786
1.1863431
1.1857202
1.1851114
1.1845179
1.1839406
1.1833803
1.1828374
1.1823122
1.181805
1.1813158
1.1808445
1.1803907
1.1799543
1.1795349
1.1791318
1.1787446
1.1783725
1.178015
1.1776712
1.1773404
1.1770217
1.1767144
1.1764173
1.1761291
1.1758482
1.1755732
1.1753013
1.1750311
1.1747651
1.174486
1.1741912
1.1739888
1.1735692
1.1729008
1.1747306
1.1829226
1.1885596
1.1870397
1.1895305
1.1895007
1.1910537
1.1916385
1.1928036
1.193598
1.1945736
1.1954022
1.1962525
1.1970216
1.1977517
1.1984095
1.1990013
1.1995142
1.199946
1.2002911
1.2005469
1.2007114
1.2007842
1.2007661
1.2006589
1.2004661
1.2001917
1.199841
1.1994197
1.1989342
1.1983912
1.1977977
1.1971606
1.1964868
1.1957829
1.1950552
1.1943097
1.193552
1.192787
1.1920193
1.1912531
1.190492
1.1897392
1.1889973
1.1882688
1.1875556
1.1868593
1.1861812
1.1855224
1.1848837
1.1842655
1.1836683
1.1830922
1.1825373
1.1820034
1.1814903
1.1809976
1.180525
1.1800719
1.1796378
1.1792221
1.178824
1.1784429
1.1780779
1.1777282
1.177393
1.1770715
1.1767628
1.1764659
1.1761795
1.1759024
1.1756328
1.1753682
1.1751083
1.1748535
1.1745846
1.1743188
1.1741326
1.1736876
1.1732005
1.1748261
1.1869977
1.1927458
1.1913057
1.1939335
1.1940261
1.1956676
1.1963724
1.1976119
1.1984875
1.1995053
1.2003724
1.2012313
1.2019922
1.2026878
1.2032888
1.203799
1.2042073
1.2045123
1.20471
1.2048
1.204783
1.2046612
1.2044384
1.2041198
1.2037115
1.2032207
1.2026551
1.2020229
1.2013324
1.2005921
1.1998102
1.1989946
1.1981527
1.1972917
1.1964179
1.1955373
1.194655
1.1937759
1.1929038
1.1920426
1.1911951
1.190364
1.1895514
1.188759
1.1879882
1.1872402
1.1865156
1.1858152
1.1851391
1.1844876
1.1838606
1.183258
1.1826795
1.1821247
1.1815931
1.1810843
1.1805975
1.1801322
1.1796877
1.1792632
1.1788579
1.178471
1.1781016
1.177749
1.1774122
1.1770904
1.1767826
1.176488
1.1762056
1.175934
1.1756717
1.1754163
1.1751686
1.1749258
1.1746708
1.1744366
1.1742588
1.1738092
1.1734868
1.1749003
1.1915277
1.1974041
1.1960744
1.1988503
1.1991011
1.2008386
1.201654
1.2029485
1.2038999
1.2049442
1.2058247
1.20666
1.2073725
1.2079869
1.208479
1.2088512
1.2090958
1.2092133
1.2092034
1.2090692
1.2088152
1.2084477
1.2079745
1.2074042
1.2067465
1.2060115
1.2052094
1.2043505
1.2034446
1.2025013
1.2015295
1.2005374
1.1995327
1.198522
1.1975114
1.1965062
1.1955111
1.1945299
1.193566
1.1926221
1.1917006
1.1908033
1.1899316
1.1890865
1.1882689
1.1874793
1.1867178
1.1859847
1.1852798
1.1846028
1.1839534
1.1833312
1.1827355
1.1821658
1.1816214
1.1811015
1.1806054
1.1801324
1.1796815
1.179252
1.1788431
1.1784537
1.1780831
1.1777304
1.1773946
1.177075
1.1767706
1.1764805
1.1762038
1.1759396
1.1756862
1.175442
1.1752078
1.1749776
1.1747403
1.1745376
1.1743612
1.173926
1.1737525
1.1749528
1.1965885
1.2025983
1.2014325
1.204355
1.2047876
1.2065968
1.2075364
1.2088818
1.209875
1.2109108
1.2117584
1.2125155
1.2131171
1.2135817
1.2138918
1.2140508
1.2140565
1.2139136
1.2136271
1.2132054
1.2126579
1.2119958
1.2112313
1.2103768
1.2094451
1.2084487
1.2073998
1.2063098
1.2051894
1.2040483
1.2028953
1.2017382
1.200584
1.1994384
1.1983067
1.1971931
1.1961012
1.195034
1.1939938
1.1929825
1.1920014
1.1910517
1.1901338
1.1892482
1.1883952
1.1875746
1.1867863
1.1860297
1.1853045
1.1846101
1.1839457
1.1833107
1.1827042
1.1821254
1.1815735
1.1810477
1.1805469
1.1800704
1.1796172
1.1791864
1.1787772
1.1783886
1.1780197
1.1776696
1.1773374
1.1770223
1.1767234
1.1764399
1.1761709
1.1759156
1.1756724
1.1754408
1.1752209
1.1750046
1.1747885
1.1746142
1.1744334
1.1740317
1.1739857
1.1749779
1.2023996
1.2085134
1.2075562
1.2105724
1.211153
1.213012
1.2140574
1.2154247
1.2164202
1.2173849
1.2181263
1.2187213
1.2191211
1.219342
1.2193754
1.2192295
1.2189097
1.2184272
1.2177941
1.217025
1.2161351
1.2151404
1.214057
1.2129003
1.2116854
1.2104261
1.2091351
1.207824
1.2065029
1.2051809
1.2038657
1.2025639
1.201281
1.2000217
1.1987897
1.197588
1.196419
1.1952845
1.1941856
1.1931234
1.1920983
1.1911105
1.1901599
1.1892464
1.1883694
1.1875286
1.186723
1.1859521
1.185215
1.1845108
1.1838385
1.1831972
1.1825859
1.1820037
1.1814495
1.1809223
1.1804212
1.1799452
1.1794934
1.1790649
1.1786586
1.1782736
1.1779091
1.1775641
1.1772379
1.1769295
1.176638
1.1763629
1.1761032
1.1758581
1.1756265
1.1754085
1.1752032
1.1750021
1.1748089
1.1746576
1.1744737
1.1741237
1.1741749
1.1749726
1.2089496
1.2150962
1.2143274
1.2173893
1.2182878
1.2202726
1.2213203
1.222608
1.2235046
1.224287
1.2248052
1.2251184
1.2251959
1.2250566
1.2247035
1.2241531
1.2234205
1.2225252
1.2214868
1.2203262
1.2190636
1.2177187
1.2163098
1.2148541
1.2133666
1.2118611
1.2103493
1.2088415
1.2073462
1.2058707
1.204421
1.2030018
1.201617
1.2002694
1.1989613
1.1976944
1.1964695
1.1952874
1.1941483
1.1930521
1.1919986
1.1909871
1.1900169
1.1890875
1.1881977
1.1873466
1.1865332
1.1857565
1.1850152
1.1843083
1.1836347
1.1829931
1.1823826
1.1818019
1.1812501
1.1807259
1.1802285
1.1797567
1.1793096
1.1788863
1.1784858
1.1781071
1.1777494
1.1774118
1.1770935
1.1767936
1.1765114
1.1762461
1.1759971
1.1757635
1.1755445
1.1753406
1.1751502
1.1749655
1.1747954
1.1746651
1.1744903
1.1741907
1.1743066
1.1749308
1.2162157
1.2223784
1.2220294
1.2253289
1.2262131
1.2280981
1.2291584
1.230252
1.2309318
1.2313966
1.2315464
1.2314341
1.2310512
1.2304263
1.2295775
1.2285323
1.2273165
1.2259576
1.2244818
1.2229142
1.2212777
1.2195932
1.2178789
1.2161508
1.2144226
1.2127057
1.2110095
1.2093417
1.2077086
1.2061148
1.2045642
1.2030593
1.2016022
1.2001939
1.1988352
1.1975264
1.1962671
1.1950571
1.1938955
1.1927817
1.1917145
1.1906928
1.1897154
1.1887811
1.1878887
1.1870367
1.1862239
1.1854489
1.1847106
1.1840074
1.1833383
1.1827019
1.182097
1.1815224
1.180977
1.1804597
1.1799694
1.179505
1.1790656
1.1786502
1.1782579
1.1778877
1.1775388
1.1772104
1.1769017
1.1766119
1.1763403
1.1760862
1.1758489
1.1756276
1.175422
1.1752326
1.1750568
1.1748889
1.174742
1.1746329
1.1744705
1.1742097
1.1743769
1.1748631
1.2246173
1.2308637
1.2307693
1.2339473
1.2349809
1.2366575
1.2375005
1.2382215
1.2384683
1.2384155
1.2380049
1.237298
1.2363104
1.2350846
1.2336537
1.2320555
1.2303239
1.2284913
1.2265864
1.2246348
1.2226584
1.2206758
1.2187026
1.2167512
1.2148318
1.2129523
1.2111189
1.2093361
1.207607
1.2059341
1.2043185
1.2027609
1.2012614
1.1998197
1.1984352
1.1971067
1.1958333
1.1946135
1.193446
1.1923294
1.1912619
1.1902421
1.1892684
1.1883391
1.1874529
1.1866081
1.1858033
1.1850368
1.1843074
1.1836136
1.182954
1.1823273
1.1817323
1.1811677
1.1806324
1.1801251
1.1796448
1.1791906
1.1787613
1.1783561
1.177974
1.1776142
1.1772758
1.1769581
1.1766602
1.1763816
1.1761215
1.1758794
1.1756545
1.1754461
1.1752542
1.175079
1.1749173
1.174766
1.1746401
1.1745466
1.174398
1.1741905
1.1743778
1.1747463
1.2344969
1.2404056
1.2406153
1.2435413
1.2443905
1.2456027
1.2459557
1.2460369
1.2456037
1.2448158
1.243663
1.2422202
1.2405271
1.2386382
1.2365976
1.234448
1.2322255
1.2299616
1.2276824
1.2254094
1.2231596
1.2209467
1.218781
1.2166702
1.2146199
1.2126341
1.210715
1.2088642
1.207082
1.2053684
1.2037225
1.2021433
1.2006294
1.1991793
1.1977911
1.196463
1.1951932
1.1939796
1.1928205
1.1917138
1.1906576
1.1896499
1.1886892
1.1877734
1.186901
1.1860703
1.1852796
1.1845273
1.1838119
1.1831321
1.1824863
1.1818733
1.1812917
1.1807402
1.1802178
1.1797233
1.1792556
1.1788137
1.1783965
1.1780033
1.1776331
1.1772851
1.1769584
1.1766524
1.1763664
1.1760997
1.1758517
1.1756219
1.1754096
1.1752143
1.1750361
1.1748747
1.174727
1.1745921
1.1744846
1.1744018
1.1742697
1.1741173
1.1743045
1.1745642
1.2457219
1.2508742
1.251091
1.2534522
1.2538435
1.2542721
1.2538271
1.2529946
1.2516486
1.2499503
1.2479359
1.2456928
1.2432769
1.240747
1.2381484
1.23552
1.2328925
1.2302901
1.2277313
1.2252299
1.2227958
1.2204358
1.2181543
1.2159541
1.2138361
1.2118005
1.2098465
1.2079727
1.2061775
1.2044586
1.2028139
1.201241
1.1997373
1.1983006
1.1969283
1.1956178
1.194367
1.1931734
1.1920349
1.1909491
1.1899139
1.1889273
1.1879874
1.1870924
1.1862403
1.1854294
1.1846581
1.1839248
1.1832279
1.182566
1.1819377
1.1813415
1.1807763
1.1802408
1.1797339
1.1792544
1.1788012
1.1783735
1.1779702
1.1775904
1.1772333
1.1768982
1.1765842
1.1762907
1.176017
1.1757626
1.1755269
1.1753095
1.1751096
1.1749271
1.1747619
1.1746135
1.1744791
1.17436
1.174268
1.1741937
1.1740804
1.1739773
1.1741483
1.1743191
1.257015
1.2616087
1.2616853
1.2630605
1.2625807
1.2618145
1.2602247
1.258225
1.2558047
1.2531243
1.2502492
1.2472641
1.2442237
1.2411764
1.2381565
1.2351901
1.2322958
1.2294863
1.2267696
1.2241508
1.2216321
1.2192139
1.2168955
1.2146751
1.2125504
1.2105184
1.208576
1.2067202
1.2049475
1.2032548
1.2016386
1.200096
1.1986238
1.1972191
1.1958789
1.1946006
1.1933815
1.1922192
1.1911113
1.1900553
1.189049
1.1880906
1.1871779
1.1863092
1.1854825
1.1846961
1.1839484
1.1832377
1.1825627
1.1819218
1.1813136
1.1807369
1.1801903
1.1796728
1.1791831
1.1787202
1.1782831
1.1778708
1.1774824
1.177117
1.1767739
1.1764523
1.1761514
1.1758707
1.1756096
1.1753674
1.1751437
1.1749381
1.1747501
1.1745794
1.1744262
1.1742894
1.1741671
1.174062
1.1739822
1.1739147
1.1738208
1.1737568
1.1739022
1.1740044
1.2690779
1.2725331
1.2718772
1.2714058
1.269484
1.2671366
1.2641974
1.2609813
1.2575469
1.2540228
1.25047
1.2469478
1.2434913
1.2401277
1.2368729
1.2337369
1.2307246
1.2278376
1.2250749
1.2224344
1.2199128
1.2175059
1.2152097
1.2130193
1.2109304
1.2089382
1.2070384
1.2052267
1.203499
1.2018515
1.2002803
1.1987821
1.1973534
1.1959911
1.1946922
1.1934539
1.1922735
1.1911486
1.1900767
1.1890553
1.1880824
1.1871559
1.186274
1.1854347
1.1846363
1.183877
1.1831552
1.1824695
1.1818182
1.1812001
1.1806138
1.1800581
1.1795316
1.1790333
1.1785621
1.1781169
1.1776967
1.1773007
1.176928
1.1765777
1.176249
1.1759413
1.1756539
1.1753861
1.1751373
1.1749072
1.1746952
1.1745009
1.1743239
1.174164
1.1740213
1.1738946
1.173783
1.1736895
1.1736189
1.1735574
1.1734819
1.1734474
1.1735633
1.1736139
1.2806897
1.2803434
1.2782524
1.2755221
1.2720043
1.2681783
1.2641159
1.2600026
1.2559041
1.2518922
1.2479999
1.2442516
1.2406565
1.2372197
1.2339413
1.2308184
1.2278459
1.2250179
1.2223279
1.2197691
1.2173351
1.2150192
1.2128149
1.210716
1.208717
1.2068127
1.2049982
1.2032689
1.2016205
1.2000491
1.198551
1.1971227
1.1957608
1.1944624
1.1932244
1.1920442
1.1909192
1.1898468
1.1888247
1.1878507
1.1869229
1.1860392
1.185198
1.1843973
1.1836356
1.1829112
1.1822226
1.1815684
1.1809471
1.1803575
1.1797983
1.1792684
1.1787664
1.1782915
1.1778425
1.1774184
1.1770184
1.1766415
1.1762869
1.1759539
1.1756417
1.1753496
1.175077
1.1748233
1.174588
1.1743705
1.1741705
1.1739875
1.1738211
1.1736714
1.173538
1.17342
1.1733171
1.1732323
1.1731671
1.1731091
1.1730478
1.1730345
1.1731288
1.1731372
1.2848442
1.2817143
1.2781431
1.2739183
1.2694437
1.2649122
1.2604307
1.2560777
1.2518852
1.2478748
1.2440514
1.2404157
1.236963
1.2336857
1.2305742
1.2276192
1.2248115
1.2221424
1.2196035
1.2171871
1.214886
1.212694
1.2106058
1.2086155
1.206718
1.2049085
1.2031823
1.2015355
1.199964
1.1984642
1.1970329
1.1956668
1.1943629
1.1931184
1.1919306
1.1907971
1.1897158
1.1886844
1.1877007
1.1867631
1.1858697
1.1850185
1.184208
1.1834365
1.1827024
1.1820041
1.1813404
1.1807097
1.1801109
1.1795426
1.1790036
1.1784929
1.1780092
1.1775517
1.1771192
1.1767109
1.1763258
1.1759631
1.1756221
1.1753019
1.1750018
1.1747212
1.1744594
1.1742158
1.17399
1.1737815
1.1735898
1.1734145
1.1732553
1.173112
1.1729844
1.1728717
1.172774
1.172693
1.1726289
1.1725741
1.1725253
1.1725123
1.1725606
1.1725666
1.2744607
1.2713645
1.2682828
1.2642615
1.2602163
1.2561151
1.2521133
1.2482356
1.24451
1.2409442
1.2375392
1.2342918
1.2311965
1.2282475
1.2254379
1.2227609
1.2202096
1.2177775
1.2154581
1.2132457
1.2111344
1.2091185
1.2071937
1.2053558
1.2036009
1.2019252
1.2003249
1.1987968
1.1973374
1.1959438
1.194613
1.1933424
1.1921294
1.1909714
1.1898664
1.1888122
1.1878067
1.1868477
1.1859332
1.1850615
1.1842308
1.1834394
1.1826859
1.1819687
1.1812863
1.1806375
1.1800208
1.179435
1.178879
1.1783516
1.1778516
1.177378
1.1769298
1.1765061
1.1761057
1.175728
1.175372
1.175037
1.1747221
1.1744266
1.17415
1.1738914
1.1736503
1.1734262
1.1732185
1.1730267
1.1728505
1.1726894
1.172543
1.1724112
1.1722936
1.1721898
1.1721
1.1720247
1.1719635
1.1719134
1.1718744
1.171858
1.171872
1.1718792
1.2355481
1.244684
1.2457187
1.2460183
1.2447463
1.2429298
1.2406614
1.2381999
1.2356235
1.2330176
1.2304202
1.2278628
1.2253618
1.2229289
1.2205703
1.2182899
1.2160893
1.2139688
1.2119277
1.2099649
1.2080789
1.2062677
1.2045287
1.2028593
1.2012574
1.1997206
1.1982468
1.1968337
1.1954793
1.1941816
1.1929385
1.1917482
1.1906088
1.1895185
1.1884759
1.187479
1.186526
1.185615
1.1847447
1.1839136
1.1831203
1.1823634
1.1816417
1.1809538
1.1802986
1.1796749
1.1790815
1.1785173
1.1779813
1.1774723
1.1769895
1.1765319
1.1760985
1.1756883
1.1753007
1.1749346
1.1745894
1.1742642
1.1739584
1.1736711
1.1734019
1.1731499
1.1729146
1.1726955
1.172492
1.1723037
1.17213
1.1719705
1.171825
1.171693
1.1715742
1.1714684
1.1713754
1.1712953
1.1712277
1.1711719
1.1711283
1.1710987
1.1710846
1.1710823
1.2466343
1.2468296
1.2471087
1.2471527
1.2464636
1.2448583
1.2423236
1.2390857
1.2353687
1.2313184
1.2272681
1.2231152
1.2190536
1.215057
1.2112194
1.2076715
1.2043879
1.2014571
1.1988409
1.1965036
1.1944622
1.1926433
1.191062
1.1896642
1.1884482
1.1873559
1.1863672
1.1854532
1.1846341
1.1839373
1.1833123
1.1827318
1.1821918
1.1816848
1.1812055
1.1807499
1.1803156
1.179901
1.179505
1.1791261
1.1787641
1.1784186
1.1780888
1.1777748
1.1774762
1.1771925
1.1769231
1.1766676
1.1764252
1.1761956
1.175978
1.1757721
1.1755765
1.1753916
1.1752149
1.1750485
1.1748865
1.1747362
1.1745838
1.1744481
1.1742973
1.174178
1.1740165
1.1739211
1.1737275
1.1736749
1.1734118
1.1734404
1.1730473
1.1732291
1.1725724
1.1730517
1.1719688
1.1729415
1.1711531
1.1729398
1.1700065
1.1730947
1.1683568
1.1735546
1.1022959
1.1069856
1.1137651
1.1214851
1.1298356
1.138123
1.1449969
1.1506362
1.1555877
1.1598817
1.1635437
1.1667335
1.1695029
1.1719055
1.1740025
1.1757913
1.177354
1.1786327
1.1797138
1.1805497
1.181239
1.1817238
1.1820931
1.182289
1.1823847
1.1823638
1.1822792
1.1821221
1.1819151
1.1816736
1.1813997
1.1811002
1.1807755
1.1804379
1.1800955
1.1797533
1.1794152
1.1790843
1.1787627
1.1784512
1.1781504
1.1778611
1.1775833
1.177317
1.1770623
1.1768191
1.1765871
1.1763661
1.1761555
1.1759553
1.1757646
1.1755835
1.1754107
1.1752468
1.1750891
1.1749401
1.1747941
1.174658
1.174519
1.1743947
1.1742556
1.1741441
1.1739939
1.173902
1.1737215
1.1736661
1.17342
1.1734378
1.1730706
1.17323
1.1726194
1.1730519
1.1720251
1.1729462
1.1712128
1.1729529
1.1700424
1.1731387
1.1683628
1.1736204
1.2043054
1.2049662
1.207109
1.2097715
1.2107393
1.2100458
1.208744
1.2071725
1.2054522
1.2036938
1.2019345
1.2002201
1.1985545
1.1969636
1.1954467
1.1940079
1.1926623
1.1914221
1.1903201
1.1892972
1.1883275
1.1874477
1.1865921
1.1858412
1.1851605
1.1845379
1.1840122
1.1835075
1.1830603
1.1825011
1.1819822
1.1815013
1.1810486
1.1806231
1.1802206
1.1798384
1.1794742
1.1791266
1.1787942
1.1784751
1.17817
1.1778784
1.1775991
1.1773328
1.1770787
1.1768365
1.1766059
1.1763867
1.1761783
1.1759804
1.1757923
1.1756139
1.1754439
1.1752827
1.1751277
1.1749813
1.1748377
1.1747039
1.1745668
1.1744438
1.1743062
1.1741952
1.1740463
1.173953
1.1737744
1.1737145
1.1734722
1.1734823
1.173117
1.1732643
1.1726694
1.1730729
1.1720833
1.1729522
1.1712712
1.1729462
1.1701008
1.1731338
1.1684048
1.1736305
1.1663242
1.1662689
1.1686296
1.1736685
1.1771437
1.1781813
1.1786994
1.1791401
1.1795479
1.1800413
1.18051
1.1809705
1.1813861
1.1817746
1.1819995
1.1823724
1.1823804
1.1827369
1.1826438
1.1828812
1.1827078
1.1828418
1.1826234
1.1826277
1.1823885
1.1822174
1.1818833
1.1816473
1.181361
1.1810721
1.1807725
1.1804688
1.1801622
1.1798547
1.1795486
1.1792458
1.178948
1.1786566
1.1783723
1.1780962
1.1778293
1.177572
1.1773244
1.1770866
1.1768588
1.1766408
1.1764326
1.1762341
1.1760449
1.1758648
1.1756933
1.1755302
1.1753743
1.1752262
1.1750831
1.1749478
1.1748142
1.1746895
1.1745605
1.1744451
1.1743137
1.1742089
1.1740643
1.1739763
1.1738
1.1737449
1.1735031
1.1735175
1.1731515
1.1733027
1.172702
1.1731131
1.1721112
1.1729915
1.1712975
1.1729866
1.1701239
1.1731667
1.1684237
1.1736582
1.1738761
1.175462
1.1791526
1.1837476
1.1855269
1.1859146
1.1857408
1.1856277
1.1855012
1.1853975
1.1852471
1.1851117
1.184943
1.1847836
1.1846003
1.1844062
1.1842071
1.1839753
1.1837516
1.1834702
1.183238
1.1828977
1.182636
1.1822923
1.1820042
1.1816839
1.1814082
1.1810953
1.180796
1.180498
1.1802033
1.1799127
1.1796267
1.1793458
1.1790702
1.1788002
1.1785362
1.1782786
1.1780273
1.1777828
1.177546
1.1773169
1.1770957
1.1768826
1.1766778
1.1764813
1.1762931
1.1761132
1.1759413
1.1757774
1.1756207
1.1754715
1.1753283
1.175192
1.1750597
1.1749341
1.1748094
1.1746926
1.1745708
1.1744615
1.1743358
1.1742352
1.174095
1.1740093
1.1738366
1.1737816
1.1735434
1.1735558
1.1731931
1.1733384
1.1727466
1.1731456
1.1721572
1.1730193
1.1713415
1.173007
1.1701635
1.1731865
1.1684516
1.173677
1.1675708
1.1690682
1.1729837
1.1777412
1.1800986
1.1805611
1.1804802
1.1805679
1.1806163
1.1807043
1.180719
1.1807539
1.1807527
1.1807646
1.1807473
1.1807347
1.1806997
1.1806664
1.1806123
1.1805618
1.1804839
1.1804199
1.1803225
1.1802296
1.1801091
1.1799822
1.1798318
1.1796769
1.1795093
1.179333
1.1791484
1.1789574
1.1787612
1.1785611
1.1783584
1.1781545
1.1779504
1.1777474
1.1775459
1.1773474
1.177153
1.176963
1.176778
1.1765984
1.1764247
1.176257
1.1760955
1.1759403
1.1757914
1.1756486
1.1755115
1.1753802
1.1752536
1.1751322
1.1750138
1.1749006
1.1747873
1.1746805
1.1745678
1.1744662
1.1743477
1.1742526
1.1741181
1.1740357
1.1738675
1.1738138
1.1735798
1.1735906
1.1732323
1.1733736
1.1727839
1.1731786
1.1721933
1.173049
1.1713779
1.1730338
1.170196
1.1732079
1.1684766
1.1736952
1.1667327
1.1685757
1.1729331
1.1774859
1.17927
1.1796206
1.1795596
1.1795866
1.1795552
1.1795881
1.1795662
1.1795924
1.1795717
1.1795818
1.1795618
1.1795478
1.1795108
1.1794787
1.1794305
1.1793786
1.1793166
1.1792443
1.1791654
1.1790762
1.1789808
1.1788769
1.1787676
1.1786498
1.1785258
1.1783955
1.1782593
1.1781184
1.1779732
1.1778244
1.1776727
1.1775189
1.1773638
1.177208
1.1770518
1.1768968
1.1767435
1.1765924
1.176444
1.1762989
1.1761574
1.1760198
1.1758865
1.1757575
1.1756328
1.1755125
1.1753962
1.1752841
1.175175
1.1750697
1.174966
1.1748659
1.1747646
1.1746682
1.1745652
1.1744714
1.1743605
1.1742708
1.1741423
1.174063
1.1738998
1.1738465
1.1736175
1.1736256
1.1732725
1.1734077
1.1728268
1.1732104
1.1722371
1.1730767
1.1714188
1.1730565
1.1702321
1.173227
1.1685028
1.173711
1.1642878
1.1663968
1.171121