/*--------------------------------*- C++ -*----------------------------------*\
  =========                 |
  \\      /  F ield         | OpenFOAM: The Open Source CFD Toolbox
   \\    /   O peration     | Website:  https://openfoam.org
    \\  /    A nd           | Version:  6
     \\/     M anipulation  |
\*---------------------------------------------------------------------------*/
FoamFile
{
    version     2.0;
    format      ascii;
    class       volScalarField;
    location    "700";
    object      T;
}
// * * * * * * * * * * * * * * * * * * * * * * * * * * * * * * * * * * * * * //

dimensions      [0 0 0 1 0 0 0];

internalField   nonuniform List<scalar> 
16000
(
297.71817
296.56719
296.97813
296.81826
296.96086
296.93231
297.00161
297.01327
297.05978
297.0861
297.12544
297.15809
297.1957
297.23148
297.26932
297.30698
297.34566
297.38464
297.42423
297.46416
297.50447
297.54502
297.58575
297.62654
297.6673
297.70792
297.74826
297.78821
297.82764
297.86642
297.9044
297.94144
297.97743
298.0122
298.04564
298.07762
298.10802
298.13672
298.16362
298.18862
298.21165
298.23263
298.2515
298.26822
298.28275
298.29507
298.30518
298.31307
298.31877
298.32229
298.32368
298.32297
298.32023
298.31553
298.30893
298.30048
298.29028
298.2784
298.26496
298.25003
298.23372
298.21614
298.19736
298.17759
298.15678
298.13552
298.11322
298.09158
298.06805
298.04788
298.02206
298.00755
297.9751
297.97679
297.9244
297.97165
297.87417
298.01389
297.84013
298.06767
297.74155
296.60111
297.02924
296.86644
297.01426
296.98578
297.05815
297.07154
297.12034
297.14892
297.19035
297.22536
297.26508
297.30318
297.34316
297.38305
297.42385
297.46494
297.50654
297.54843
297.59059
297.63289
297.67523
297.71749
297.75956
297.8013
297.84257
297.88325
297.92318
297.96221
298.00021
298.03702
298.07251
298.10653
298.13896
298.16966
298.19853
298.22545
298.25035
298.27314
298.29375
298.31214
298.32827
298.34211
298.35367
298.36293
298.36993
298.37469
298.37725
298.37765
298.37596
298.37223
298.36655
298.35899
298.34964
298.33857
298.32587
298.31161
298.29591
298.27887
298.26057
298.24112
298.2206
298.19917
298.17688
298.15405
298.13058
298.10725
298.08315
298.06066
298.03588
298.01685
297.98923
297.98045
297.94049
297.96645
297.89336
298.00095
297.86131
298.04581
297.78618
296.66108
297.099
296.93476
297.0868
297.06015
297.13495
297.15101
297.20195
297.2333
297.27693
297.31462
297.35664
297.39728
297.43959
297.48189
297.52494
297.56826
297.61196
297.65586
297.69988
297.74388
297.78776
297.83137
297.87457
297.91721
297.95914
298.00021
298.04025
298.07911
298.11663
298.15266
298.18706
298.21968
298.2504
298.2791
298.30568
298.33004
298.35212
298.37186
298.38923
298.40418
298.41672
298.42686
298.43461
298.44001
298.44311
298.44397
298.44265
298.43923
298.43378
298.4264
298.41717
298.4062
298.39357
298.37938
298.36372
298.34667
298.32835
298.30884
298.28826
298.26668
298.2442
298.22093
298.19698
298.17255
298.14772
298.1229
298.09786
298.07367
298.0488
298.02708
298.00166
297.98729
297.95415
297.96624
297.91006
297.99405
297.87874
298.04373
297.85076
296.74592
297.18815
297.02362
297.17954
297.15527
297.23253
297.25164
297.30487
297.33926
297.38528
297.42585
297.47035
297.51369
297.55846
297.60326
297.64865
297.69423
297.74004
297.78589
297.83169
297.87727
297.9225
297.96722
298.01127
298.05447
298.09666
298.13767
298.17732
298.21544
298.25188
298.28647
298.31908
298.34957
298.37782
298.40373
298.42722
298.44822
298.46667
298.48255
298.49586
298.50659
298.51478
298.52047
298.52371
298.52457
298.52313
298.51948
298.51371
298.50593
298.49624
298.48474
298.47154
298.45676
298.44049
298.42286
298.40394
298.38383
298.36263
298.34045
298.31737
298.29349
298.26888
298.24365
298.2179
298.19179
298.16545
298.13914
298.11292
298.0873
298.06178
298.03818
298.01339
297.99522
297.96681
297.96831
297.92406
297.99051
297.8939
298.04119
297.93485
296.85734
297.29712
297.13373
297.293
297.27214
297.35171
297.3745
297.43015
297.46799
297.51663
297.56037
297.60758
297.65383
297.70125
297.74868
297.79651
297.84441
297.89233
297.9401
297.98757
298.03458
298.08094
298.12648
298.17102
298.21437
298.25633
298.29672
298.33536
298.37207
298.40669
298.43906
298.46906
298.49655
298.52145
298.54366
298.56313
298.57982
298.59372
298.60483
298.61318
298.61883
298.62182
298.62225
298.62021
298.61581
298.60915
298.60035
298.58955
298.57686
298.56242
298.54634
298.52876
298.50978
298.48954
298.46814
298.44569
298.42226
298.39797
298.37291
298.34717
298.32084
298.29398
298.26668
298.23904
298.2112
298.18328
298.15551
298.12802
298.10111
298.07472
298.04972
298.02493
298.00431
297.9787
297.97282
297.93709
297.98929
297.90791
298.04391
298.03984
296.99304
297.42716
297.26646
297.42854
297.41204
297.49387
297.52091
297.57915
297.62079
297.67228
297.71945
297.76958
297.8189
297.86912
297.91927
297.96959
298.0198
298.06977
298.11932
298.16827
298.21642
298.26358
298.30953
298.35407
298.39698
298.43807
298.47714
298.51399
298.54845
298.58036
298.60958
298.63599
298.65949
298.68001
298.6975
298.71193
298.72331
298.73166
298.73705
298.73953
298.73921
298.73618
298.73058
298.72254
298.7122
298.69971
298.68521
298.66887
298.65082
298.63122
298.61021
298.58791
298.56447
298.54
298.51462
298.48844
298.46153
298.434
298.40594
298.37744
298.34856
298.31937
298.28995
298.26038
298.23076
298.20125
298.17201
298.14321
298.11508
298.08771
298.06155
298.03635
298.01396
297.99016
297.97943
297.94946
297.98988
297.9205
298.04878
298.16772
297.14422
297.57985
297.42343
297.58772
297.57652
297.66054
297.69235
297.75336
297.79914
297.85373
297.90455
297.95782
298.01036
298.06349
298.11642
298.16924
298.22168
298.27356
298.32468
298.3748
298.42372
298.47119
298.51699
298.56088
298.60263
298.64203
298.67888
298.71298
298.74417
298.7723
298.79726
298.81894
298.8373
298.85228
298.8639
298.87217
298.87715
298.87891
298.87757
298.87324
298.86606
298.8562
298.84382
298.82909
298.81219
298.79331
298.77262
298.7503
298.72651
298.70142
298.67518
298.64794
298.61982
298.59095
298.56144
298.53141
298.50093
298.47008
298.43896
298.40764
298.37618
298.34464
298.31308
298.28157
298.25021
298.2191
298.18843
298.15835
298.12905
298.10069
298.07356
298.04779
298.02415
298.00112
297.98655
297.96167
297.99198
297.93291
298.05507
298.3195
297.3179
297.75554
297.60514
297.77121
297.76631
297.85261
297.88977
297.95387
298.00418
298.06221
298.11693
298.17359
298.22951
298.28567
298.34139
298.39666
298.45118
298.50473
298.55707
298.60793
298.65707
298.7042
298.74908
298.79145
298.83108
298.86775
298.90126
298.93143
298.95811
298.98118
299.00057
299.01623
299.02813
299.03631
299.04081
299.04172
299.03915
299.03325
299.02417
299.0121
298.99722
298.97976
298.95991
298.93789
298.91391
298.88818
298.86091
298.83229
298.80249
298.77169
298.74005
298.70771
298.67481
298.64146
298.60778
298.57387
298.53979
298.50563
298.47145
298.43733
298.40331
298.36945
298.3358
298.30239
298.26932
298.23668
298.20461
298.1733
298.1429
298.1136
298.08561
298.05921
298.0347
298.01216
297.99493
297.97372
297.99514
297.94508
298.06114
298.49538
297.5159
297.95498
297.81249
297.98005
297.98257
298.07141
298.11457
298.1822
298.23745
298.2993
298.35822
298.4185
298.47794
298.53718
298.59564
298.65319
298.70952
298.76434
298.81738
298.86833
298.91689
298.96278
299.00573
299.04546
299.08174
299.11436
299.14314
299.16793
299.18862
299.20514
299.21747
299.22562
299.22963
299.22961
299.22566
299.21796
299.20669
299.19205
299.17427
299.15359
299.13024
299.1045
299.0766
299.0468
299.01533
298.98243
298.94831
298.91317
298.87721
298.8406
298.8035
298.76604
298.72836
298.69056
298.65274
298.615
298.57739
298.53998
298.50283
298.46599
298.42951
298.39341
298.35774
298.32252
298.28782
298.25373
298.22037
298.1879
298.15649
298.12631
298.09758
298.07055
298.04544
298.02302
298.00397
297.98568
297.99916
297.95712
298.06854
298.69533
297.74057
298.17982
298.04724
298.21609
298.22714
298.31887
298.36866
298.44031
298.5009
298.56697
298.63032
298.69442
298.75741
298.81968
298.88068
298.94017
298.99782
299.05329
299.10623
299.15632
299.20323
299.24666
299.28631
299.32193
299.3533
299.38024
299.40259
299.42028
299.43325
299.44151
299.44509
299.4441
299.43868
299.429
299.41526
299.39771
299.37661
299.35223
299.32487
299.29481
299.26236
299.2278
299.19142
299.1535
299.11428
299.07402
299.03294
298.99124
298.94911
298.90672
298.86422
298.82173
298.77938
298.73725
298.69544
298.65401
298.61302
298.57251
298.53253
298.49312
298.4543
298.41611
298.37855
298.34165
298.30546
298.27003
298.23549
298.20197
298.16966
298.1387
298.10933
298.08174
298.05623
298.03373
298.01356
297.99744
298.00387
297.96896
298.07459
298.91651
297.99361
298.43191
298.3113
298.48136
298.50207
298.59717
298.6542
298.73043
298.79675
298.8674
298.93535
299.00336
299.06981
299.13487
299.19799
299.25884
299.31702
299.37216
299.42386
299.47177
299.51554
299.55486
299.58945
299.6191
299.64361
299.66286
299.67678
299.68536
299.68863
299.68671
299.67973
299.66789
299.65144
299.63064
299.6058
299.57724
299.5453
299.51032
299.47265
299.43263
299.3906
299.34688
299.30178
299.25558
299.20855
299.16092
299.11293
299.06477
299.01661
298.96861
298.9209
298.8736
298.82679
298.78057
298.73499
298.6901
298.64596
298.60257
298.55998
298.5182
298.47725
298.43714
298.39787
298.35947
298.32193
298.28533
298.24975
298.21533
298.18222
298.15061
298.1207
298.09266
298.06688
298.04416
298.02343
298.00886
298.00903
297.98086
298.08116
299.16118
298.27692
298.71323
298.6068
298.77818
298.80973
298.90884
298.97375
299.05516
299.12755
299.20308
299.27568
299.34751
299.41709
299.48442
299.5489
299.61012
299.66764
299.72102
299.76984
299.81373
299.85236
299.88543
299.91272
299.93406
299.94935
299.95855
299.9617
299.95891
299.95033
299.93619
299.91676
299.89235
299.86333
299.83005
299.79293
299.75236
299.70876
299.66253
299.61406
299.56373
299.5119
299.45891
299.40506
299.35065
299.29593
299.24113
299.18647
299.13211
299.07822
299.02492
298.97233
298.92053
298.86961
298.81961
298.77058
298.72255
298.67554
298.62956
298.58462
298.54073
298.49789
298.4561
298.41535
298.37563
298.33696
298.29936
298.26292
298.22775
298.194
298.16187
298.13154
298.10315
298.07721
298.05421
298.03332
298.01982
298.0144
297.99167
298.08624
299.43485
298.59318
299.02649
298.9366
299.10959
299.15314
299.25703
299.3304
299.41753
299.49623
299.57675
299.65382
299.72906
299.80108
299.86973
299.93432
299.99439
300.04945
300.09902
300.14269
300.18011
300.21098
300.23509
300.25229
300.26252
300.26581
300.26226
300.25206
300.23546
300.21278
300.18437
300.15066
300.11209
300.06912
300.02223
299.9719
299.91861
299.86283
299.80499
299.74552
299.68482
299.62324
299.56112
299.49877
299.43644
299.37438
299.3128
299.25188
299.19176
299.13257
299.07442
299.01739
298.96154
298.90691
298.85354
298.80146
298.75066
298.70115
298.65292
298.60597
298.56027
298.51583
298.47262
298.43063
298.38984
298.35025
298.31187
298.27476
298.23902
298.2048
298.17229
298.14165
298.11307
298.08704
298.06374
298.04296
298.03014
298.02017
298.00196
298.09045
299.73969
298.94575
299.3751
299.30419
299.47923
299.5359
299.64541
299.72771
299.82098
299.90599
299.9913
300.07225
300.15002
300.22323
300.29158
300.35433
300.41099
300.461
300.50394
300.53942
300.56717
300.58698
300.59878
300.60256
300.59845
300.58664
300.56743
300.54117
300.50832
300.46935
300.42479
300.3752
300.32114
300.26318
300.20188
300.1378
300.07145
300.00333
299.9339
299.86359
299.79278
299.72182
299.65101
299.58064
299.51094
299.44211
299.37432
299.30772
299.24242
299.17851
299.11607
299.05514
298.99576
298.93793
298.88168
298.827
298.77387
298.72227
298.67217
298.62356
298.5764
298.53067
298.48634
298.44338
298.40178
298.36152
298.32259
298.28503
298.24892
298.2144
298.18166
298.15086
298.12222
298.09618
298.07266
298.05217
298.03932
298.02574
298.01143
298.09358
300.07858
299.33843
299.7629
299.71351
299.89124
299.96207
300.07816
300.16966
300.26918
300.3601
300.44948
300.5331
300.61177
300.68407
300.74962
300.80763
300.8576
300.89903
300.93156
300.95492
300.96899
300.97375
300.96933
300.95595
300.93395
300.90378
300.86596
300.82105
300.76971
300.71258
300.65035
300.58369
300.51329
300.43977
300.36377
300.28586
300.20658
300.12642
300.04583
299.96521
299.88491
299.80524
299.72647
299.64882
299.57249
299.49764
299.42439
299.35284
299.28307
299.21513
299.14905
299.08485
299.02252
298.96207
298.90347
298.84669
298.79169
298.73845
298.68691
298.63702
298.58876
298.54209
298.49695
298.45334
298.4112
298.37052
298.33128
298.2935
298.25724
298.22262
298.18981
298.15898
298.13041
298.10442
298.08079
298.06077
298.04765
298.0313
298.02062
298.09514
300.45476
299.77594
300.19471
300.16938
300.35065
300.43649
300.5601
300.66044
300.76585
300.86158
300.95347
301.03757
301.11441
301.18255
301.24156
301.29069
301.32951
301.35765
301.37494
301.38135
301.37698
301.36212
301.33718
301.30268
301.25925
301.2076
301.1485
301.08275
301.01116
300.93456
300.85375
300.76949
300.68252
300.59351
300.50309
300.41184
300.32027
300.22883
300.13792
300.0479
299.95906
299.87165
299.78588
299.70192
299.6199
299.53994
299.4621
299.38645
299.313
299.24179
299.17279
299.10599
299.04137
298.97889
298.9185
298.86015
298.80379
298.74937
298.69681
298.64607
298.59709
298.54982
298.50421
298.46024
298.41785
298.37701
298.33772
298.29995
298.26376
298.22924
298.19653
298.16582
298.13744
298.11155
298.08795
298.06842
298.05473
298.03684
298.02912
298.09467
300.87149
300.2641
300.67642
300.67772
300.86354
300.9649
301.09716
301.20419
301.31419
301.41255
301.50408
301.58508
301.65583
301.71499
301.76216
301.79676
301.81859
301.82754
301.82378
301.80761
301.77955
301.74023
301.69045
301.63108
301.56305
301.48735
301.40499
301.31694
301.22418
301.12763
301.02815
300.92654
300.82353
300.71978
300.61588
300.51235
300.40963
300.30812
300.20814
300.10995
300.0138
299.91985
299.82824
299.73909
299.65246
299.5684
299.48694
299.40809
299.33184
299.25815
299.18698
299.1183
299.05204
298.98815
298.92655
298.86718
298.80996
298.75482
298.70168
298.65049
298.60117
298.55366
298.50792
298.46388
298.42152
298.3808
298.34169
298.30418
298.26829
298.23407
298.20165
298.17121
298.1431
298.11739
298.09402
298.07494
298.06028
298.04187
298.03659
298.09239
301.33071
300.81143
301.21605
301.24638
301.4368
301.55338
301.69019
301.80451
301.91626
302.01343
302.0998
302.17209
302.23045
302.27379
302.30196
302.31475
302.31237
302.29519
302.26385
302.21916
302.16212
302.09381
302.01542
301.92817
301.83329
301.732
301.62546
301.51478
301.401
301.28504
301.16777
301.04993
300.93221
300.81518
300.69934
300.58512
300.47285
300.36285
300.25533
300.15048
300.04845
299.94933
299.85318
299.76005
299.66995
299.58288
299.49881
299.4177
299.3395
299.26415
299.19158
299.12172
299.05448
298.98978
298.92754
298.86767
298.81008
298.75469
298.70141
298.65016
298.60087
298.55348
298.50792
298.46413
298.42209
298.38173
298.34305
298.30601
298.27063
298.23693
298.20498
298.17499
298.14723
298.12174
298.09877
298.0801
298.0643
298.04606
298.04256
298.08861
301.8463
301.43167
301.82319
301.88522
302.07646
302.205
302.34767
302.46409
302.57194
302.66134
302.73491
302.79009
302.82716
302.84559
302.84574
302.82802
302.79329
302.74258
302.67717
302.59845
302.50793
302.40715
302.29765
302.18093
302.05841
301.93144
301.80125
301.66893
301.53548
301.40177
301.26856
301.13648
301.00609
300.87784
300.7521
300.62918
300.50929
300.39263
300.27933
300.16946
300.0631
299.96025
299.8609
299.76505
299.67265
299.58363
299.49794
299.4155
299.33622
299.26
299.18676
299.1164
299.04881
298.98389
298.92155
298.86169
298.8042
298.74899
298.69597
298.64505
298.59616
298.54921
298.50414
298.46089
298.41942
298.37969
298.34165
298.3053
298.27063
298.23765
298.20638
298.177
298.1497
298.1245
298.10197
298.08356
298.06686
298.04941
298.04714
298.0831
302.42587
302.12601
302.49915
302.58871
302.77952
302.93028
303.06945
303.18031
303.27514
303.34627
303.39601
303.42264
303.42707
303.40963
303.37151
303.31406
303.23894
303.14799
303.04316
302.9264
302.79969
302.66488
302.52375
302.37791
302.22883
302.07782
301.92602
301.77442
301.62386
301.47506
301.32859
301.18493
301.04447
300.90749
300.77423
300.64484
300.51944
300.39809
300.28082
300.16763
300.05849
299.95334
299.85213
299.75478
299.66119
299.57127
299.48491
299.402
299.32244
299.2461
299.17288
299.10264
299.03529
298.9707
298.90877
298.84938
298.79242
298.73781
298.68543
298.6352
298.58703
298.54083
298.49655
298.45412
298.41348
298.37459
298.33742
298.30195
298.26817
298.23607
298.20568
298.17711
298.15044
298.12567
298.10353
298.08522
298.06819
298.05202
298.04972
298.07594
303.07693
302.8961
303.24363
303.37999
303.5888
303.7212
303.848
303.94047
304.00904
304.0477
304.05936
304.04359
304.00242
303.93746
303.85107
303.74564
303.62376
303.48801
303.34089
303.18477
303.02183
302.85406
302.68322
302.51083
302.33822
302.16649
301.99658
301.82923
301.66507
301.50458
301.34811
301.19597
301.04833
300.90533
300.76704
300.63351
300.50471
300.38062
300.26117
300.14628
300.03586
299.92978
299.82795
299.73022
299.63649
299.54661
299.46046
299.37789
299.29879
299.223
299.15041
299.08088
299.0143
298.95053
298.88946
298.83097
298.77495
298.7213
298.66991
298.62069
298.57354
298.52839
298.48517
298.44379
298.40422
298.3664
298.3303
298.29589
298.26317
298.23211
298.20275
298.17517
298.14934
298.12524
298.10365
298.08542
298.06794
298.05214
298.05089
298.0679
303.80835
303.76471
304.12218
304.26282
304.44772
304.56621
304.66555
304.72137
304.74544
304.73355
304.69023
304.61698
304.51742
304.39468
304.25235
304.0938
303.92231
303.74091
303.55234
303.35903
303.16308
302.96627
302.7701
302.57581
302.38438
302.19661
302.01311
301.83434
301.66064
301.49224
301.32929
301.17187
301.02001
300.87368
300.73282
300.59736
300.46719
300.34218
300.2222
300.10712
299.99677
299.891
299.78966
299.69259
299.59964
299.51065
299.42547
299.34396
299.26595
299.19132
299.11992
299.05161
298.98626
298.92375
298.86395
298.80674
298.75201
298.69966
298.64956
298.60164
298.5558
298.51195
298.47002
298.42995
298.39166
298.35511
298.32026
298.28709
298.25557
298.22569
298.19749
298.17102
298.1462
298.12303
298.10225
298.08414
298.06601
298.05023
298.05062
298.05935
304.6424
304.75754
305.07208
305.2091
305.36337
305.44134
305.48713
305.48221
305.43888
305.35657
305.24171
305.09812
304.93103
304.74488
304.5441
304.33259
304.1138
303.8907
303.6658
303.44116
303.21846
302.99901
302.78385
302.57376
302.36932
302.17092
301.97885
301.79324
301.61418
301.44168
301.27567
301.11607
300.96276
300.81559
300.67441
300.53903
300.40929
300.28499
300.16595
300.05198
299.94289
299.8385
299.73862
299.64309
299.55172
299.46436
299.38083
299.30097
299.22464
299.15168
299.08194
299.01529
298.9516
298.89072
298.83255
298.77696
298.72383
298.67306
298.62454
298.57818
298.53388
298.49157
298.45116
298.41259
298.37579
298.3407
298.30729
298.27551
298.24535
298.21679
298.18986
298.16458
298.14087
298.1188
298.09903
298.08136
298.06341
298.04815
298.04753
298.04979
305.57875
305.8282
306.0874
306.19032
306.27915
306.28613
306.24907
306.1576
306.02576
305.85704
305.65991
305.44016
305.204
304.95645
304.70198
304.44419
304.18607
303.92992
303.67758
303.43041
303.1894
302.95527
302.7285
302.50937
302.29804
302.09455
301.89885
301.71084
301.53037
301.35726
301.19131
301.03231
300.88001
300.7342
300.59464
300.46109
300.33333
300.21113
300.09428
299.98255
299.87573
299.77363
299.67605
299.5828
299.49371
299.40859
299.32728
299.24961
299.17543
299.10458
299.03693
298.97233
298.91064
298.85174
298.79551
298.74182
298.69057
298.64165
298.59495
298.55038
298.50786
298.46729
298.4286
298.39172
298.35659
298.32314
298.29134
298.26113
298.23249
298.20541
298.17988
298.15592
298.13343
298.11256
298.09381
298.0767
298.05938
298.04497
298.04293
298.04015
306.59082
306.93222
307.1044
307.13299
307.11799
307.01847
306.86935
306.66991
306.436
306.17471
305.89543
305.60458
305.30802
305.01006
304.71417
304.42286
304.13799
303.86087
303.59235
303.33296
303.083
302.84257
302.61162
302.39005
302.17764
301.97416
301.77933
301.59285
301.41444
301.24378
301.08057
300.92451
300.77532
300.6327
300.49639
300.36611
300.24162
300.12268
300.00904
299.90047
299.79675
299.69769
299.60309
299.51275
299.42649
299.34414
299.26552
299.19048
299.11886
299.05051
298.98529
298.92306
298.86369
298.80706
298.75303
298.70151
298.65238
298.60554
298.56088
298.51831
298.47775
298.43912
298.40234
298.36733
298.33403
298.30239
298.27236
298.24388
298.21692
298.19147
298.16751
298.145
298.1239
298.10437
298.08674
298.07039
298.05411
298.04094
298.03716
298.03048
307.83565
307.99269
308.02593
307.92663
307.76306
307.52646
307.24795
306.93555
306.60427
306.26213
305.91689
305.57351
305.23587
304.90649
304.5871
304.27872
303.98193
303.69695
303.42377
303.16221
302.91199
302.67278
302.44418
302.22577
302.01714
301.81786
301.62752
301.44573
301.2721
301.10626
300.94786
300.79656
300.65206
300.51404
300.38222
300.25632
300.13608
300.02127
299.91163
299.80693
299.70697
299.61154
299.52045
299.43351
299.35054
299.27137
299.19585
299.1238
299.05508
298.98954
298.92705
298.86748
298.8107
298.75658
298.70502
298.65589
298.60911
298.56456
298.52214
298.48178
298.44338
298.40687
298.37216
298.3392
298.30792
298.27825
298.25016
298.22357
298.19847
298.17482
298.15259
298.13175
298.11225
298.09424
298.07789
298.06257
298.04761
298.03573
298.0306
298.02184
308.72956
308.78708
308.62192
308.35649
308.03129
307.66328
307.27497
306.87716
306.48009
306.08938
305.70923
305.3419
304.9888
304.65057
304.32729
304.01873
303.72448
303.44401
303.17674
302.92205
302.67935
302.44803
302.22751
302.01722
301.81663
301.62526
301.44265
301.26836
301.10199
300.94316
300.79151
300.64671
300.50844
300.3764
300.25032
300.12991
300.01495
299.90519
299.80038
299.70032
299.60482
299.51367
299.42669
299.34371
299.26455
299.18905
299.11706
299.04842
298.983
298.92066
298.86126
298.80469
298.75082
298.69953
298.65072
298.60428
298.5601
298.51811
298.47819
298.44027
298.40426
298.37009
298.33769
298.30698
298.27791
298.25041
298.22444
298.19995
298.17689
298.15524
298.13496
298.11599
298.09833
298.08208
298.06728
298.05336
298.0401
298.02984
298.02416
298.01336
308.98892
308.90198
308.56612
308.1684
307.74121
307.30492
306.87212
306.44989
306.04255
305.652
305.27911
304.92389
304.58591
304.26435
303.95847
303.66741
303.39037
303.12656
302.87521
302.63563
302.40716
302.18922
301.98126
301.78279
301.59333
301.41243
301.2397
301.07473
300.91716
300.76665
300.62287
300.48552
300.35431
300.22896
300.1092
299.9948
299.88554
299.78117
299.68152
299.58638
299.49558
299.40893
299.32627
299.24743
299.17225
299.10059
299.03229
298.96722
298.90524
298.84623
298.79006
298.73662
298.68579
298.63747
298.59154
298.54791
298.50649
298.46717
298.42989
298.39454
298.36106
298.32937
298.29941
298.27109
298.24437
298.21919
298.19549
298.17323
298.15237
298.13286
298.11468
298.09777
298.08213
298.06782
298.0548
298.04272
298.03159
298.02271
298.01662
298.00803
307.88438
307.93779
307.60313
307.27466
306.89473
306.51263
306.13123
305.75975
305.40013
305.05411
304.72201
304.40382
304.09924
303.80788
303.52928
303.26294
303.00835
302.76501
302.53242
302.31009
302.09754
301.89431
301.70004
301.51435
301.33687
301.16723
301.0051
300.85013
300.70202
300.56047
300.4252
300.29595
300.17246
300.05449
299.94182
299.83425
299.73154
299.63348
299.53986
299.45051
299.36526
299.28394
299.20639
299.13246
299.06201
298.9949
298.931
298.87017
298.8123
298.75726
298.70495
298.65525
298.60805
298.56326
298.52079
298.48052
298.44238
298.40628
298.37213
298.33987
298.3094
298.28067
298.25361
298.22815
298.20424
298.18181
298.16082
298.14122
298.12297
298.10604
298.09037
298.07595
298.06275
298.05079
298.04002
298.0303
298.02168
298.01468
298.00941
298.00386
304.75242
305.28831
305.42753
305.45429
305.33884
305.16555
304.94874
304.71008
304.45887
304.20267
303.94604
303.69213
303.44302
303.20007
302.96417
302.73584
302.51538
302.3029
302.09841
301.90183
301.71303
301.53181
301.35794
301.19116
301.03122
300.87788
300.73089
300.59003
300.45507
300.32579
300.20199
300.08347
299.97002
299.86148
299.75767
299.65843
299.56355
299.47288
299.38627
299.30358
299.22465
299.14935
299.07754
299.0091
298.9439
298.88183
298.82276
298.76658
298.71318
298.66246
298.61432
298.56866
298.52538
298.4844
298.44561
298.40894
298.37431
298.34164
298.31084
298.28186
298.25461
298.22904
298.20507
298.18266
298.16174
298.14226
298.12418
298.10745
298.09202
298.07786
298.06494
298.05323
298.0427
298.03334
298.02512
298.018
298.012
298.00722
298.00365
298.001
308.01369
308.08693
307.69308
307.00224
306.16236
305.34212
304.62885
304.02757
303.51844
303.08118
302.66898
302.30697
301.98161
301.68494
301.40461
301.14426
300.89929
300.67649
300.46913
300.28168
300.10776
299.95397
299.81179
299.68518
299.56869
299.4661
299.37203
299.28875
299.21064
299.14058
299.07788
299.0202
298.96654
298.91605
298.86819
298.82254
298.77879
298.73673
298.69617
298.65708
298.61935
298.58288
298.54769
298.51372
298.48089
298.44919
298.41858
298.38901
298.36046
298.33289
298.30624
298.28046
298.2555
298.23131
298.20782
298.18501
298.16272
298.14105
298.11968
298.09901
298.07821
298.05852
298.03777
298.01935
297.99785
297.98172
297.95822
297.94633
297.91695
297.91389
297.87887
297.88964
297.83919
297.87549
297.80204
297.87771
297.78298
297.90121
297.80768
297.93902
306.14381
305.48149
304.86549
304.12674
303.30067
302.56758
301.99108
301.57136
301.27147
301.04161
300.85557
300.6966
300.5546
300.42299
300.29618
300.17866
300.06123
299.9571
299.85043
299.75698
299.66139
299.5792
299.49586
299.42375
299.35176
299.28749
299.22369
299.16801
299.1125
299.05978
299.01025
298.96294
298.91712
298.87269
298.8296
298.78781
298.74727
298.70798
298.66985
298.63299
298.59733
298.56279
298.5294
298.49715
298.46595
298.43578
298.40663
298.37846
298.35122
298.32488
298.2994
298.27473
298.2508
298.22758
298.20499
298.18302
298.16151
298.14055
298.11982
298.09973
298.07946
298.0602
298.03989
298.02174
298.00064
297.98459
297.96143
297.94958
297.92069
297.91727
297.88325
297.89301
297.84305
297.87908
297.80578
297.88147
297.78596
297.90704
297.80795
297.94684
300.54862
300.50422
300.00575
299.27277
298.82482
298.74347
298.7829
298.85893
298.94958
299.03934
299.12057
299.19004
299.24707
299.29088
299.32101
299.34526
299.3519
299.35552
299.3327
299.31806
299.28509
299.26215
299.22387
299.19478
299.15531
299.12097
299.08291
299.04828
299.00905
298.96979
298.93105
298.89239
298.85362
298.81515
298.77725
298.74005
298.70364
298.66808
298.6334
298.59976
298.56702
298.53521
298.5044
298.47449
298.44548
298.41738
298.39016
298.36379
298.33824
298.3135
298.28949
298.26621
298.24356
298.22156
298.20007
298.17916
298.15856
298.13852
298.11852
298.09925
298.0795
298.06102
298.04097
298.02363
298.00245
297.98738
297.96369
297.953
297.92282
297.92146
297.88498
297.89765
297.84468
297.88425
297.80733
297.88754
297.78669
297.91308
297.80839
297.95265
302.91434
302.94911
302.42389
301.21632
300.31307
300.06713
299.98786
299.94067
299.90095
299.83937
299.78081
299.72171
299.66589
299.60966
299.58242
299.50935
299.5145
299.41947
299.42404
299.33402
299.33631
299.25153
299.24115
299.16947
299.14132
299.08624
299.06853
299.01207
298.97128
298.93177
298.89255
298.85438
298.81713
298.78075
298.74521
298.71047
298.67653
298.64336
298.61105
298.57956
298.54883
298.51891
298.4898
298.46153
298.43408
298.40745
298.38161
298.35653
298.33221
298.30861
298.28568
298.2634
298.24169
298.22057
298.19989
298.17973
298.1598
298.14038
298.12091
298.10215
298.08277
298.06469
298.04486
298.02784
298.00671
297.99189
297.96808
297.95766
297.92753
297.92608
297.8895
297.90225
297.84952
297.88852
297.8106
297.89154
297.78965
297.91769
297.80999
297.95729
302.11869
301.77561
300.91254
299.72808
299.19034
299.05074
299.07043
299.07934
299.08484
299.08304
299.08617
299.08557
299.08562
299.08277
299.07929
299.07293
299.06563
299.05533
299.04391
299.03424
299.01485
299.00886
298.98834
298.97501
298.95234
298.9315
298.90209
298.87845
298.85217
298.82478
298.79687
298.76853
298.73988
298.71106
298.68222
298.65347
298.62491
298.59663
298.56878
298.54136
298.51438
298.48791
298.46201
298.43669
298.41198
298.38787
298.36438
298.34148
298.31917
298.29744
298.27624
298.25556
298.23533
298.21556
298.19612
298.17709
298.15817
298.13969
298.12103
298.10303
298.08425
298.0668
298.04734
298.03086
298.00986
297.99558
297.97164
297.96174
297.93097
297.93052
297.89226
297.90694
297.85192
297.89332
297.81302
297.89667
297.79122
297.92283
297.81096
297.96203
302.2004
301.87289
300.94424
299.74628
299.10409
298.95845
298.99526
298.99446
298.99226
298.98484
298.98532
298.98133
298.97864
298.97314
298.96771
298.95996
298.95211
298.94202
298.93169
298.91819
298.90622
298.8889
298.87366
298.85495
298.83724
298.81771
298.79938
298.77833
298.7569
298.73503
298.71268
298.68987
298.66671
298.64329
298.61969
298.59599
298.57225
298.54856
298.52503
298.50167
298.47848
298.45557
298.43299
298.41076
298.38893
298.36751
298.34651
298.32593
298.30577
298.28603
298.26667
298.24769
298.22901
298.21067
298.19253
298.17469
298.15684
298.13932
298.12149
298.10425
298.0861
298.06922
298.05019
298.03415
298.01338
297.99944
297.97553
297.96593
297.93514
297.93493
297.89672
297.9114
297.85555
297.8979
297.81589
297.90108
297.79351
297.92762
297.81216
297.96644
301.87684
301.46494
300.42924
299.25605
298.74229
298.65319
298.67872
298.68741
298.70197
298.70517
298.71272
298.71544
298.71993
298.72202
298.72441
298.72488
298.72478
298.72364
298.72152
298.71875
298.71437
298.70992
298.70364
298.69674
298.6882
298.67869
298.66752
298.65568
298.64274
298.62883
298.61407
298.59848
298.58218
298.56524
298.54777
298.52985
298.51157
298.49301
298.47434
298.45553
298.43663
298.41774
298.39893
298.38025
298.36172
298.34339
298.32526
298.30736
298.28968
298.27223
298.25499
298.23796
298.22108
298.20438
298.18773
298.17123
298.15459
298.13816
298.12129
298.1049
298.08747
298.07124
298.05271
298.03714
298.01667
298.00308
297.97925
297.96996
297.93899
297.93922
297.90077
297.91557
297.85824
297.90242
297.81872
297.90549
297.79551
297.93233
297.81328
297.97068
301.74039