/*--------------------------------*- C++ -*----------------------------------*\
  =========                 |
  \\      /  F ield         | OpenFOAM: The Open Source CFD Toolbox
   \\    /   O peration     | Website:  https://openfoam.org
    \\  /    A nd           | Version:  6
     \\/     M anipulation  |
\*---------------------------------------------------------------------------*/
FoamFile
{
    version     2.0;
    format      ascii;
    class       volVectorField;
    location    "700";
    object      U;
}
// * * * * * * * * * * * * * * * * * * * * * * * * * * * * * * * * * * * * * //

dimensions      [0 1 -1 0 0 0 0];

internalField   nonuniform List<vector> 
16000
(
(150.55911 1.2862212e-15 -17.352468)
(158.75517 -1.1476212e-15 -11.31101)
(155.63329 4.4387811e-18 -16.388275)
(157.08108 4.0142189e-18 -12.28951)
(155.87394 0 -15.30187)
(156.28355 -9.1705693e-16 -12.967012)
(155.69175 8.6803643e-16 -14.535413)
(155.73053 0 -13.312915)
(155.36497 -1.8931906e-19 -14.030578)
(155.25101 1.7905964e-19 -13.41522)
(154.97228 3.3920477e-19 -13.685097)
(154.78965 -6.5795416e-16 -13.364595)
(154.54117 6.2375519e-16 -13.416616)
(154.32604 4.9122238e-18 -13.223119)
(154.08443 5.6104438e-16 -13.173265)
(153.85223 -5.3245723e-16 -13.025377)
(153.60868 -1.0117506e-15 -12.926415)
(153.36622 9.5998993e-16 -12.787777)
(153.11828 0 -12.661444)
(152.86916 8.6702408e-16 -12.516821)
(152.61717 -8.2428977e-16 -12.371149)
(152.364 -7.846479e-16 -12.214424)
(152.10961 -7.2653577e-19 -12.052019)
(151.85496 -3.4601668e-19 -11.880835)
(151.60053 6.6475883e-16 -11.702478)
(151.34716 0 -11.51609)
(151.09556 6.1311614e-16 -11.322212)
(150.84655 -5.7400899e-16 -11.120738)
(150.60096 -5.4242394e-19 -10.911995)
(150.35965 -5.1687385e-19 -10.696191)
(150.1235 -5.04784e-16 -10.473703)
(149.8934 4.8051968e-16 -10.24493)
(149.67022 -1.4343291e-17 -10.010372)
(149.45485 -1.2824585e-17 -9.7705871)
(149.24813 8.3471473e-16 -9.5262098)
(149.05089 -1.5931192e-15 -9.2779362)
(148.86392 7.5955591e-16 -9.0265242)
(148.68795 1.1334637e-17 -8.7727827)
(148.52365 1.0819021e-17 -8.5175645)
(148.37165 0 -8.2617562)
(148.23249 -1.231678e-18 -8.0062661)
(148.10663 1.1762711e-18 -7.7520121)
(147.99447 -5.7440675e-16 -7.4999098)
(147.8963 5.5076061e-16 -7.2508592)
(147.81235 5.2430014e-16 -7.0057318)
(147.74277 -5.019267e-16 -6.7653585)
(147.68761 -9.3678723e-19 -6.5305182)
(147.64686 0 -6.3019268)
(147.62042 4.3854316e-16 -6.0802289)
(147.60812 -4.193303e-16 -5.8659885)
(147.60974 0 -5.659685)
(147.62498 0 -5.4617049)
(147.65346 2.295016e-17 -5.2723494)
(147.69474 -1.3721386e-18 -5.0918308)
(147.74838 2.1026349e-17 -4.9202575)
(147.81392 0 -4.7576493)
(147.89083 0 -4.6039451)
(147.97847 0 -4.4590073)
(148.07618 0 -4.3226142)
(148.18321 -3.6042899e-17 -4.1944977)
(148.29894 -3.2521383e-17 -4.0742915)
(148.42248 0 -3.9616777)
(148.55341 2.9915165e-17 -3.8560935)
(148.69018 0 -3.7573652)
(148.8333 -3.0997013e-17 -3.6644484)
(148.97871 -4.2655164e-16 -3.577951)
(149.13046 4.0666624e-16 -3.4952336)
(149.27644 -3.0528429e-18 -3.4198314)
(149.43369 3.7568992e-16 -3.3436244)
(149.56503 -3.8130603e-16 -3.2805309)
(149.73165 0 -3.2028539)
(149.81859 -3.350901e-16 -3.1595866)
(150.02618 6.4572636e-16 -3.0546136)
(149.99572 -3.1165808e-16 -3.0731812)
(150.33415 4.6926155e-18 -2.8664839)
(149.99498 0 -3.1058456)
(150.64196 -1.4022824e-16 -2.499132)
(149.65758 1.7193534e-17 -3.4817229)
(150.84258 1.3151364e-16 -1.6051878)
(149.18263 -3.2073158e-17 -4.6549642)
(150.20533 -1.2963259e-15 -19.030801)
(158.41886 1.1586574e-15 -12.721395)
(155.11443 -4.3802968e-18 -18.035471)
(156.6472 1.0510262e-15 -13.703943)
(155.3594 -1.0016519e-15 -16.875229)
(155.8068 7.310437e-18 -14.39303)
(155.171 0 -16.040141)
(155.21838 0 -14.735432)
(154.82779 7.7981063e-16 -15.477731)
(154.70896 -7.6092175e-16 -14.817007)
(154.41371 6.9905321e-16 -15.082613)
(154.22081 -6.7251391e-16 -14.732681)
(153.959 0 -14.767146)
(153.73203 6.0026884e-16 -14.548806)
(153.47823 -5.7378705e-16 -14.475546)
(153.23417 0 -14.302489)
(152.97915 0 -14.177035)
(152.7255 0 -14.011233)
(152.46698 -9.1926808e-16 -13.856082)
(152.20777 8.8715457e-16 -13.681906)
(151.94645 0 -13.505223)
(151.68471 8.0252342e-16 -13.31658)
(151.42267 -7.5108949e-16 -13.121012)
(151.16135 -7.263824e-16 -12.915699)
(150.9014 3.2059755e-17 -12.702147)
(150.64371 6.3720491e-16 -12.47965)
(150.38911 6.4622086e-16 -12.248767)
(150.13852 -1.2025953e-15 -12.009511)
(149.89285 1.1366815e-15 -11.762289)
(149.65304 -5.2443205e-16 -11.507425)
(149.42001 5.1612908e-16 -11.245413)
(149.19471 -9.8363796e-16 -10.976781)
(148.97805 9.5233463e-16 -10.702165)
(148.77091 -8.8008305e-16 -10.422266)
(148.57414 4.2620337e-16 -10.137867)
(148.38852 0 -9.8498145)
(148.2148 2.4255986e-17 -9.5590165)
(148.05364 -1.155783e-17 -9.2664298)
(147.90562 -7.1733293e-16 -8.9730509)
(147.77125 7.1602276e-16 -8.6799023)
(147.65094 0 -8.3880222)
(147.54502 -6.1421906e-16 -8.0984456)
(147.45371 3.6544088e-17 -7.8121952)
(147.37717 1.1199308e-15 -7.5302636)
(147.31543 -5.3477037e-16 -7.2536025)
(147.26847 -5.1090182e-16 -6.983108)
(147.23617 5.1855443e-16 -6.7196111)
(147.21834 -4.0805213e-16 -6.4638647)
(147.21473 8.3560312e-16 -6.2165385)
(147.22502 -4.2595609e-16 -5.9782082)
(147.24883 0 -5.749354)
(147.28574 0 -5.530354)
(147.33527 -2.3261223e-17 -5.3214842)
(147.39689 -7.1208624e-16 -5.1229326)
(147.47004 6.5998232e-16 -4.9347794)
(147.5542 6.1108518e-16 -4.7569971)
(147.64882 -6.2428944e-20 -4.5894751)
(147.75326 -6.7188379e-16 -4.4320258)
(147.86682 0 -4.2843782)
(147.98877 3.4215926e-17 -4.1461932)
(148.11846 -3.2793653e-17 -4.0170627)
(148.25512 -6.281771e-17 -3.8965571)
(148.39816 -4.5136838e-16 -3.7841353)
(148.54656 9.2996149e-20 -3.6793659)
(148.69995 4.1494308e-16 -3.5814855)
(148.85623 0 -3.4903424)
(149.01608 -4.0720302e-16 -3.4044886)
(149.17382 3.909183e-16 -3.3250443)
(149.3352 -4.6913755e-17 -3.2480195)
(149.48308 3.8296131e-16 -3.1795794)
(149.64388 -6.9278326e-16 -3.1056471)
(149.7612 3.7476287e-16 -3.0527753)
(149.93585 3.2029078e-16 -2.9633708)
(149.97719 -1.2100867e-19 -2.9537635)
(150.22998 -3.2006604e-16 -2.7834342)
(150.03207 2.6847292e-16 -2.9551545)
(150.5147 -2.715352e-16 -2.4497721)
(149.75187 -1.6725756e-17 -3.28955)
(150.70157 1.6051198e-17 -1.6020352)
(149.32665 3.1255814e-17 -4.3715585)
(149.69217 1.3110676e-15 -20.73971)
(157.89636 -8.3594381e-21 -14.191879)
(154.45481 -1.1419618e-15 -19.685529)
(156.06216 1.0576595e-15 -15.188414)
(154.70253 7.9086126e-18 -18.451327)
(155.17355 9.4625661e-16 -15.880506)
(154.50109 -1.8067073e-15 -17.55337)
(154.54841 1.2967022e-17 -16.206089)
(154.13639 8.0811731e-16 -16.938865)
(154.00772 1.1948129e-17 -16.25463)
(153.69694 -7.3649499e-16 -16.496347)
(153.49098 6.8686706e-16 -16.126594)
(153.2156 0 -16.132658)
(152.97517 0 -15.892044)
(152.70862 -5.8659896e-16 -15.788912)
(152.45178 5.5656191e-16 -15.589688)
(152.18485 0 -15.433089)
(151.91963 1.5704647e-17 -15.237432)
(151.65044 -1.4902382e-17 -15.049382)
(151.38128 8.7891462e-16 -14.842164)
(151.11104 4.4933643e-19 -14.630461)
(150.8414 -7.9421905e-16 -14.406019)
(150.5727 7.6809398e-16 -14.173218)
(150.30604 -7.4199786e-16 -13.92972)
(150.0422 -7.285443e-16 -13.676866)
(149.78218 6.9312374e-16 -13.414182)
(149.52693 2.0048102e-17 -13.142257)
(149.27746 3.8124678e-17 -12.861267)
(149.03477 3.6310351e-17 -12.571732)
(148.79987 -5.7035915e-16 -12.274136)
(148.57374 4.9376201e-16 -11.969125)
(148.35735 5.3353593e-16 -11.657397)
(148.15163 -4.7836308e-16 -11.33976)
(147.95745 -4.5616573e-16 -11.017092)
(147.77561 8.6960716e-16 -10.690356)
(147.60686 -8.2916948e-16 -10.360573)
(147.45183 -3.7079561e-16 -10.028823)
(147.31108 7.5406113e-16 -9.6962283)
(147.18507 0 -9.3639387)
(147.07415 -6.8638082e-16 -9.0331152)
(146.97857 6.1386107e-16 -8.7049209)
(146.89846 0 -8.3804985)
(146.83386 -3.7261644e-17 -8.0609608)
(146.78471 0 -7.7473704)
(146.75086 6.7981713e-17 -7.4407319)
(146.73207 0 -7.1419745)
(146.72802 -3.096291e-17 -6.8519451)
(146.73834 4.9139944e-20 -6.5713962)
(146.76257 1.1303289e-16 -6.3009819)
(146.80022 0 -6.0412497)
(146.85078 0 -5.7926397)
(146.91368 0 -5.555481)
(146.98832 0 -5.3299932)
(147.07407 0 -5.116291)
(147.17029 8.6112217e-17 -4.9143968)
(147.27637 4.1150558e-17 -4.7242218)
(147.39172 6.2979212e-16 -4.5455728)
(147.51571 -6.025344e-16 -4.3781892)
(147.6476 -7.2060116e-17 -4.221731)
(147.7867 0 -4.0757829)
(147.93233 6.5965736e-17 -3.9398712)
(148.0838 5.6831721e-16 -3.8134796)
(148.24047 -5.4420711e-16 -3.6960295)
(148.40156 0 -3.5869461)
(148.56642 -5.5475416e-17 -3.4855386)
(148.73375 -1.0627007e-16 -3.3912892)
(148.90297 4.0725174e-16 -3.3032463)
(149.07108 -3.9046986e-16 -3.2213446)
(149.23904 4.6788776e-17 -3.1436386)
(149.39879 -3.5900516e-16 -3.0721427)
(149.56003 9.725423e-20 -3.0004237)
(149.69635 2.8940981e-16 -2.9402838)
(149.85558 0 -2.8628349)
(149.93554 0 -2.832055)
(150.142 1.831586e-17 -2.6959313)
(150.03755 1.7641079e-17 -2.8012396)
(150.4037 2.964971e-17 -2.391668)
(149.80581 -1.1449594e-16 -3.0780949)
(150.58843 1.1407557e-16 -1.5859586)
(149.35838 -6.0389308e-17 -4.1466655)
(149.02517 3.1699602e-17 -22.489125)
(157.19616 9.4419955e-18 -15.690905)
(153.64347 1.1798032e-15 -21.37003)
(155.32499 4.7043404e-19 -16.702814)
(153.8914 -1.0310793e-15 -20.055032)
(154.38533 -9.7172627e-16 -17.395715)
(153.6748 9.2036778e-16 -19.088728)
(153.72052 -1.3587208e-17 -17.700506)
(153.28611 8.372888e-16 -18.417742)
(153.1461 -7.5576282e-16 -17.710603)
(152.81901 -7.3984982e-16 -17.923489)
(152.59885 1.380215e-15 -17.532869)
(152.30922 -6.6475778e-16 -17.506598)
(152.05463 1.9729035e-17 -17.241409)
(151.77491 0 -17.104934)
(151.50503 0 -16.876505)
(151.22618 -5.3987328e-16 -16.685342)
(150.94961 4.965578e-16 -16.456391)
(150.67024 0 -16.231895)
(150.39191 9.5524504e-16 -15.987976)
(150.11383 -9.0771468e-16 -15.737562)
(149.83773 4.4427222e-20 -15.473558)
(149.56413 0 -15.199763)
(149.29424 -4.7392045e-17 -14.914312)
(149.02899 -7.2101908e-16 -14.61844)
(148.7695 6.4293473e-16 -14.311919)
(148.51682 -6.9397322e-16 -13.995415)
(148.27206 5.8274469e-16 -13.669297)
(148.0363 -3.6972758e-17 -13.334239)
(147.81059 -3.5272451e-17 -12.990919)
(147.59596 -5.0363732e-16 -12.640168)
(147.39338 4.7958391e-16 -12.282889)
(147.20374 0 -11.920091)
(147.02789 0 -11.552856)
(146.86654 0 -11.182344)
(146.72032 -5.2799181e-17 -10.809769)
(146.58976 -5.0258372e-17 -10.436393)
(146.47524 8.1531374e-16 -10.063501)
(146.37705 -9.1350844e-17 -9.6923953)
(146.29535 -6.539534e-16 -9.3243678)
(146.23016 4.1568346e-17 -8.9606884)
(146.1814 6.3487418e-16 -8.6025869)
(146.14888 -5.2986009e-16 -8.2512397)
(146.13231 -5.7790844e-16 -7.9077501)
(146.13131 -6.8932198e-17 -7.5731412)
(146.1454 9.8676728e-16 -7.2483402)
(146.17406 -3.7669018e-16 -6.9341727)
(146.2167 -5.9916724e-17 -6.6313537)
(146.27269 4.0060653e-16 -6.3404842)
(146.34137 -5.4647484e-16 -6.0620476)
(146.42207 -4.1741588e-16 -5.7964095)
(146.51407 3.9868026e-16 -5.5438182)
(146.6167 0 -5.3044076)
(146.72922 7.2743023e-16 -5.0782004)
(146.85093 -7.8191814e-16 -4.8651253)
(146.98114 0 -4.6650113)
(147.11923 6.3467107e-16 -4.4775812)
(147.26458 -9.8587627e-16 -4.3024796)
(147.41646 5.0750982e-16 -4.1392889)
(147.57418 5.5448135e-16 -3.9875144)
(147.73709 -1.3270406e-16 -3.8466059)
(147.90456 -5.071986e-16 -3.7159712)
(148.07595 -4.8503671e-16 -3.5949686)
(148.25061 5.8016694e-16 -3.482934)
(148.42787 -4.4401515e-16 -3.3791506)
(148.60675 1.0633634e-16 -3.2829403)
(148.78633 4.0681307e-16 -3.193476)
(148.96464 -3.8937207e-16 -3.11023)
(149.14091 5.5943734e-16 -3.0319885)
(149.31071 0 -2.9590424)
(149.4767 0 -2.8883206)
(149.6261 0 -2.8244691)
(149.78079 0 -2.7533403)
(149.88724 1.5080653e-16 -2.7091269)
(150.06178 -2.8922816e-16 -2.5989395)
(150.02729 3.473338e-16 -2.6517739)
(150.31155 -3.6647933e-16 -2.3224537)
(149.83749 4.9727408e-16 -2.871898)
(150.49288 -3.7325146e-16 -1.5556358)
(149.38314 -1.0003258e-19 -3.8826524)
(148.20696 1.3728342e-15 -24.271799)
(156.3016 5.2634704e-19 -17.219648)
(152.67467 -1.217644e-15 -23.078333)
(154.42651 0 -18.2528)
(152.92005 -1.6410661e-17 -21.676238)
(153.43134 -3.0947453e-17 -18.942743)
(152.6841 0 -20.637884)
(152.72366 -8.5897379e-16 -19.21943)
(152.2673 8.3970809e-16 -19.907562)
(152.11278 -8.2047103e-16 -19.182515)
(151.76904 7.5377094e-16 -19.357598)
(151.53267 -3.8384481e-20 -18.946551)
(151.22818 0 -18.881827)
(150.95826 6.233469e-16 -18.589798)
(150.66491 -6.1035293e-16 -18.415122)
(150.38153 0 -18.15386)
(150.0907 5.5058945e-16 -17.923611)
(149.80299 -5.554328e-16 -17.657106)
(149.51403 4.9694682e-16 -17.391618)
(149.22747 4.4301715e-16 -17.106452)
(148.94289 -8.6940494e-16 -16.812708)
(148.66205 -2.6649259e-17 -16.504505)
(148.38572 5.0788178e-17 -16.185102)
(148.1152 -9.6381103e-20 -15.853136)
(147.85159 0 -15.509784)
(147.59612 -8.7259327e-20 -15.155101)
(147.34995 0 -14.789881)
(147.11427 3.9616202e-17 -14.414726)
(146.89021 0 -14.030511)
(146.67886 3.5838739e-17 -13.638149)
(146.48125 0 -13.238698)
(146.29831 0 -12.833301)
(146.13087 6.203739e-17 -12.423197)
(145.97967 0 -12.009699)
(145.8453 -4.5007921e-16 -11.594181)
(145.72823 4.8230812e-16 -11.178061)
(145.62879 0 -10.762782)
(145.54716 -4.8649877e-17 -10.349793)
(145.48338 -6.4984466e-16 -9.94053)
(145.43737 6.1939675e-16 -9.5363967)
(145.40889 -6.7494536e-16 -9.1387444)
(145.3976 7.2402244e-16 -8.7488569)
(145.40304 -7.6716684e-16 -8.3679361)
(145.42465 5.8531983e-16 -7.9970861)
(145.4618 -1.3966296e-16 -7.6373044)
(145.51378 6.6541176e-17 -7.2894721)
(145.57983 -1.2697066e-16 -6.9543482)
(145.65916 1.2126755e-16 -6.6325658)
(145.75096 -4.6262295e-16 -6.3246306)
(145.85439 9.9337166e-16 -6.0309206)
(145.96863 -5.4450563e-20 -5.7516897)
(146.09287 -5.0285695e-16 -5.4870706)
(146.22631 1.9205256e-16 -5.2370801)
(146.36817 0 -5.001626)
(146.51768 0 -4.7805154)
(146.67411 0 -4.5734744)
(146.83681 -6.3834928e-16 -4.3801288)
(147.00517 4.5745689e-16 -4.2000204)
(147.1785 1.4560648e-16 -4.0326383)
(147.35614 -1.3916287e-16 -3.8774071)
(147.53746 1.3292072e-16 -3.7336953)
(147.72188 -7.6220154e-16 -3.6008367)
(147.90882 9.7126475e-16 -3.478123)
(148.09771 -1.0443527e-15 -3.3648185)
(148.28793 9.9830204e-16 -3.2601564)
(148.47869 -2.1223073e-16 -3.1633679)
(148.66902 -6.0845095e-16 -3.073631)
(148.85741 0 -2.9902161)
(149.04249 -1.8546372e-16 -2.9121561)
(149.22135 1.7744692e-16 -2.8390117)
(149.3936 0 -2.7691363)
(149.55284 0 -2.7037354)
(149.70751 -1.5553142e-16 -2.6365964)
(149.831 -2.9784788e-16 -2.5829671)
(149.98711 -2.8517722e-16 -2.492749)
(150.00254 6.836457e-17 -2.5036306)
(150.22736 -6.5533223e-17 -2.2402654)
(149.84928 2.5162711e-16 -2.6670454)
(150.40377 -6.0152053e-17 -1.5162756)
(149.37381 2.2728206e-16 -3.6359613)
(147.22727 1.3711303e-15 -26.085381)
(155.22373 -1.250906e-15 -18.77988)
(151.53497 1.8743502e-17 -24.81134)
(153.35312 0 -19.837563)
(151.77537 1.6668994e-17 -23.313097)
(152.29877 1.038887e-15 -20.518551)
(151.51633 -9.2426807e-16 -22.197059)
(151.54559 -5.6427977e-17 -20.757385)
(151.06781 0 -21.402731)
(150.89608 -8.1037874e-16 -20.662872)
(150.53548 7.1609236e-17 -20.791136)
(150.28136 2.2317821e-17 -20.35842)
(149.9616 6.4724257e-16 -20.248873)
(149.67568 0 -19.926392)
(149.36856 6.2209334e-16 -19.708153)
(149.07172 -1.1438751e-15 -19.409362)
(148.76938 1.1213098e-15 -19.134855)
(148.47134 -4.9912465e-16 -18.825647)
(148.174 0 -18.513927)
(147.88085 3.0018372e-17 -18.182208)
(147.59188 -9.1419707e-16 -17.839853)
(147.30891 1.7376828e-15 -17.482177)
(147.03293 -1.7038296e-15 -17.111993)
(146.76539 8.8365241e-16 -16.728452)
(146.50752 -7.4747289e-16 -16.332749)
(146.26067 7.1061392e-16 -15.925262)
(146.0261 0 -15.506972)
(145.80504 -6.0342159e-16 -15.078764)
(145.59866 6.1243434e-16 -14.641765)
(145.40804 7.2969451e-17 -14.197167)
(145.23414 6.9463114e-17 -13.746299)
(145.0778 -5.94695e-16 -13.290573)
(144.93974 9.4358062e-16 -12.83149)
(144.82052 1.3421145e-19 -12.370604)
(144.72052 -9.1283203e-16 -11.909516)
(144.64 5.4350013e-16 -11.449843)
(144.57902 0 -10.9932)
(144.53748 3.9461537e-16 -10.541178)
(144.51513 -4.7003653e-16 -10.095319)
(144.51159 0 -9.657101)
(144.5263 -6.8294568e-16 -9.2279161)
(144.55863 8.1534833e-17 -8.8090548)
(144.60782 5.4277669e-16 -8.4016939)
(144.67303 0 -8.0068865)
(144.75335 1.4091641e-16 -7.6255518)
(144.84782 6.7227734e-16 -7.2584727)
(144.95548 -5.1286148e-16 -6.9062919)
(145.07533 1.2112989e-19 -6.5695123)
(145.20637 -4.664455e-16 -6.2485002)
(145.34764 8.8992014e-16 -5.9434885)
(145.49819 -8.0107318e-20 -5.6545831)
(145.6571 -1.0123885e-16 -5.3817691)
(145.82351 -1.9311315e-16 -5.1249196)
(145.99659 1.8437992e-16 -4.8838036)
(146.17555 1.759346e-16 -4.6580949)
(146.35965 6.7130322e-16 -4.4473923)
(146.54821 -6.4087846e-16 -4.2512137)
(146.74067 0 -4.0690005)
(146.93639 0 -3.9001374)
(147.13474 1.3933786e-16 -3.7439669)
(147.33515 5.3215872e-16 -3.5997775)
(147.53709 -2.5420322e-16 -3.4668309)
(147.74005 -4.8518971e-16 -3.3443553)
(147.94354 -2.3159511e-16 -3.2315532)
(148.14703 2.2131757e-16 -3.1276063)
(148.34983 4.2268148e-16 -3.0316839)
(148.55109 8.0741063e-16 -2.9429352)
(148.74952 -3.857313e-16 -2.860531)
(148.94361 3.6839941e-16 -2.7835604)
(149.13108 -7.041494e-16 -2.7112869)
(149.31035 -3.3636284e-16 -2.6425657)
(149.47775 3.2157976e-16 -2.5771135)
(149.63534 1.5366031e-16 -2.5124614)
(149.77105 1.4691824e-16 -2.4533002)
(149.91507 -2.8098142e-16 -2.3769371)
(149.96637 1.344126e-16 -2.3561823)
(150.14797 1.2859574e-16 -2.1487924)
(149.85116 -4.9277511e-16 -2.4652308)
(150.32315 2.9445658e-16 -1.4666992)
(149.35086 0 -3.3805547)
(146.06882 2.2090303e-17 -27.930394)
(154.02623 -1.2330574e-15 -20.371546)
(150.21279 3.7597932e-17 -26.558618)
(152.09204 1.1432887e-15 -21.449224)
(150.44583 -1.0861562e-15 -24.954195)
(150.97506 1.056592e-15 -22.114433)
(150.15965 -6.0682131e-17 -23.755708)
(150.17393 2.8681327e-17 -22.30447)
(149.67548 0 -22.892793)
(149.48366 8.2474055e-16 -22.140717)
(149.10602 -8.7901423e-16 -22.212987)
(148.83263 0 -21.756457)
(148.49728 7.4690218e-16 -21.595422)
(148.19481 -6.665723e-16 -21.237933)
(147.874 6.3296658e-16 -20.970223)
(147.56407 -6.3796786e-16 -20.628297)
(147.25105 4.9909665e-16 -20.303629)
(146.94397 -1.0832347e-15 -19.945693)
(146.64008 5.1432482e-16 -19.581704)
(146.34272 -4.8894803e-16 -19.197305)
(146.05229 5.2249953e-16 -18.800297)
(145.77072 -5.5261332e-17 -18.387156)
(145.49923 -5.2531022e-17 -17.96038)
(145.23939 -4.9815516e-17 -17.519653)
(144.99259 0 -17.066286)
(144.76025 4.5049634e-17 -16.601027)
(144.5437 6.8653976e-16 -16.12512)
(144.34419 -7.34325e-16 -15.639788)
(144.16284 5.4357785e-16 -15.146467)
(144.00065 -1.4756998e-16 -14.646676)
(143.85847 -6.3263939e-16 -14.142051)
(143.73698 -1.5234769e-19 -13.634303)
(143.63666 -5.0963414e-16 -13.125207)
(143.55783 4.8503206e-16 -12.616569)
(143.50059 1.1558391e-16 -12.110204)
(143.46487 -1.0982991e-16 -11.607911)
(143.45041 0 -11.111449)
(143.45676 -3.9880469e-16 -10.622506)
(143.4833 4.7470554e-16 -10.142687)
(143.5293 -7.2362296e-16 -9.6734868)
(143.59387 8.6185759e-16 -9.2162801)
(143.67602 -1.6407912e-16 -8.7723015)
(143.77468 7.8213136e-16 -8.3426402)
(143.88871 -1.3419046e-15 -7.9282343)
(144.01696 -1.4209173e-16 -7.5298645)
(144.15821 4.063856e-16 -7.148157)
(144.31129 0 -6.7835846)
(144.47503 1.2323512e-16 -6.4364714)
(144.64828 0 -6.1070005)
(144.82996 -2.2377743e-16 -5.7952211)
(145.01904 0 -5.5010585)
(145.21453 -4.0672248e-16 -5.2243234)
(145.41552 1.9398854e-16 -4.9647226)
(145.62119 -3.6986371e-16 -4.7218691)
(145.83073 -1.7631609e-16 -4.4952927)
(146.04343 0 -4.2844527)
(146.25863 0 -4.0887544)
(146.4758 0 -3.9075343)
(146.69439 -5.8393946e-16 -3.7400774)
(146.91383 2.7880717e-16 -3.5856414)
(147.13361 1.6275659e-19 -3.4434416)
(147.35327 5.0725816e-16 -3.3126717)
(147.57238 0 -3.1925034)
(147.79053 6.9249899e-16 -3.0820872)
(148.00727 -6.6090171e-16 -2.9805594)
(148.22205 -2.1005301e-16 -2.8870446)
(148.43411 -2.0044636e-16 -2.8006578)
(148.64235 7.6570362e-16 -2.7205137)
(148.84529 -3.6543148e-16 -2.645696)
(149.04092 -5.2297463e-16 -2.5753447)
(149.22727 2.1573934e-19 -2.5084291)
(149.40169 2.0914704e-19 -2.444165)
(149.56333 1.5165704e-15 -2.3814317)
(149.70764 -5.7928607e-16 -2.3196551)
(149.84536 5.5301901e-16 -2.2523026)
(149.92235 0 -2.208685)
(150.07043 5.044708e-16 -2.0483931)
(149.84296 -4.8271656e-16 -2.2670784)
(150.24295 0 -1.4077273)
(149.31435 2.1397788e-16 -3.1333885)
(144.72093 1.41111e-15 -29.805655)
(152.65469 -2.5880837e-15 -21.987426)
(148.70241 -3.9337232e-17 -28.311213)
(150.63533 -7.0580357e-19 -23.082509)
(148.9234 1.1034778e-15 -26.591676)
(149.4507 -1.0425024e-15 -23.72321)
(148.60418 2.0050533e-15 -25.305689)
(148.59797 -9.3389058e-16 -23.85168)
(148.07908 0 -24.368515)
(147.8639 0 -23.605242)
(147.46867 9.9332057e-17 -23.61212)
(147.17437 -7.5354711e-16 -23.128008)
(146.82299 7.5886392e-16 -22.908252)
(146.5036 0 -22.509749)
(146.16941 0 -22.185779)
(145.84717 6.1042739e-16 -21.793838)
(145.52488 -5.0677049e-16 -21.412073)
(145.21083 0 -20.998252)
(144.90309 5.224711e-16 -20.574945)
(144.60496 -4.9595178e-16 -20.130761)
(144.31721 -5.8833884e-17 -19.672189)
(144.04191 5.5900319e-17 -19.196825)
(143.78049 5.3121254e-17 -18.707011)
(143.53464 0 -18.203001)
(143.30586 0 -17.686331)
(143.09561 0 -17.158178)
(142.90521 0 -16.620136)
(142.73585 0 -16.07382)
(142.58855 7.0705836e-16 -15.521035)
(142.46412 -5.2304813e-16 -14.963661)
(142.36319 0 -14.403675)
(142.28615 6.0856241e-16 -13.843097)
(142.2332 9.3796099e-20 -13.283975)
(142.20426 6.8439592e-20 -12.728348)
(142.19908 -9.3192341e-16 -12.178215)
(142.21716 4.4359444e-16 -11.635513)
(142.25783 5.2793195e-16 -11.102088)
(142.32022 -4.019762e-16 -10.579664)
(142.40332 -3.8269228e-16 -10.069835)
(142.50597 -3.6434491e-16 -9.574041)
(142.62691 -1.7327537e-16 -9.0935568)
(142.7648 6.6098322e-16 -8.6294867)
(142.91826 -1.5749012e-16 -8.1827569)
(143.08587 -4.4974903e-16 -7.7541184)
(143.2662 1.4284452e-16 -7.3441481)
(143.45785 6.8037537e-16 -6.9532546)
(143.65946 -2.5938104e-16 -6.5816874)
(143.86972 2.4706774e-16 -6.2295454)
(144.08739 -2.3534096e-16 -5.8967891)
(144.31129 2.2421187e-16 -5.5832519)
(144.54035 0 -5.2886524)
(144.77357 -1.4861141e-19 -5.0126071)
(145.01004 -1.9411871e-16 -4.754642)
(145.24894 1.8502864e-16 -4.5142046)
(145.48952 -3.5293683e-16 -4.2906749)
(145.73112 0 -4.0833746)
(145.97313 -3.2067462e-16 -3.8915917)
(146.21507 3.0548004e-16 -3.7145586)
(146.45649 -1.1655983e-15 -3.5514749)
(146.69691 5.5583398e-16 -3.4015135)
(146.9359 5.2966667e-16 -3.2638264)
(147.17308 -2.5258972e-16 -3.1375477)
(147.40809 4.8147278e-16 -3.0218023)
(147.64062 -9.1824623e-16 -2.9156995)
(147.87031 -4.3763659e-16 -2.8183411)
(148.09674 8.3479657e-16 -2.7288199)
(148.31926 9.9643856e-20 -2.6462229)
(148.53691 3.7942408e-16 -2.5696302)
(148.74834 3.6171504e-16 -2.4981085)
(148.95168 0 -2.4307337)
(149.14488 9.8612761e-16 -2.3664697)
(149.32555 -1.8810735e-15 -2.3044396)
(149.49178 1.0418667e-19 -2.2436945)
(149.64215 8.5506324e-16 -2.181917)
(149.77686 -1.3591206e-15 -2.120234)
(149.87273 2.2133594e-19 -2.0608398)
(149.9946 2.4735319e-16 -1.9385933)
(149.82788 -4.7197481e-16 -2.0724093)
(150.16512 1.1257594e-15 -1.3435473)
(149.27817 -2.0780461e-16 -2.8876993)
(143.17493 0 -31.708359)
(151.08132 -1.3165912e-15 -23.624411)
(146.99194 1.2595461e-15 -30.067432)
(148.9699 3.7021582e-17 -24.735324)
(147.19498 1.1570553e-15 -28.221351)
(147.71141 -3.2348503e-17 -25.339823)
(146.83551 -1.0028148e-15 -26.840679)
(146.80273 8.903368e-16 -25.390706)
(146.26338 -8.9882811e-16 -25.82103)
(146.02146 -9.0535595e-16 -25.045167)
(145.60799 -3.9587788e-19 -24.976623)
(145.29135 7.6474316e-16 -24.458958)
(144.92372 1.3784949e-19 -24.172235)
(144.58753 -6.880845e-16 -23.724866)
(144.24085 6.5224439e-16 -23.336561)
(143.90792 7.7513467e-17 -22.886148)
(143.57876 6.6120533e-16 -22.439034)
(143.26096 -5.5739671e-16 -21.960825)
(142.95345 -5.2948146e-16 -21.469961)
(142.65948 4.3948307e-16 -20.957807)
(142.38024 -4.7738364e-16 -20.429837)
(142.11788 4.5313608e-16 -19.884745)
(141.87405 -4.3065991e-16 -19.324891)
(141.65048 3.0649463e-16 -18.751157)
(141.44873 0 -18.165423)
(141.27022 7.3873411e-16 -17.569367)
(141.11616 -7.0178944e-16 -16.96501)
(140.98757 -6.6726714e-16 -16.354417)
(140.88522 -1.7888449e-19 -15.739806)
(140.80965 6.0285297e-16 -15.123446)
(140.7611 5.733179e-16 -14.507654)
(140.73958 -5.4508818e-16 -13.894751)
(140.74482 1.2977633e-16 -13.287023)
(140.77628 -4.9310729e-16 -12.686695)
(140.83322 8.2097394e-16 -12.095887)
(140.91465 -4.4624554e-16 -11.516597)
(141.01938 -7.4310843e-16 -10.95067)
(141.1461 4.0403564e-16 -10.399776)
(141.29331 0 -9.8654042)
(141.45945 -1.8313269e-16 -9.3488389)
(141.64288 -6.9657599e-16 -8.8511658)
(141.8419 6.6327497e-16 -8.3732668)
(142.05484 7.8904239e-16 -7.9158234)
(142.28002 -7.5166415e-16 -7.479324)
(142.51582 -2.8595955e-16 -7.0640741)
(142.76065 6.8176678e-16 -6.6702083)
(143.01305 2.5945411e-16 -6.2977043)
(143.2716 2.473672e-16 -5.9463966)
(143.53501 2.3552399e-16 -5.6159922)
(143.8021 -1.6993618e-19 -5.3060853)
(144.07178 -6.4124027e-16 -5.0161722)
(144.34309 6.1055838e-16 -4.7456648)
(144.61515 3.8764129e-16 -4.4939039)
(144.88722 -7.391724e-16 -4.2601707)
(145.15862 3.5193647e-16 -4.0436983)
(145.42877 -6.7064281e-16 -3.8436797)
(145.69716 1.597567e-15 -3.6592866)
(145.96337 -3.046244e-16 -3.489661)
(146.22708 -2.9013059e-16 -3.3339276)
(146.48791 -2.7634534e-16 -3.1911847)
(146.7455 0 -3.060532)
(146.99959 -7.5277774e-16 -2.9410572)
(147.2499 -4.7790358e-16 -2.8318502)
(147.49621 1.3666716e-15 -2.7319922)
(147.73825 4.3389941e-16 -2.6405626)
(147.97571 -4.1339779e-16 -2.5566356)
(148.20809 -1.5752804e-15 -2.4792805)
(148.43456 -3.7495523e-16 -2.4075579)
(148.65388 3.5753399e-16 -2.340522)
(148.86434 0 -2.2772062)
(149.06391 9.7261041e-16 -2.2165676)
(149.25015 -6.1779534e-16 -2.1577405)
(149.42099 8.8253805e-16 -2.0994831)
(149.57564 -8.4048499e-16 -2.0396444)
(149.70956 1.8404997e-19 -1.9815948)
(149.81828 5.0856342e-16 -1.9129761)
(149.9202 2.4213159e-16 -1.820371)
(149.80742 0 -1.8826437)
(150.08707 -2.1967186e-16 -1.2759026)
(149.23941 0 -2.6471363)
(141.41587 -1.475461e-15 -33.637096)
(149.29263 -4.181902e-17 -25.281051)
(145.06403 -4.0056944e-17 -31.823062)
(147.07715 -3.7549668e-17 -26.403989)
(145.24255 -3.5559608e-17 -29.836689)
(145.73828 -1.0773812e-15 -26.956881)
(144.83485 1.0824355e-15 -28.352042)
(144.76931 6.01948e-17 -26.910415)
(144.20941 9.7042412e-16 -27.238704)
(143.93769 -7.562176e-16 -26.445996)
(143.50551 -1.0238818e-16 -26.291218)
(143.16571 8.2494702e-16 -25.731531)
(142.78223 -7.8113681e-16 -25.368306)
(142.43028 0 -24.86215)
(142.0731 0 -24.399894)
(141.73243 -7.0546116e-16 -23.880811)
(141.40031 4.4582046e-16 -23.358592)
(141.08375 0 -22.806056)
(140.78249 -6.0258169e-16 -22.238159)
(140.49979 1.0158921e-15 -21.648792)
(140.23718 2.7590376e-19 -21.042768)
(139.99689 -8.0084543e-16 -20.419867)
(139.78067 4.3447254e-16 -19.782674)
(139.59026 -7.2246289e-16 -19.132757)
(139.42712 8.816805e-16 -18.472473)
(139.29251 -9.3201192e-17 -17.80407)
(139.18739 0 -17.130065)
(139.11246 0 -16.453015)
(139.06807 4.7839166e-16 -15.775566)
(139.0543 8.5862259e-20 -15.100369)
(139.07088 1.443171e-16 -14.430053)
(139.11724 -1.0953413e-15 -13.767182)
(139.19255 5.2093785e-16 -13.114211)
(139.29568 -4.9491195e-16 -12.473453)
(139.42527 5.8839622e-16 -11.84705)
(139.57977 -4.4745529e-16 -11.236944)
(139.75745 6.382024e-16 -10.644862)
(139.95646 0 -10.0723)
(140.17487 0 -9.5205189)
(140.41068 3.6635722e-16 -8.990539)
(140.66189 -1.7443243e-16 -8.4831511)
(140.92652 -8.2927832e-16 -7.9989194)
(141.20262 -1.5770952e-16 -7.5381954)
(141.48833 1.0518206e-15 -7.1011343)
(141.78187 2.86051e-16 -6.6877106)
(142.08158 -1.0890994e-15 -6.2977364)
(142.38592 0 -5.93088)
(142.69347 -7.4003875e-16 -5.5866849)
(143.00293 4.6998517e-16 -5.2645864)
(143.31318 2.2378482e-16 -4.9639297)
(143.62318 4.257635e-16 -4.6839852)
(143.93206 -8.1131964e-16 -4.4239623)
(144.23902 7.7237745e-16 -4.1830226)
(144.54343 -1.1037822e-15 -3.960291)
(144.84472 3.5035968e-16 -3.7548654)
(145.14241 3.3362063e-16 -3.5658241)
(145.43613 0 -3.3922384)
(145.72556 0 -3.2331744)
(146.01049 5.7605483e-16 -3.0876925)
(146.29066 5.4846529e-16 -2.954838)
(146.56583 -5.2265126e-16 -2.8336703)
(146.83583 4.9714825e-16 -2.7232469)
(147.10048 -4.7359417e-16 -2.6226364)
(147.35964 4.5071874e-16 -2.5309067)
(147.61314 -1.2880234e-15 -2.4471283)
(147.86078 -8.1722983e-16 -2.3703698)
(148.10218 1.1672087e-15 -2.2996944)
(148.33666 3.7026796e-16 -2.2341578)
(148.56311 0 -2.1728083)
(148.77998 6.7073232e-16 -2.1146543)
(148.98524 -6.3852299e-16 -2.0586781)
(149.17646 0 -2.0039929)
(149.35162 -5.7818563e-16 -1.9490584)
(149.50929 -5.5016884e-16 -1.8926592)
(149.64394 0 -1.8371806)
(149.76075 0 -1.7651596)
(149.84799 0 -1.6949175)
(149.78309 -4.5125337e-16 -1.698942)
(150.01318 0 -1.2056544)
(149.20878 -7.7519289e-16 -2.4090424)
(139.42401 -4.6900966e-17 -35.589777)
(147.26712 0 -26.953773)
(142.89847 -1.2611318e-15 -33.571323)
(144.93544 1.2614861e-15 -28.082418)
(143.04501 0 -31.428622)
(143.50937 -1.0949321e-15 -28.563822)
(142.58025 9.6984943e-16 -29.828203)
(142.47576 0 -28.396034)
(141.89519 8.6895337e-16 -28.606274)
(141.5911 -9.3140616e-16 -27.78912)
(141.14014 5.1805878e-17 -27.536236)
(140.77726 7.3764922e-16 -26.923243)
(140.37934 -9.2731545e-17 -26.472326)
(140.01407 -6.171174e-16 -25.895144)
(139.65001 5.8530889e-16 -25.347491)
(139.30649 7.986752e-17 -24.747621)
(138.97756 -5.25771e-16 -24.138895)
(138.66973 0 -23.500629)
(138.38348 6.741813e-17 -22.845025)
(138.12206 1.9231452e-16 -22.168311)
(137.88727 -1.2176416e-16 -21.475005)
(137.68132 -2.3058201e-16 -20.766004)
(137.50595 0 -20.044322)
(137.36272 1.0398437e-16 -19.3123)
(137.25284 -9.8328478e-17 -18.572877)
(137.1772 9.3332534e-17 -17.828928)
(137.13632 0 -17.083509)
(137.13033 -1.6879722e-16 -16.339665)
(137.15901 -4.8029181e-16 -15.600446)
(137.22175 4.55625e-16 -14.868822)
(137.31759 -1.4413042e-16 -14.147652)
(137.44525 0 -13.439628)
(137.60316 3.9092299e-16 -12.747247)
(137.7895 -6.1911404e-16 -12.072772)
(138.00225 1.1805079e-16 -11.418211)
(138.23923 -2.2387876e-16 -10.785299)