/*--------------------------------*- C++ -*----------------------------------*\
| =========                 |                                                 |
| \\      /  F ield         | OpenFOAM: The Open Source CFD Toolbox           |
|  \\    /   O peration     | Version:  2.4.0                                 |
|   \\  /    A nd           | Web:      www.OpenFOAM.org                      |
|    \\/     M anipulation  |                                                 |
\*---------------------------------------------------------------------------*/
FoamFile
{
    version     2.0;
    format      ascii;
    class       volVectorField;
    location    "10000";
    object      U;
}
// * * * * * * * * * * * * * * * * * * * * * * * * * * * * * * * * * * * * * //

dimensions      [0 1 -1 0 0 0 0];

internalField   nonuniform List<vector> 
18579
(
(1.00027 -0.0016219 0)
(1.00022 -0.00189589 0)
(1.00018 -0.00218758 0)
(1.00015 -0.00242859 7.6849e-24)
(1.00012 -0.00264157 -2.17283e-24)
(1.0001 -0.00283734 -2.60591e-24)
(1.00009 -0.0030196 -2.98899e-24)
(1.00008 -0.00319074 8.29075e-26)
(1.00007 -0.00335377 0)
(1.00006 -0.00351158 0)
(1.00006 -0.00366637 0)
(1.00006 -0.00382045 -1.87648e-23)
(1.00006 -0.00397582 -4.29417e-24)
(1.00006 -0.00413419 -4.45294e-24)
(1.00006 -0.00429704 2.75122e-23)
(1.00006 -0.00446611 3.69072e-23)
(1.00006 -0.00464271 -7.87653e-23)
(1.00006 -0.00482793 -5.13208e-24)
(1.00007 -0.00502367 -5.32663e-24)
(1.00007 -0.00523073 1.02827e-22)
(1.00008 -0.00545041 -5.78488e-23)
(1.00008 -0.00568458 6.9607e-23)
(1.00009 -0.00593395 -5.99763e-23)
(1.0001 -0.00620026 0)
(1.0001 -0.00648494 0)
(1.00011 -0.00678949 0)
(1.00012 -0.00711558 -1.32253e-23)
(1.00013 -0.00746471 2.24182e-22)
(1.00014 -0.00783915 -3.44718e-22)
(1.00015 -0.00824007 1.20537e-22)
(1.00016 -0.00867018 2.77922e-22)
(1.00018 -0.00913129 -1.28888e-22)
(1.00019 -0.00962533 -1.49029e-22)
(1.00021 -0.0101553 0)
(1.00023 -0.0107231 -3.43511e-22)
(1.00024 -0.0113313 3.66791e-22)
(1.00026 -0.0119829 4.20953e-22)
(1.00029 -0.012681 3.00897e-23)
(1.00031 -0.0134269 -9.34418e-22)
(1.00034 -0.014225 -3.48452e-23)
(1.00036 -0.0150776 -3.75745e-23)
(1.00039 -0.0159877 -4.05866e-23)
(1.00042 -0.0169568 5.96348e-22)
(1.00046 -0.017989 0)
(1.00049 -0.0190845 4.64513e-23)
(1.00053 -0.0202467 0)
(1.00057 -0.0214752 0)
(1.00061 -0.0227707 9.20855e-22)
(1.00065 -0.0241316 -9.20826e-22)
(1.00069 -0.0255565 -6.65242e-23)
(1.00073 -0.0270392 1.15318e-21)
(1.00077 -0.0285755 -1.15312e-21)
(1.0008 -0.0301538 -1.65762e-22)
(1.00083 -0.0317622 -1.44928e-21)
(1.00086 -0.0333865 3.01369e-21)
(1.00087 -0.0350024 -1.56444e-21)
(1.00087 -0.0365856 -1.71095e-21)
(1.00086 -0.0381028 -2.10821e-21)
(1.00082 -0.0395168 4.05868e-21)
(1.00076 -0.0407813 0)
(1.00067 -0.0418426 2.95729e-22)
(1.00054 -0.042646 0)
(1.00038 -0.0431259 3.38256e-22)
(1.00018 -0.0432148 0)
(0.999934 -0.0428466 -6.21343e-21)
(0.99964 -0.0419452 -3.92349e-22)
(0.999303 -0.0404422 7.01367e-21)
(0.998933 -0.0382783 -7.56452e-21)
(0.998542 -0.0354122 7.80277e-21)
(0.998144 -0.0318264 8.49786e-21)
(0.997759 -0.0275307 -8.25269e-21)
(0.997408 -0.02257 -9.04797e-21)
(0.997112 -0.0170258 8.78642e-21)
(0.996891 -0.0110168 0)
(0.996761 -0.00469294 9.15145e-21)
(0.996733 0.00177426 -9.15183e-21)
(0.996807 0.0081997 0)
(0.996979 0.0144039 -8.89573e-21)
(0.997237 0.020223 9.16085e-21)
(0.997561 0.0255197 2.60576e-22)
(0.997931 0.0301914 -8.10604e-21)
(0.998326 0.0341722 8.10437e-21)
(0.998724 0.0374334 4.64026e-22)
(0.999109 0.0399759 -7.00692e-21)
(0.999466 0.0418291 3.92732e-22)
(0.999784 0.0430436 6.41483e-21)
(1.00006 0.0436828 0)
(1.00028 0.0438202 5.09752e-21)
(1.00047 0.0435243 -3.68515e-22)
(1.00061 0.0428632 -1.01098e-20)
(1.00072 0.0419062 4.72511e-21)
(1.0008 0.0407129 -2.03567e-21)
(1.00085 0.0393402 1.49256e-22)
(1.00088 0.0378384 3.51851e-21)
(1.00089 0.03625 -1.74709e-21)
(1.00088 0.0346108 7.48209e-22)
(1.00086 0.0329521 -7.4823e-22)
(1.00084 0.0312986 3.20295e-22)
(1.0008 0.029669 -3.20301e-22)
(1.00076 0.0280765 0)
(1.00072 0.0265341 -1.27103e-22)
(1.00068 0.0250483 1.27107e-22)
(1.00064 0.0236263 0)
(1.0006 0.0222703 1.01295e-22)
(1.00056 0.0209829 -2.03014e-22)
(1.00052 0.0197667 2.60578e-21)
(1.00048 0.0186184 -2.79428e-21)
(1.00045 0.0175358 0)
(1.00041 0.0165165 0)
(1.00038 0.0155598 0)
(1.00035 0.0146631 0)
(1.00033 0.0138239 -1.81167e-21)
(1.0003 0.0130393 1.81174e-21)
(1.00028 0.0123062 0)
(1.00026 0.0116215 -1.49029e-21)
(1.00024 0.0109832 1.00058e-22)
(1.00022 0.0103873 9.34741e-23)
(1.0002 0.00983137 1.27185e-21)
(1.00019 0.0093136 -1.88433e-23)
(1.00017 0.00883078 0)
(1.00016 0.00838056 1.63182e-23)
(1.00015 0.0079605 4.42239e-22)
(1.00014 0.0075677 -4.42264e-22)
(1.00013 0.00720278 2.37114e-23)
(1.00012 0.00686313 -3.57918e-23)
(1.00011 0.00654585 -2.01777e-23)
(1.0001 0.00624972 2.01782e-23)
(1.00009 0.00597297 0)
(1.00009 0.00571393 0)
(1.00008 0.0054712 1.4032e-23)
(1.00008 0.00524343 2.51561e-25)
(1.00007 0.00502986 0)
(1.00007 0.00482842 0)
(1.00006 0.00463729 2.82468e-22)
(1.00006 0.0044548 -2.82459e-22)
(1.00006 0.0042804 0)
(1.00006 0.00411242 0)
(1.00006 0.00394943 0)
(1.00006 0.00378975 0)
(1.00006 0.00363136 0)
(1.00006 0.00347238 2.29215e-23)
(1.00007 0.00331063 -1.38911e-23)
(1.00008 0.00314347 -1.28619e-23)
(1.00009 0.00296812 -1.16123e-23)
(1.00011 0.00278163 1.58492e-23)
(1.00013 0.00258139 0)
(1.00015 0.00236342 0)
(1.00018 0.00211687 -4.57064e-23)
(1.00022 0.00181877 2.70042e-23)
(1.00027 0.00153896 3.14547e-23)
(1.00127 -0.00616577 -1.80306e-23)
(1.00122 -0.00659902 1.02738e-23)
(1.00114 -0.00709043 0)
(1.00106 -0.00753404 0)
(1.00099 -0.00795839 0)
(1.00092 -0.00837525 0)
(1.00087 -0.00878624 4.55446e-25)
(1.00083 -0.00919275 0)
(1.00081 -0.00959689 0)
(1.00079 -0.0100021 0)
(1.00079 -0.0104109 0)
(1.00079 -0.0108265 0)
(1.0008 -0.0112526 3.0186e-23)
(1.00082 -0.0116916 -3.01852e-23)
(1.00085 -0.012147 0)
(1.00089 -0.0126219 -4.00971e-23)
(1.00093 -0.0131189 -5.5756e-24)
(1.00098 -0.0136416 5.12283e-23)
(1.00103 -0.0141931 -7.72035e-24)
(1.0011 -0.0147759 7.71648e-23)
(1.00117 -0.015394 -1.45338e-22)
(1.00124 -0.0160503 -6.88196e-24)
(1.00132 -0.0167481 7.2624e-23)
(1.00141 -0.0174908 1.19969e-23)
(1.00151 -0.0182825 0)
(1.00161 -0.0191266 0)
(1.00173 -0.0200275 1.36661e-22)
(1.00185 -0.020989 -1.06399e-22)
(1.00198 -0.0220153 0)
(1.00212 -0.0231113 0)
(1.00227 -0.0242815 0)
(1.00244 -0.0255308 3.70974e-22)
(1.00261 -0.0268648 -3.49455e-22)
(1.00279 -0.0282877 3.51477e-22)
(1.00299 -0.0298064 -2.10936e-22)
(1.0032 -0.0314251 2.44594e-22)
(1.00343 -0.033151 6.2382e-23)
(1.00366 -0.0349885 -4.91222e-22)
(1.00391 -0.0369434 5.62667e-22)
(1.00418 -0.039022 -5.99478e-22)
(1.00445 -0.0412291 6.44828e-22)
(1.00474 -0.0435694 -1.29312e-21)
(1.00505 -0.0460474 6.90491e-22)
(1.00536 -0.0486653 -8.89322e-22)
(1.00568 -0.0514269 -1.06249e-22)
(1.006 -0.0543324 7.94069e-22)
(1.00632 -0.0573809 -9.76978e-22)
(1.00664 -0.0605678 8.49621e-22)
(1.00695 -0.0638882 0)
(1.00724 -0.0673307 7.04374e-23)
(1.0075 -0.0708818 1.29588e-21)
(1.00772 -0.0745221 -1.46365e-21)
(1.00788 -0.0782247 -4.65978e-24)
(1.00797 -0.0819569 -1.9311e-22)
(1.00796 -0.0856784 0)
(1.00783 -0.0893351 2.21875e-22)
(1.00755 -0.0928656 -2.33383e-21)
(1.0071 -0.0961956 4.09794e-21)
(1.00644 -0.0992354 -4.52417e-21)
(1.00554 -0.101883 2.26864e-21)
(1.00437 -0.10402 -9.34934e-22)
(1.00289 -0.105518 0)
(1.0011 -0.106232 5.51437e-21)
(0.999 -0.106019 -6.62376e-21)
(0.99655 -0.104722 6.39235e-21)
(0.993774 -0.10217 -1.35591e-20)
(0.990698 -0.0982041 6.73699e-21)
(0.987382 -0.0926911 7.6768e-21)
(0.98392 -0.085545 -7.93117e-21)
(0.980439 -0.0767259 -7.6926e-22)
(0.977094 -0.0662537 0)
(0.974055 -0.0542256 -8.52914e-21)
(0.971502 -0.0408245 -1.68806e-22)
(0.969602 -0.0263228 9.27323e-21)
(0.968488 -0.0110727 -2.85962e-22)
(0.96824 0.00452149 0)
(0.968879 0.0200112 -9.34671e-21)
(0.970356 0.0349697 1.37682e-22)
(0.972564 0.0490137 -9.05589e-23)
(0.975354 0.0618222 8.43655e-21)
(0.978554 0.0731609 0)
(0.981987 0.082885 0)
(0.985488 0.0909308 -4.91312e-22)
(0.988912 0.0973045 9.105e-22)
(0.992146 0.102066 0)
(0.995112 0.105326 -6.11147e-22)
(0.997773 0.107237 3.03055e-21)
(1.00009 0.107965 -6.241e-21)
(1.00208 0.107671 3.19368e-21)
(1.00375 0.1065 3.23863e-22)
(1.0051 0.104604 -3.01031e-22)
(1.00615 0.102125 0)
(1.00695 0.0991874 -2.04407e-21)
(1.00751 0.0959032 1.92098e-21)
(1.00788 0.0923689 7.1052e-21)
(1.00809 0.0886775 -8.81402e-21)
(1.00816 0.0848918 0)
(1.00811 0.0810681 1.14426e-20)
(1.00798 0.0772505 -1.14421e-20)
(1.00778 0.0734819 -9.98474e-21)
(1.00754 0.0697932 9.98087e-21)
(1.00725 0.0662091 0)
(1.00694 0.0627455 -7.98438e-21)
(1.00662 0.0594139 7.98665e-21)
(1.00629 0.0562239 1.07632e-22)
(1.00596 0.0531841 4.10985e-22)
(1.00563 0.0502953 3.00511e-21)
(1.0053 0.0475511 -3.05095e-21)
(1.00499 0.0449513 0)
(1.00469 0.0424955 -2.39497e-21)
(1.00439 0.0401798 1.64068e-22)
(1.00412 0.0379984 1.52703e-22)
(1.00385 0.0359469 2.08634e-21)
(1.0036 0.0340194 0)
(1.00336 0.0322104 2.64658e-23)
(1.00314 0.0305147 1.05679e-22)
(1.00293 0.0289249 0)
(1.00274 0.0274343 -1.41758e-21)
(1.00255 0.0260387 1.15272e-22)
(1.00238 0.0247319 1.2994e-21)
(1.00222 0.0235083 -1.72915e-23)
(1.00207 0.0223628 0)
(1.00193 0.0212898 0)
(1.0018 0.0202858 0)
(1.00168 0.0193471 1.27951e-23)
(1.00157 0.0184679 0)
(1.00147 0.0176441 0)
(1.00138 0.0168717 -1.3005e-21)
(1.00129 0.0161467 2.49086e-21)
(1.00121 0.0154656 -1.19954e-21)
(1.00114 0.0148245 4.85372e-22)
(1.00107 0.0142212 -4.9225e-22)
(1.00101 0.0136524 0)
(1.00096 0.0131123 0)
(1.00092 0.0125985 -3.1062e-22)
(1.00088 0.0121083 3.10625e-22)
(1.00085 0.0116388 0)
(1.00083 0.0111866 9.64156e-23)
(1.00081 0.0107483 -9.64198e-23)
(1.00081 0.0103206 6.11787e-23)
(1.00081 0.00990063 -1.63861e-23)
(1.00083 0.00948483 -4.47942e-23)
(1.00085 0.00907021 1.46753e-23)
(1.00089 0.00865358 -1.46752e-23)
(1.00094 0.00823286 1.08396e-23)
(1.00101 0.00780633 -8.99583e-25)
(1.00108 0.00737229 -1.99006e-23)
(1.00117 0.00691853 8.56737e-24)
(1.00125 0.00641653 -1.75054e-24)
(1.0013 0.00597395 -1.99137e-24)
(1.00259 -0.0113712 0)
(1.00255 -0.0119171 -1.2262e-23)
(1.00249 -0.0125416 1.22636e-23)
(1.00241 -0.01312 -4.37323e-24)
(1.00234 -0.0136907 4.37318e-24)
(1.00228 -0.0142686 0)
(1.00223 -0.0148549 5.90719e-24)
(1.0022 -0.0154494 -6.3624e-24)
(1.00219 -0.0160543 -1.61032e-24)
(1.00219 -0.0166717 0)
(1.00222 -0.0173051 0)
(1.00226 -0.017957 0)
(1.00232 -0.0186315 2.89979e-23)
(1.0024 -0.019332 -3.29065e-23)
(1.00249 -0.0200623 0)
(1.0026 -0.0208266 -5.43388e-23)
(1.00273 -0.0216286 4.87802e-23)
(1.00288 -0.0224726 0)
(1.00304 -0.0233631 7.71646e-24)
(1.00322 -0.0243041 0)
(1.00341 -0.0253005 -8.96177e-23)
(1.00363 -0.026357 7.99067e-23)
(1.00386 -0.027478 0)
(1.00411 -0.0286689 -1.19896e-23)
(1.00439 -0.029935 1.10294e-22)
(1.00468 -0.0312817 -1.10287e-22)
(1.00499 -0.0327145 0)
(1.00533 -0.0342396 1.21176e-22)
(1.0057 -0.0358621 -1.3739e-22)
(1.00608 -0.0375897 0)
(1.0065 -0.0394276 0)
(1.00694 -0.0413835 5.79544e-25)
(1.00741 -0.0434638 0)
(1.00791 -0.0456754 -1.20103e-24)
(1.00844 -0.0480258 0)
(1.009 -0.050523 0)
(1.00959 -0.0531728 -3.01169e-23)
(1.01021 -0.0559827 0)
(1.01086 -0.0589604 -2.89247e-22)
(1.01155 -0.0621116 3.26042e-22)
(1.01226 -0.0654427 -7.98466e-23)
(1.013 -0.0689584 6.64302e-22)
(1.01376 -0.0726637 -1.46168e-21)
(1.01453 -0.0765602 8.51746e-22)
(1.01532 -0.0806497 0)
(1.0161 -0.0849315 5.5332e-23)
(1.01688 -0.0894021 -9.89131e-22)
(1.01763 -0.0940535 1.24265e-21)
(1.01834 -0.0988752 0)
(1.01899 -0.103851 1.44866e-22)
(1.01955 -0.108961 -3.09801e-22)
(1.01999 -0.114177 -1.05766e-21)
(1.02027 -0.119461 1.21604e-21)
(1.02035 -0.12477 1.92669e-22)
(1.02019 -0.13005 -4.05182e-22)
(1.01971 -0.135229 1.17241e-21)
(1.01887 -0.140228 -2.05278e-21)
(1.01758 -0.144949 -2.58545e-21)
(1.01578 -0.149275 2.09006e-21)
(1.01337 -0.153071 -5.33782e-21)
(1.0103 -0.156176 2.98925e-22)
(1.00649 -0.158397 5.09405e-21)
(1.00193 -0.159506 0)
(0.996808 -0.159363 7.34308e-22)
(0.990256 -0.157497 6.35094e-21)
(0.982779 -0.153814 -5.95137e-21)
(0.974563 -0.148208 6.8319e-21)
(0.965834 -0.140355 1.21194e-22)
(0.956769 -0.130045 9.92593e-23)
(0.947656 -0.117132 -7.23431e-21)
(0.938869 -0.101571 -2.57153e-22)
(0.930851 -0.0834432 0)
(0.924081 -0.0629865 2.75348e-22)
(0.919016 -0.0406174 -1.36515e-22)
(0.916037 -0.0169236 4.23499e-22)
(0.915378 0.00739807 -4.17025e-22)
(0.917114 0.0314977 -8.03813e-21)
(0.921064 0.0546442 8.87077e-21)
(0.926945 0.0762039 8.49949e-21)
(0.934362 0.0956324 -8.49034e-21)
(0.942812 0.112593 1.58458e-20)
(0.951827 0.126926 -1.58311e-20)
(0.961008 0.138601 0)
(0.97003 0.147717 -8.90742e-22)
(0.978668 0.154457 -1.35168e-20)
(0.986642 0.159129 1.35115e-20)
(0.993734 0.161816 0)
(0.999363 0.162624 5.62832e-21)
(1.00444 0.16205 -7.29041e-21)
(1.00875 0.160228 -3.44976e-20)
(1.01227 0.157408 4.44266e-20)
(1.01506 0.153796 -3.66828e-20)
(1.0172 0.149559 3.49981e-20)
(1.01877 0.144852 2.44466e-22)
(1.01985 0.139804 2.76814e-20)
(1.02052 0.134538 -2.56048e-20)
(1.02084 0.129148 0)
(1.02088 0.123687 -1.81826e-22)
(1.02068 0.118223 -1.06556e-20)
(1.02029 0.112815 5.76769e-21)
(1.01977 0.107503 2.59676e-22)
(1.01914 0.10232 4.63835e-21)
(1.01843 0.0972903 -4.03751e-21)
(1.01767 0.0924311 4.03858e-21)
(1.01687 0.0877588 3.29197e-21)
(1.01606 0.0832836 -3.30642e-21)
(1.01525 0.079007 -3.06626e-21)
(1.01444 0.0749258 3.11219e-21)
(1.01365 0.0710439 2.67474e-21)
(1.01288 0.0673601 -2.16171e-22)
(1.01213 0.0638697 -2.49936e-21)
(1.01141 0.0605675 0)
(1.01072 0.0574481 2.07088e-21)
(1.01006 0.0545045 -3.94352e-21)
(1.00944 0.0517298 1.87617e-21)
(1.00885 0.049118 -1.59577e-22)
(1.00829 0.0466599 0)
(1.00776 0.044347 -1.42558e-21)
(1.00726 0.0421726 1.44871e-21)
(1.0068 0.0401292 0)
(1.00636 0.03821 -1.17321e-21)
(1.00595 0.0364078 1.20896e-21)
(1.00557 0.0347154 1.01437e-21)
(1.00521 0.0331262 -1.01435e-21)
(1.00488 0.0316346 0)
(1.00457 0.0302329 0)
(1.00428 0.0289166 0)
(1.00401 0.0276792 0)
(1.00377 0.026515 0)
(1.00354 0.0254191 -5.64318e-22)
(1.00334 0.0243864 5.65188e-22)
(1.00315 0.0234122 -7.90313e-24)
(1.00298 0.0224914 0)
(1.00282 0.0216189 0)
(1.00269 0.0207903 0)
(1.00257 0.0200017 0)
(1.00247 0.0192486 1.26427e-22)
(1.00239 0.0185272 -1.26435e-22)
(1.00233 0.0178329 0)
(1.00228 0.0171623 0)
(1.00225 0.0165117 0)
(1.00225 0.0158779 0)
(1.00226 0.0152573 -2.16589e-23)
(1.00229 0.014648 2.16576e-23)
(1.00234 0.0140478 -3.07623e-27)
(1.0024 0.0134568 5.22066e-25)
(1.00247 0.012873 0)
(1.00255 0.0122817 -1.43363e-24)
(1.00261 0.0116433 1.75014e-24)
(1.00265 0.0110852 -3.68483e-25)
(1.0042 -0.0168941 -2.4641e-23)
(1.00418 -0.0175421 1.40451e-23)
(1.00414 -0.0182845 9.20253e-24)
(1.00409 -0.0189765 -9.20239e-24)
(1.00405 -0.0196669 2.11523e-25)
(1.00402 -0.020375 -2.87296e-24)
(1.00401 -0.0211032 -4.67492e-24)
(1.00402 -0.0218521 5.90822e-24)
(1.00406 -0.0226234 1.60973e-24)
(1.00412 -0.0234205 -2.23437e-24)
(1.00421 -0.0242457 -2.48218e-23)
(1.00432 -0.0251029 2.48208e-23)
(1.00446 -0.0259953 3.90753e-24)
(1.00463 -0.0269274 0)
(1.00483 -0.0279026 0)
(1.00506 -0.0289262 0)
(1.00531 -0.0300019 -5.66464e-23)
(1.00559 -0.031135 6.41103e-23)
(1.00591 -0.0323301 0)
(1.00625 -0.0335926 0)
(1.00663 -0.0349277 -1.5635e-25)
(1.00703 -0.036341 -1.0726e-23)
(1.00748 -0.0378379 1.16296e-23)
(1.00795 -0.0394246 -1.25741e-23)
(1.00846 -0.0411073 1.3563e-23)
(1.00901 -0.0428921 1.21554e-22)
(1.0096 -0.0447857 -2.5215e-22)
(1.01023 -0.0467944 -9.53671e-24)
(1.0109 -0.0489257 1.40114e-22)
(1.01161 -0.0511865 -1.80064e-22)
(1.01237 -0.0535841 2.02017e-22)
(1.01317 -0.056126 -2.05841e-22)
(1.01403 -0.0588195 -5.96473e-23)
(1.01493 -0.0616725 5.06565e-22)
(1.01589 -0.0646927 -2.63185e-22)
(1.01689 -0.0678876 -5.71211e-23)
(1.01795 -0.0712645 0)
(1.01906 -0.0748306 6.4875e-23)
(1.02022 -0.0785928 -5.79564e-22)
(1.02142 -0.0825573 1.12396e-21)
(1.02267 -0.0867295 -5.38263e-22)
(1.02395 -0.0911135 0)
(1.02527 -0.0957127 -7.50129e-22)
(1.0266 -0.100528 8.44785e-22)
(1.02794 -0.10556 -1.01037e-22)
(1.02928 -0.110806 0)
(1.03059 -0.116259 -9.72404e-22)
(1.03184 -0.121911 6.0103e-22)
(1.03301 -0.127748 -1.10811e-21)
(1.03407 -0.133752 1.24114e-21)
(1.03496 -0.1399 -9.54075e-22)
(1.03564 -0.146159 3.79538e-21)
(1.03605 -0.152491 -2.3434e-21)
(1.03612 -0.158853 -5.97471e-21)
(1.03577 -0.165186 6.55806e-21)
(1.03489 -0.171421 7.45447e-21)
(1.03339 -0.177475 -6.55832e-21)
(1.03115 -0.183248 -7.51527e-21)
(1.02802 -0.188624 8.00802e-21)
(1.02386 -0.193458 1.02297e-20)
(1.01851 -0.197584 -9.13341e-21)
(1.01177 -0.200778 0)
(1.00344 -0.202979 0)
(0.995765 -0.194096 3.86982e-22)
(0.986043 -0.193502 0)
(0.975385 -0.189991 -1.01803e-21)
(0.963419 -0.184408 -1.64712e-21)
(0.94965 -0.176236 -3.55658e-21)
(0.934867 -0.165272 1.21686e-22)
(0.919561 -0.151094 2.53899e-22)
(0.904319 -0.133411 2.37286e-21)
(0.889905 -0.112112 2.09348e-21)
(0.877224 -0.0873237 4.28874e-21)
(0.867225 -0.0594791 -1.45063e-22)
(0.860767 -0.0293394 -2.53313e-21)
(0.858425 0.00215789 -4.57074e-22)
(0.860642 0.0335568 1.52517e-22)
(0.866861 0.0636336 -7.00636e-23)
(0.876712 0.0915624 -5.05092e-22)
(0.889304 0.116472 4.6849e-21)
(0.903637 0.137878 0)
(0.918885 0.155653 -2.35515e-24)
(0.934326 0.169968 -7.60869e-21)
(0.949241 0.181061 0)
(0.963045 0.189269 3.23954e-22)
(0.974988 0.194924 1.30893e-20)
(0.986025 0.198624 1.26767e-20)
(0.999299 0.208199 4.64135e-21)
(1.00857 0.206424 2.15376e-20)
(1.01617 0.203499 -2.52178e-20)
(1.0223 0.199533 -4.66873e-21)
(1.02712 0.194756 -1.02061e-20)
(1.0308 0.189354 7.75321e-21)
(1.03349 0.183487 0)
(1.03536 0.177287 8.65896e-22)
(1.03653 0.170874 -8.31808e-22)
(1.03711 0.164339 -1.47511e-21)
(1.03722 0.157749 -1.08731e-20)
(1.03693 0.151169 1.60638e-20)
(1.03633 0.144655 -1.00068e-20)
(1.03549 0.138248 4.90828e-21)
(1.03445 0.131985 6.64052e-23)
(1.03328 0.12589 -1.24445e-22)
(1.032 0.119985 0)
(1.03067 0.114285 -3.24491e-21)
(1.02929 0.108803 6.29944e-21)
(1.0279 0.103542 -3.25046e-21)
(1.02651 0.0985044 9.00727e-23)
(1.02514 0.093693 -2.83536e-21)
(1.02379 0.089107 9.11611e-23)
(1.02248 0.0847423 4.85315e-21)
(1.02121 0.080595 -4.52688e-21)
(1.01999 0.07666 1.39975e-22)
(1.01883 0.0729309 1.31337e-22)
(1.01771 0.069401 1.94758e-21)
(1.01665 0.0660631 6.06668e-23)
(1.01564 0.062909 0)
(1.01469 0.0599304 -1.4697e-24)
(1.01378 0.0571198 2.74962e-24)
(1.01293 0.0544686 0)
(1.01213 0.0519695 2.40084e-24)
(1.01138 0.0496145 -3.56858e-23)
(1.01067 0.047396 0)
(1.01001 0.0453063 0)
(1.00939 0.0433374 0)
(1.00881 0.0414827 0)
(1.00827 0.0397354 -1.55154e-24)
(1.00777 0.0380888 -3.52553e-22)
(1.00731 0.0365363 3.52573e-22)
(1.00688 0.0350719 2.96527e-22)
(1.00648 0.0336895 -2.96549e-22)
(1.00612 0.0323833 7.90054e-24)
(1.00579 0.0311478 0)
(1.00549 0.0299773 0)
(1.00522 0.0288669 -1.75728e-22)
(1.00498 0.0278114 1.75736e-22)
(1.00478 0.0268064 0)
(1.0046 0.0258467 0)
(1.00445 0.0249286 0)
(1.00432 0.0240474 -6.68581e-25)
(1.00423 0.0231999 0)
(1.00417 0.0223823 0)
(1.00413 0.0215916 0)
(1.00411 0.0208244 0)
(1.00412 0.020079 -1.08642e-26)
(1.00415 0.0193546 7.00825e-25)
(1.00419 0.0186485 0)
(1.00424 0.0179411 6.11047e-25)
(1.00428 0.0171823 0)
(1.0043 0.0165197 9.92267e-25)
(1.00607 -0.022528 0)
(1.00607 -0.0232684 0)
(1.00606 -0.0241168 0)
(1.00606 -0.0249093 0)
(1.00607 -0.025703 -2.11368e-25)
(1.0061 -0.0265218 -3.36355e-26)
(1.00615 -0.0273692 9.23831e-26)
(1.00624 -0.0282468 7.261e-26)
(1.00635 -0.0291572 0)
(1.0065 -0.0301037 2.23255e-24)
(1.00668 -0.0310898 0)
(1.0069 -0.0321189 0)
(1.00716 -0.033195 -7.99865e-24)
(1.00746 -0.034322 0)
(1.0078 -0.0355043 1.13856e-23)
(1.00817 -0.0367464 -3.69441e-23)
(1.00859 -0.0380531 -2.88773e-24)
(1.00905 -0.0394293 -4.1902e-23)
(1.00956 -0.0408802 6.28884e-23)
(1.01011 -0.0424115 8.93465e-24)
(1.01071 -0.0440288 1.96005e-23)
(1.01135 -0.0457377 -7.86044e-23)
(1.01204 -0.0475438 1.74337e-22)
(1.01279 -0.0494535 -8.40681e-23)
(1.01359 -0.0514731 -9.91755e-23)
(1.01444 -0.0536088 2.32961e-22)
(1.01535 -0.0558677 -1.51427e-22)
(1.01632 -0.0582561 -1.71655e-22)
(1.01735 -0.0607812 1.03427e-22)
(1.01844 -0.0634502 -1.83834e-23)
(1.0196 -0.0662699 -4.12409e-23)
(1.02083 -0.0692474 0)
(1.02212 -0.0723904 -1.45723e-22)
(1.02349 -0.075705 1.91169e-22)
(1.02493 -0.0791982 4.91178e-22)
(1.02643 -0.082876 -3.80496e-22)
(1.02801 -0.0867462 2.92641e-23)
(1.02966 -0.0908149 2.10989e-21)
(1.03137 -0.0950873 -4.3601e-21)
(1.03314 -0.0995683 2.32106e-21)
(1.03496 -0.104261 -2.61925e-21)
(1.03683 -0.109169 -2.42354e-22)
(1.03874 -0.114292 2.70634e-21)
(1.04066 -0.119631 -9.47169e-23)
(1.04259 -0.125183 5.92909e-24)
(1.04449 -0.130944 2.01774e-22)
(1.04635 -0.136907 3.69103e-21)
(1.04812 -0.143061 -7.37412e-21)
(1.04977 -0.149394 -2.54413e-22)
(1.05124 -0.155887 8.61101e-21)
(1.05248 -0.162518 -4.44832e-21)
(1.05341 -0.169255 0)
(1.05398 -0.176069 0)
(1.05408 -0.182924 -1.79001e-22)
(1.05359 -0.189764 -2.43612e-20)
(1.05238 -0.196533 2.43566e-20)
(1.05032 -0.203162 0)
(1.04724 -0.20957 0)
(1.04296 -0.215663 -2.24634e-22)
(1.03728 -0.221323 3.29715e-20)
(1.02996 -0.226414 -3.42497e-20)
(1.02077 -0.230774 0)
(1.00941 -0.234619 -4.08473e-21)
(0.998048 -0.230074 6.61129e-21)
(0.983609 -0.231017 -5.2352e-21)
(0.966681 -0.22975 -9.81501e-22)
(0.951406 -0.22238 -1.06658e-22)
(0.930905 -0.215636 0)
(0.908318 -0.205655 -7.58158e-24)
(0.883975 -0.191638 0)
(0.858621 -0.172876 4.08774e-22)
(0.833479 -0.148777 0)
(0.810244 -0.119043 0)
(0.790957 -0.0838801 6.32343e-22)
(0.777749 -0.0442515 4.14712e-23)
(0.772326 -0.00169505 0)
(0.775514 0.0411439 -1.96846e-21)
(0.786789 0.0815521 0)
(0.804516 0.117732 -9.86995e-21)
(0.82687 0.148906 9.46428e-21)
(0.851691 0.174489 0)
(0.877226 0.194598 0)
(0.901996 0.209669 0)
(0.925256 0.220538 9.26378e-22)
(0.946622 0.228113 -8.00011e-22)
(0.967237 0.236484 -1.569e-22)
(0.984427 0.237756 1.47559e-22)
(1.00429 0.242299 3.38962e-20)
(1.01699 0.238517 -2.46509e-21)
(1.02736 0.234124 -2.4511e-21)
(1.03569 0.228921 -5.13262e-20)
(1.04224 0.223092 2.04531e-20)
(1.04724 0.216789 0)
(1.0509 0.210135 -8.13841e-22)
(1.05342 0.203233 1.24871e-20)
(1.05499 0.196177 -1.25307e-20)
(1.05577 0.189045 1.13656e-21)
(1.05589 0.181894 1.57654e-22)
(1.05547 0.174773 4.92471e-21)
(1.05462 0.167729 -4.7694e-21)
(1.05343 0.160799 -4.32736e-21)
(1.05196 0.154013 8.18529e-21)
(1.0503 0.147396 -3.8704e-21)
(1.04849 0.140964 3.517e-21)
(1.04658 0.134732 -6.81939e-21)
(1.04461 0.128712 3.30254e-21)
(1.04261 0.122911 0)
(1.0406 0.117333 2.64235e-21)
(1.03861 0.111982 -2.60454e-21)
(1.03665 0.106858 7.90874e-23)
(1.03473 0.101958 -1.85379e-23)
(1.03287 0.0972808 2.11833e-21)
(1.03107 0.0928216 -2.12299e-21)
(1.02933 0.0885765 0)
(1.02767 0.0845393 0)
(1.02608 0.0807043 -3.46982e-24)
(1.02457 0.0770642 0)
(1.02313 0.0736123 -1.44125e-21)
(1.02176 0.0703407 8.98047e-23)
(1.02047 0.0672427 9.01258e-23)
(1.01925 0.0643103 1.26318e-21)
(1.01809 0.0615363 5.50802e-22)
(1.01701 0.058913 -3.74082e-23)
(1.01599 0.0564332 -3.55741e-23)
(1.01503 0.0540891 -4.7805e-22)
(1.01413 0.0518739 0)
(1.01329 0.0497806 1.55073e-24)
(1.01251 0.0478024 0)
(1.01178 0.0459326 0)
(1.0111 0.0441648 2.96743e-22)
(1.01047 0.0424927 -5.67657e-22)
(1.00989 0.0409104 2.70915e-22)
(1.00936 0.0394118 -9.03471e-25)
(1.00888 0.0379915 -1.99178e-22)
(1.00844 0.036644 1.99188e-22)
(1.00804 0.0353642 1.55588e-22)
(1.00769 0.0341469 -1.55026e-22)
(1.00737 0.0329876 0)
(1.0071 0.0318818 0)
(1.00687 0.0308252 6.68182e-25)
(1.00668 0.0298138 1.02672e-24)
(1.00652 0.0288436 0)
(1.0064 0.0279109 0)
(1.00631 0.0270125 0)
(1.00625 0.0261455 1.3935e-26)
(1.00621 0.0253081 -5.89455e-25)
(1.0062 0.0244968 0)
(1.0062 0.0236871 -1.18985e-25)
(1.00621 0.0228204 0)
(1.00621 0.0220636 1.36488e-24)
(1.00818 -0.0281194 -3.16212e-23)
(1.0082 -0.028941 1.80277e-23)
(1.00823 -0.0298824 1.01578e-24)
(1.00827 -0.0307619 6.77554e-24)
(1.00835 -0.0316442 -7.05738e-24)
(1.00846 -0.0325559 6.23274e-26)
(1.0086 -0.0335024 3.26272e-25)
(1.00877 -0.0344854 5.98112e-25)
(1.00899 -0.0355088 0)
(1.00925 -0.036576 0)
(1.00956 -0.0376912 -1.31485e-24)
(1.00991 -0.0388578 -3.22734e-24)
(1.01032 -0.0400801 4.21135e-23)
(1.01077 -0.041362 -3.41195e-23)
(1.01127 -0.0427079 -2.41412e-23)
(1.01183 -0.0441222 4.45646e-23)
(1.01244 -0.0456097 -5.56635e-23)
(1.01311 -0.0471751 5.56591e-23)
(1.01383 -0.0488235 0)
(1.01462 -0.0505604 -8.9231e-24)
(1.01546 -0.0523911 -9.73391e-24)
(1.01637 -0.0543209 0)
(1.01734 -0.0563554 1.38189e-22)
(1.01839 -0.0585004 -9.40635e-23)
(1.0195 -0.0607615 -2.66579e-23)
(1.02068 -0.0631456 0)
(1.02194 -0.065658 3.07437e-23)
(1.02327 -0.0683039 3.29293e-23)
(1.02469 -0.0710894 3.52236e-23)
(1.02619 -0.0740212 1.2776e-21)
(1.02777 -0.0771054 -1.26013e-21)
(1.02943 -0.080348 -1.3868e-21)
(1.03118 -0.0837543 1.34332e-21)
(1.03301 -0.0873295 1.51918e-21)
(1.03493 -0.0910763 -1.56612e-21)
(1.03694 -0.0950044 0)
(1.03904 -0.0991196 -2.9155e-23)
(1.04122 -0.10342 -6.19738e-23)
(1.04348 -0.107909 0)
(1.0458 -0.11259 0)
(1.04818 -0.117464 7.43209e-23)
(1.0506 -0.122529 1.15246e-22)
(1.05307 -0.127785 1.0698e-20)
(1.05554 -0.13323 -1.06152e-20)
(1.05801 -0.138856 9.45622e-23)
(1.06043 -0.144659 1.25002e-20)
(1.06279 -0.150629 -1.26961e-20)
(1.06502 -0.156754 0)
(1.0671 -0.16302 -5.38097e-23)
(1.06895 -0.16941 -3.12734e-22)
(1.07051 -0.175902 1.70273e-20)
(1.0717 -0.18247 1.17011e-21)
(1.07243 -0.189089 -2.70988e-20)
(1.07258 -0.195727 9.59053e-21)
(1.07202 -0.202351 0)
(1.0706 -0.208915 1.1527e-20)
(1.06816 -0.215374 -1.14386e-20)
(1.06452 -0.221674 9.04763e-23)
(1.05945 -0.227753 3.20735e-22)
(1.05272 -0.233535 2.39792e-22)
(1.04404 -0.238929 1.64368e-20)
(1.03312 -0.243819 1.00252e-21)
(1.01961 -0.248651 -1.88522e-20)
(1.00503 -0.250204 1.09756e-20)
(0.986718 -0.252805 -2.56063e-21)
(0.964838 -0.254213 -2.88044e-20)
(0.942795 -0.251804 1.26577e-20)
(0.914013 -0.248609 1.19334e-20)
(0.88099 -0.242316 -4.67726e-22)
(0.843941 -0.231809 3.91775e-22)
(0.802999 -0.215717 -1.40742e-22)
(0.759473 -0.192338 0)
(0.715889 -0.159767 5.11747e-22)
(0.676565 -0.116498 8.86239e-23)
(0.647623 -0.0626721 7.18588e-22)
(0.635379 -0.00117095 -1.19529e-21)
(0.643219 0.0609467 1.97842e-22)
(0.668658 0.116573 -1.80839e-22)
(0.706036 0.162246 -5.13048e-22)
(0.748719 0.196917 0)
(0.792383 0.222057 1.17355e-21)
(0.83415 0.23945 -1.83309e-21)
(0.872517 0.250769 -4.3174e-21)
(0.906985 0.257552 1.39607e-20)
(0.937257 0.261016 6.29433e-22)
(0.966729 0.263179 5.30341e-21)
(0.988915 0.261277 -1.04279e-20)
(1.01465 0.258374 1.20345e-21)
(1.02978 0.253108 1.69967e-20)
(1.04205 0.247806 -1.10616e-21)
(1.05185 0.241993 -1.52036e-20)
(1.05951 0.235794 0)
(1.06533 0.229306 -3.71482e-22)
(1.06958 0.222608 -5.1063e-21)
(1.0725 0.215763 5.54002e-21)
(1.07428 0.208825 -5.22076e-21)
(1.07512 0.201843 5.84893e-21)
(1.07518 0.194857 -8.87118e-23)
(1.07459 0.187903 7.39397e-23)
(1.07347 0.181012 4.05227e-21)
(1.07194 0.174213 -2.10924e-22)
(1.07008 0.16753 -3.85446e-21)
(1.06797 0.160982 -1.03111e-22)
(1.06567 0.154586 3.22182e-21)
(1.06323 0.148356 -3.21154e-21)
(1.06071 0.142303 1.08589e-23)
(1.05814 0.136436 0)
(1.05555 0.130762 9.68247e-24)
(1.05297 0.125286 3.99097e-23)
(1.05043 0.120011 0)
(1.04793 0.114938 8.14155e-24)
(1.04549 0.110067 7.98698e-24)
(1.04312 0.105398 7.24259e-24)
(1.04083 0.100927 3.41352e-24)
(1.03862 0.096652 3.2162e-24)
(1.03651 0.0925689 -2.01956e-25)
(1.03448 0.0886734 2.85032e-24)
(1.03255 0.0849602 2.68059e-24)
(1.0307 0.0814242 2.51898e-24)
(1.02895 0.0780594 -1.32338e-25)
(1.02729 0.0748602 -5.67853e-22)
(1.02571 0.0718199 5.68865e-22)
(1.02423 0.0689327 4.97802e-22)
(1.02282 0.0661921 -3.5382e-23)
(1.0215 0.0635916 -4.6159e-22)
(1.02025 0.0611251 3.98181e-22)
(1.01909 0.0587862 -3.99076e-22)
(1.01799 0.0565686 1.35482e-24)
(1.01697 0.0544665 3.15341e-22)
(1.01601 0.0524735 -2.53958e-23)
(1.01513 0.050584 -5.53879e-22)
(1.0143 0.0487921 5.05333e-22)
(1.01354 0.0470923 -2.39503e-22)
(1.01284 0.0454793 1.93937e-22)
(1.0122 0.0439477 -1.97515e-22)
(1.01162 0.0424929 2.47011e-24)
(1.01109 0.0411095 -5.59623e-25)
(1.01062 0.0397934 0)
(1.01019 0.0385392 -1.53934e-24)
(1.00982 0.0373432 0)
(1.0095 0.0362008 -1.98101e-24)
(1.00923 0.0351079 0)
(1.009 0.0340608 0)
(1.00881 0.0330553 0)
(1.00866 0.0320879 0)
(1.00855 0.0311563 3.30927e-25)
(1.00847 0.0302553 0)
(1.00841 0.0293575 9.40628e-25)
(1.00838 0.0283968 0)
(1.00836 0.0275576 0)
(1.01049 -0.0335382 0)
(1.01053 -0.0344277 2.04567e-23)
(1.0106 -0.0354462 -2.14746e-23)
(1.0107 -0.0363972 1.40891e-24)
(1.01085 -0.0373512 4.19101e-24)
(1.01104 -0.0383375 -4.86751e-24)
(1.01128 -0.0393619 -4.01037e-24)
(1.01157 -0.040427 1.34627e-23)
(1.01191 -0.0415366 4.55528e-24)
(1.0123 -0.0426952 4.61824e-24)
(1.01275 -0.0439065 -1.78126e-23)
(1.01325 -0.0451748 -2.41802e-23)
(1.01382 -0.0465038 5.96939e-23)
(1.01445 -0.0478975 -3.22879e-23)
(1.01514 -0.0493603 2.19874e-23)
(1.01589 -0.0508962 -4.24035e-23)
(1.01671 -0.0525098 -5.30656e-23)
(1.0176 -0.0542051 2.37442e-23)
(1.01856 -0.0559867 1.87685e-22)
(1.01959 -0.0578594 -1.28717e-22)
(1.0207 -0.059828 -3.05643e-22)
(1.02189 -0.0618971 6.36592e-22)
(1.02315 -0.0640715 -3.75033e-22)
(1.0245 -0.0663558 -3.8444e-22)
(1.02592 -0.068755 3.84396e-22)
(1.02744 -0.071274 -4.42014e-22)
(1.02904 -0.0739173 -5.02964e-22)
(1.03074 -0.0766879 -1.07077e-21)
(1.03253 -0.0795932 2.01268e-21)
(1.03442 -0.0826402 5.07305e-21)
(1.03641 -0.0858277 -9.37115e-21)
(1.03849 -0.0891597 -3.01728e-22)
(1.04067 -0.0926405 1.06557e-20)
(1.04295 -0.0962719 -5.46142e-21)
(1.04532 -0.100056 -2.97844e-21)
(1.0478 -0.103996 -1.81116e-22)
(1.05036 -0.108093 3.252e-21)
(1.053 -0.112345 0)
(1.05573 -0.116751 -1.92793e-21)
(1.05852 -0.121311 3.96492e-21)
(1.06137 -0.126022 -2.04459e-21)
(1.06426 -0.130879 -2.30935e-21)
(1.06717 -0.135877 -1.65802e-22)
(1.07008 -0.141008 -2.69827e-21)
(1.07296 -0.146263 7.73655e-21)
(1.07578 -0.151631 -5.49152e-21)
(1.0785 -0.1571 5.77244e-21)
(1.08106 -0.162653 1.4204e-22)
(1.08342 -0.168274 -6.39206e-21)
(1.08551 -0.173943 -1.25419e-22)
(1.08724 -0.179639 -1.92667e-22)
(1.08854 -0.185337 -3.31423e-22)
(1.0893 -0.191011 7.47259e-21)
(1.0894 -0.196634 -4.10048e-21)
(1.08871 -0.202174 4.60634e-21)
(1.08707 -0.207597 -9.41091e-21)
(1.08431 -0.212867 9.83381e-21)
(1.08023 -0.217948 -1.06292e-20)