/*--------------------------------*- C++ -*----------------------------------*\
| =========                 |                                                 |
| \\      /  F ield         | OpenFOAM: The Open Source CFD Toolbox           |
|  \\    /   O peration     | Version:  5.0                                   |
|   \\  /    A nd           | Web:      www.OpenFOAM.org                      |
|    \\/     M anipulation  |                                                 |
\*---------------------------------------------------------------------------*/
FoamFile
{
    version     2.0;
    format      ascii;
    class       volVectorField;
    location    "1669";
    object      U;
}
// * * * * * * * * * * * * * * * * * * * * * * * * * * * * * * * * * * * * * //

dimensions      [0 1 -1 0 0 0 0];

internalField   nonuniform List<vector> 
9000
(
(0.584671 0.128014 0)
(0.460288 0.0607574 0)
(0.284464 0.0197123 0)
(0.201678 0.00907598 0)
(0.156765 0.00455942 0)
(0.129741 0.00248031 0)
(0.112497 0.00147179 0)
(0.100996 0.000930215 0)
(0.0930914 0.000611652 0)
(0.0875636 0.000411471 0)
(0.0836635 0.000279809 0)
(0.0809039 0.000190702 0)
(0.0789542 0.000129423 0)
(0.0775836 8.69852e-05 0)
(0.0766276 5.75872e-05 0)
(0.0759679 3.73278e-05 0)
(0.0755186 2.35087e-05 0)
(0.0752174 1.42303e-05 0)
(0.0750192 8.14124e-06 0)
(0.0748915 4.27658e-06 0)
(0.0748111 1.94712e-06 0)
(0.0747613 6.62664e-07 0)
(0.0747305 7.67843e-08 0)
(0.0747109 -5.32455e-08 0)
(0.074697 1.04102e-07 0)
(0.0746852 4.3286e-07 0)
(0.0746735 8.53444e-07 0)
(0.0746607 1.31063e-06 0)
(0.0746465 1.76453e-06 0)
(0.0746312 2.18369e-06 0)
(0.0746156 2.53963e-06 0)
(0.0746013 2.80227e-06 0)
(0.0745904 2.93574e-06 0)
(0.0745859 2.89405e-06 0)
(0.0745919 2.61611e-06 0)
(0.0746139 2.01925e-06 0)
(0.0746595 9.90087e-07 0)
(0.0747389 -6.29526e-07 0)
(0.0748662 -3.06601e-06 0)
(0.0750613 -6.65799e-06 0)
(0.0753529 -1.19492e-05 0)
(0.0757834 -1.99151e-05 0)
(0.0764191 -3.25943e-05 0)
(0.0773698 -5.49308e-05 0)
(0.0788345 -0.00010048 0)
(0.0812211 -0.000214834 0)
(0.0854354 -0.000573695 0)
(0.0933293 -0.00159867 0)
(0.114365 -0.00651931 0)
(0.166561 -0.0470379 0)
(0.939123 0.304182 0)
(0.851325 0.221377 0)
(0.648673 0.124667 0)
(0.513601 0.0714558 0)
(0.423069 0.0427789 0)
(0.361652 0.0269835 0)
(0.319344 0.0178066 0)
(0.289717 0.0121386 0)
(0.268693 0.00845006 0)
(0.25365 0.00595389 0)
(0.242844 0.00421838 0)
(0.235078 0.00299083 0)
(0.229512 0.00211411 0)
(0.225543 0.00148538 0)
(0.222733 0.00103459 0)
(0.220762 0.000712603 0)
(0.219394 0.000484178 0)
(0.218457 0.000323729 0)
(0.217824 0.000212524 0)
(0.217404 0.000136798 0)
(0.217128 8.64405e-05 0)
(0.216949 5.40359e-05 0)
(0.216833 3.41681e-05 0)
(0.216756 2.28951e-05 0)
(0.216701 1.7355e-05 0)
(0.216658 1.54659e-05 0)
(0.216621 1.56974e-05 0)
(0.216585 1.68925e-05 0)
(0.216549 1.81288e-05 0)
(0.216515 1.86056e-05 0)
(0.216485 1.7547e-05 0)
(0.216464 1.41126e-05 0)
(0.216459 7.30606e-06 0)
(0.21648 -4.13042e-06 0)
(0.21654 -2.18499e-05 0)
(0.216657 -4.80862e-05 0)
(0.216857 -8.59283e-05 0)
(0.217172 -0.000139748 0)
(0.217649 -0.000215906 0)
(0.218354 -0.000323967 0)
(0.219379 -0.000478955 0)
(0.220864 -0.000705789 0)
(0.223023 -0.00104874 0)
(0.226197 -0.00159322 0)
(0.23097 -0.00251963 0)
(0.238394 -0.0042484 0)
(0.250472 -0.0078553 0)
(0.270932 -0.0161904 0)
(0.310221 -0.037285 0)
(0.381784 -0.102674 0)
(1.01821 0.310928 0)
(1.00802 0.307132 0)
(0.86602 0.217564 0)
(0.738842 0.145114 0)
(0.636644 0.0965272 0)
(0.559675 0.0653568 0)
(0.502949 0.045181 0)
(0.461392 0.0317687 0)
(0.430968 0.0226004 0)
(0.408701 0.0161859 0)
(0.392421 0.011621 0)
(0.380553 0.00833612 0)
(0.371938 0.00595781 0)
(0.365722 0.00423246 0)
(0.36127 0.00298247 0)
(0.358109 0.00208065 0)
(0.355888 0.0014344 0)
(0.354345 0.000975562 0)
(0.353285 0.000653715 0)
(0.352567 0.000431439 0)
(0.352086 0.00028099 0)
(0.351766 0.000181843 0)
(0.351553 0.000118865 0)
(0.351409 8.09353e-05 0)
(0.351307 5.98893e-05 0)
(0.351229 4.97138e-05 0)
(0.351165 4.59212e-05 0)
(0.351109 4.50622e-05 0)
(0.351059 4.43367e-05 0)
(0.351016 4.1274e-05 0)
(0.350985 3.34543e-05 0)
(0.350975 1.82453e-05 0)
(0.350999 -7.47264e-06 0)
(0.351072 -4.76274e-05 0)
(0.351219 -0.000107368 0)
(0.35147 -0.000193638 0)
(0.351868 -0.000316026 0)
(0.35247 -0.00048808 0)
(0.353357 -0.000729452 0)
(0.354637 -0.00106954 0)
(0.356469 -0.00155396 0)
(0.359083 -0.00225673 0)
(0.362823 -0.00330424 0)
(0.368222 -0.00492532 0)
(0.376135 -0.00756055 0)
(0.387971 -0.0121125 0)
(0.406088 -0.0205341 0)
(0.43415 -0.0371549 0)
(0.478789 -0.0715179 0)
(0.543579 -0.147067 0)
(1.03067 0.271658 0)
(1.06606 0.341927 0)
(0.987677 0.285795 0)
(0.891296 0.21301 0)
(0.798876 0.153196 0)
(0.721569 0.109507 0)
(0.660458 0.0785808 0)
(0.613461 0.0567129 0)
(0.577843 0.0411124 0)
(0.551099 0.0298663 0)
(0.531158 0.0216892 0)
(0.516388 0.0157101 0)
(0.505523 0.0113268 0)
(0.497588 0.0081143 0)
(0.491841 0.00576625 0)
(0.487716 0.00405852 0)
(0.484785 0.00282524 0)
(0.482723 0.00194273 0)
(0.481289 0.00131851 0)
(0.480303 0.000883319 0)
(0.47963 0.000585396 0)
(0.479175 0.000386164 0)
(0.478866 0.000256974 0)
(0.478653 0.000176609 0)
(0.478502 0.000129368 0)
(0.47839 0.00010358 0)
(0.478301 9.0444e-05 0)
(0.478229 8.31105e-05 0)
(0.47817 7.59498e-05 0)
(0.478127 6.39364e-05 0)
(0.478107 4.21087e-05 0)
(0.478122 5.05213e-06 0)
(0.47819 -5.36479e-05 0)
(0.478335 -0.000142048 0)
(0.47859 -0.000270672 0)
(0.478998 -0.000453664 0)
(0.479619 -0.000710462 0)
(0.480534 -0.0010684 0)
(0.48185 -0.00156682 0)
(0.483718 -0.00226395 0)
(0.48635 -0.00324877 0)
(0.490046 -0.00466213 0)
(0.495243 -0.00673625 0)
(0.502585 -0.00987045 0)
(0.513039 -0.0147806 0)
(0.528049 -0.0227979 0)
(0.549709 -0.0364586 0)
(0.580587 -0.0605723 0)
(0.62336 -0.103615 0)
(0.67563 -0.179718 0)
(1.02766 0.231658 0)
(1.08142 0.345964 0)
(1.05133 0.325547 0)
(0.989777 0.26448 0)
(0.917438 0.202759 0)
(0.84969 0.151847 0)
(0.791973 0.112703 0)
(0.745201 0.0833664 0)
(0.708386 0.0615521 0)
(0.679949 0.0453493 0)
(0.658279 0.0333064 0)
(0.641946 0.0243535 0)
(0.629755 0.0177052 0)
(0.620741 0.0127816 0)
(0.614138 0.00915114 0)
(0.609347 0.00649023 0)
(0.605906 0.00455473 0)
(0.603459 0.00316002 0)
(0.601737 0.00216637 0)
(0.600537 0.00146817 0)
(0.599707 0.000985826 0)
(0.599137 0.000659574 0)
(0.598744 0.000444717 0)
(0.59847 0.000307926 0)
(0.598275 0.000224353 0)
(0.598131 0.000175375 0)
(0.598021 0.000146813 0)
(0.597936 0.000127516 0)
(0.597874 0.000108214 0)
(0.597838 8.05442e-05 0)
(0.597837 3.61906e-05 0)
(0.597888 -3.39491e-05 0)
(0.598011 -0.000140652 0)
(0.598239 -0.000297415 0)
(0.598613 -0.000521792 0)
(0.599187 -0.00083725 0)
(0.600037 -0.00127584 0)
(0.601261 -0.00188226 0)
(0.602993 -0.0027202 0)
(0.605413 -0.0038826 0)
(0.60877 -0.00550867 0)
(0.613408 -0.00781309 0)
(0.619806 -0.011137 0)
(0.628638 -0.0160386 0)
(0.640834 -0.0234551 0)
(0.657642 -0.034986 0)
(0.680576 -0.0533565 0)
(0.710912 -0.0830454 0)
(0.748558 -0.13048 0)
(0.788625 -0.203002 0)
(1.02149 0.196495 0)
(1.07917 0.332758 0)
(1.08155 0.342235 0)
(1.05088 0.297939 0)
(1.00157 0.240986 0)
(0.948571 0.187989 0)
(0.899428 0.143889 0)
(0.857225 0.10894 0)
(0.822586 0.0818789 0)
(0.79498 0.0611705 0)
(0.77343 0.0454318 0)
(0.756874 0.0335309 0)
(0.744321 0.0245754 0)
(0.734914 0.017872 0)
(0.727941 0.0128853 0)
(0.722827 0.00920204 0)
(0.719114 0.00650432 0)
(0.716447 0.00454758 0)
(0.714548 0.00314436 0)
(0.71321 0.00215154 0)
(0.712272 0.0014603 0)
(0.711619 0.000988294 0)
(0.711162 0.000673536 0)
(0.710841 0.000469466 0)
(0.71061 0.000341134 0)
(0.710441 0.000262135 0)
(0.710316 0.000212186 0)
(0.710223 0.000175173 0)
(0.710163 0.000137552 0)
(0.710138 8.69833e-05 0)
(0.710162 1.11117e-05 0)
(0.710253 -0.000103627 0)
(0.710437 -0.000273279 0)
(0.710752 -0.00051787 0)
(0.711245 -0.000863318 0)
(0.711983 -0.00134404 0)
(0.71305 -0.00200666 0)
(0.714559 -0.00291558 0)
(0.716662 -0.00416135 0)
(0.719557 -0.00587395 0)
(0.723513 -0.00824392 0)
(0.728886 -0.0115567 0)
(0.736155 -0.0162494 0)
(0.745946 -0.023003 0)
(0.759058 -0.0328921 0)
(0.776418 -0.0476091 0)
(0.798895 -0.0697559 0)
(0.826681 -0.103066 0)
(0.858111 -0.151917 0)
(0.887816 -0.219376 0)
(1.01582 0.16657 0)
(1.07092 0.31068 0)
(1.09342 0.342389 0)
(1.08722 0.315332 0)
(1.05982 0.266866 0)
(1.02339 0.215745 0)
(0.985702 0.1698 0)
(0.951011 0.131379 0)
(0.921122 0.100438 0)
(0.896434 0.0760563 0)
(0.87663 0.0571105 0)
(0.861084 0.0425376 0)
(0.84909 0.0314232 0)
(0.83997 0.0230139 0)
(0.833124 0.016702 0)
(0.828044 0.0120046 0)
(0.824316 0.00854073 0)
(0.821609 0.0060126 0)
(0.819662 0.00418863 0)
(0.818272 0.00289004 0)
(0.817288 0.00197969 0)
(0.816592 0.00135301 0)
(0.8161 0.000930687 0)
(0.815749 0.00065277 0)
(0.815495 0.000473929 0)
(0.81531 0.000359656 0)
(0.815174 0.000283211 0)
(0.815079 0.000223135 0)
(0.815024 0.000161193 0)
(0.815016 8.06167e-05 0)
(0.815067 -3.5507e-05 0)
(0.8152 -0.000205796 0)
(0.815445 -0.000452253 0)
(0.815843 -0.000802235 0)
(0.816448 -0.00129094 0)
(0.817333 -0.00196475 0)
(0.81859 -0.00288593 0)
(0.820342 -0.00413947 0)
(0.822748 -0.00584318 0)
(0.826014 -0.00816306 0)
(0.830408 -0.0113369 0)
(0.836275 -0.0157104 0)
(0.844053 -0.0217933 0)
(0.854276 -0.0303435 0)
(0.867551 -0.0424861 0)
(0.884461 -0.0598648 0)
(0.9053 -0.0847701 0)
(0.929502 -0.120078 0)
(0.9547 -0.168484 0)
(0.975978 -0.230569 0)
(1.0115 0.141656 0)
(1.06166 0.284727 0)
(1.09577 0.331358 0)
(1.1077 0.31958 0)
(1.09928 0.281025 0)
(1.0791 0.234385 0)
(1.05401 0.189147 0)
(1.02852 0.149304 0)
(1.00513 0.115982 0)
(0.984941 0.0889689 0)
(0.9682 0.067517 0)
(0.95472 0.0507359 0)
(0.944107 0.0377659 0)
(0.9359 0.0278469 0)
(0.92965 0.020336 0)
(0.924953 0.0147044 0)
(0.921465 0.0105245 0)
(0.918903 0.00745565 0)
(0.917039 0.005229 0)
(0.915693 0.00363469 0)
(0.914726 0.00251019 0)
(0.914034 0.00173059 0)
(0.913537 0.00120045 0)
(0.913178 0.000847159 0)
(0.912916 0.000615418 0)
(0.912724 0.000462812 0)
(0.912586 0.000356177 0)
(0.912494 0.000268633 0)
(0.912448 0.000177091 0)
(0.912457 6.01013e-05 0)
(0.912537 -0.000104116 0)
(0.91271 -0.000339609 0)
(0.913011 -0.000674767 0)
(0.913483 -0.00114474 0)
(0.914185 -0.00179446 0)
(0.915192 -0.00268265 0)
(0.916602 -0.00388734 0)
(0.91854 -0.00551362 0)
(0.921164 -0.00770498 0)
(0.924678 -0.0106597 0)
(0.929333 -0.0146548 0)
(0.935442 -0.0200814 0)
(0.943376 -0.0274948 0)
(0.95355 -0.0376826 0)
(0.966367 -0.051749 0)
(0.982088 -0.0711924 0)
(1.00057 -0.0979107 0)
(1.02078 -0.133976 0)
(1.0402 -0.180836 0)
(1.05468 -0.237736 0)
(1.00843 0.12099 0)
(1.05327 0.257636 0)
(1.09354 0.313069 0)
(1.11834 0.313611 0)
(1.12544 0.284865 0)
(1.12005 0.244117 0)
(1.10748 0.201446 0)
(1.0919 0.161936 0)
(1.07603 0.127677 0)
(1.06139 0.0991374 0)
(1.04869 0.0759943 0)
(1.03811 0.0575914 0)
(1.02956 0.0431822 0)
(1.0228 0.0320464 0)
(1.01757 0.0235413 0)
(1.01357 0.0171179 0)
(1.01056 0.0123203 0)
(1.00832 0.00877808 0)
(1.00667 0.00619442 0)
(1.00545 0.00433487 0)
(1.00457 0.00301611 0)
(1.00393 0.00209609 0)
(1.00346 0.00146553 0)
(1.00312 0.00104071 0)
(1.00286 0.000757399 0)
(1.00268 0.000565971 0)
(1.00254 0.000427264 0)
(1.00246 0.000309202 0)
(1.00242 0.000183927 0)
(1.00245 2.52905e-05 0)
(1.00256 -0.000193451 0)
(1.00277 -0.000501915 0)
(1.00311 -0.00093503 0)
(1.00365 -0.00153585 0)
(1.00442 -0.00235904 0)
(1.00552 -0.00347539 0)
(1.00704 -0.00497791 0)
(1.0091 -0.00699025 0)
(1.01185 -0.00967836 0)
(1.01548 -0.013267 0)
(1.02021 -0.0180626 0)
(1.02632 -0.0244847 0)
(1.03409 -0.0331072 0)
(1.04381 -0.0447081 0)
(1.05569 -0.0603175 0)
(1.06973 -0.0812367 0)
(1.08546 -0.108961 0)
(1.10166 -0.144886 0)
(1.11591 -0.189594 0)
(1.12487 -0.241684 0)
(1.0063 0.103671 0)
(1.04627 0.230789 0)
(1.0894 0.290258 0)
(1.12303 0.299972 0)
(1.1424 0.280045 0)
(1.14983 0.245683 0)
(1.14896 0.20678 0)
(1.14325 0.168976 0)
(1.13531 0.135053 0)
(1.12683 0.106055 0)
(1.11881 0.0820674 0)
(1.11172 0.0626921 0)
(1.10575 0.0473312 0)
(1.10087 0.0353399 0)
(1.09699 0.0261052 0)
(1.09396 0.0190821 0)
(1.09164 0.0138054 0)
(1.08987 0.00988868 0)
(1.08855 0.00701795 0)
(1.08756 0.004942 0)
(1.08682 0.00346255 0)
(1.08627 0.00242471 0)
(1.08587 0.00170847 0)
(1.08556 0.00122122 0)
(1.08533 0.000891449 0)
(1.08516 0.000663436 0)
(1.08503 0.000492798 0)
(1.08496 0.000342786 0)
(1.08494 0.000181101 0)
(1.08498 -2.28981e-05 0)
(1.08511 -0.000300794 0)
(1.08535 -0.00068768 0)
(1.08573 -0.00122489 0)
(1.08631 -0.00196317 0)
(1.08714 -0.00296645 0)
(1.08829 -0.00431678 0)
(1.08986 -0.00612071 0)
(1.09197 -0.00851786 0)
(1.09475 -0.0116925 0)
(1.09837 -0.0158889 0)
(1.10302 -0.0214322 0)
(1.10891 -0.028754 0)
(1.11625 -0.0384235 0)
(1.12519 -0.0511783 0)
(1.13579 -0.0679423 0)
(1.14783 -0.0898008 0)
(1.16069 -0.117879 0)
(1.17305 -0.15304 0)
(1.18276 -0.195297 0)
(1.18719 -0.243003 0)
(1.00483 0.0889072 0)
(1.04068 0.204811 0)
(1.08475 0.264748 0)
(1.1243 0.280714 0)
(1.1531 0.268184 0)
(1.17128 0.240077 0)
(1.1809 0.20559 0)
(1.18454 0.170484 0)
(1.18447 0.137946 0)
(1.18236 0.109454 0)
(1.17934 0.0854388 0)
(1.17611 0.065754 0)
(1.17306 0.0499629 0)
(1.17037 0.0375176 0)
(1.16811 0.027858 0)
(1.16625 0.0204634 0)
(1.16478 0.0148764 0)
(1.16361 0.010709 0)
(1.16271 0.00764088 0)
(1.16202 0.0054127 0)
(1.16148 0.00381782 0)
(1.16107 0.00269355 0)
(1.16075 0.00191287 0)
(1.1605 0.00137712 0)
(1.1603 0.00100955 0)
(1.16016 0.000749843 0)
(1.16005 0.000549487 0)
(1.15999 0.00036783 0)
(1.15999 0.000168694 0)
(1.16005 -8.26458e-05 0)
(1.16019 -0.000422277 0)
(1.16045 -0.000890444 0)
(1.16086 -0.00153452 0)
(1.16146 -0.00241237 0)
(1.16231 -0.00359642 0)
(1.16347 -0.00517869 0)
(1.16505 -0.00727722 0)
(1.16714 -0.0100445 0)
(1.16986 -0.0136783 0)
(1.17335 -0.0184354 0)
(1.17776 -0.0246489 0)
(1.18324 -0.0327483 0)
(1.18992 -0.0432795 0)
(1.19785 -0.0569191 0)
(1.20694 -0.0744688 0)
(1.21685 -0.0968029 0)
(1.22683 -0.124728 0)
(1.23563 -0.158707 0)
(1.24139 -0.198402 0)
(1.24205 -0.242134 0)
(1.00381 0.0760725 0)
(1.03631 0.179921 0)
(1.08027 0.23772 0)
(1.12368 0.257412 0)
(1.15962 0.250726 0)
(1.18659 0.228356 0)
(1.20533 0.198518 0)
(1.21751 0.166762 0)
(1.22491 0.136428 0)
(1.22905 0.109265 0)
(1.2311 0.0859724 0)
(1.23188 0.066617 0)
(1.23194 0.0509195 0)
(1.23161 0.0384377 0)
(1.23112 0.0286788 0)
(1.23059 0.0211628 0)
(1.23007 0.0154546 0)
(1.22961 0.0111776 0)
(1.2292 0.00801609 0)
(1.22886 0.00571141 0)
(1.22856 0.00405546 0)
(1.22831 0.00288312 0)
(1.22811 0.00206458 0)
(1.22793 0.00149829 0)
(1.22779 0.00110465 0)
(1.22767 0.000820535 0)
(1.22759 0.000594623 0)
(1.22755 0.000383352 0)
(1.22756 0.000147411 0)
(1.22763 -0.000151411 0)
(1.22779 -0.000553188 0)
(1.22806 -0.00110279 0)
(1.22847 -0.00185303 0)
(1.22907 -0.00286811 0)
(1.22991 -0.00422783 0)
(1.23106 -0.00603254 0)
(1.23259 -0.00840946 0)
(1.23459 -0.0115205 0)
(1.23716 -0.0155719 0)
(1.24041 -0.0208262 0)
(1.24445 -0.0276152 0)
(1.24938 -0.0363544 0)
(1.25524 -0.047553 0)
(1.26199 -0.0618151 0)
(1.26944 -0.0798168 0)
(1.27717 -0.102239 0)
(1.28441 -0.129629 0)
(1.28997 -0.162157 0)
(1.29229 -0.199286 0)
(1.28977 -0.239416 0)
(1.00311 0.0646882 0)
(1.03292 0.156129 0)
(1.07627 0.209913 0)
(1.12213 0.231237 0)
(1.16339 0.22889 0)
(1.19744 0.211539 0)
(1.22391 0.186295 0)
(1.24363 0.158267 0)
(1.25788 0.130742 0)
(1.26794 0.105586 0)
(1.2749 0.0836723 0)
(1.27964 0.0652355 0)
(1.28283 0.050133 0)
(1.28493 0.0380267 0)
(1.28629 0.0284981 0)
(1.28714 0.0211189 0)
(1.28765 0.0154883 0)
(1.28794 0.0112526 0)
(1.28807 0.00811048 0)
(1.28811 0.0058124 0)
(1.28809 0.00415577 0)
(1.28803 0.00297859 0)
(1.28795 0.0021526 0)
(1.28786 0.00157674 0)
(1.28778 0.00117115 0)
(1.2877 0.000871861 0)
(1.28765 0.000626248 0)
(1.28762 0.000388979 0)
(1.28764 0.000118509 0)
(1.28773 -0.000226117 0)
(1.28789 -0.000688285 0)
(1.28816 -0.00131682 0)
(1.28856 -0.00216915 0)
(1.28915 -0.00331487 0)
(1.28995 -0.00483978 0)
(1.29104 -0.00685078 0)
(1.29247 -0.00948171 0)
(1.29433 -0.0129004 0)
(1.29667 -0.017317 0)
(1.2996 -0.0229933 0)
(1.30316 -0.0302523 0)
(1.30741 -0.0394864 0)
(1.31233 -0.0511601 0)
(1.31781 -0.0657999 0)
(1.32358 -0.0839616 0)
(1.32917 -0.106158 0)
(1.33382 -0.132729 0)
(1.33646 -0.163646 0)
(1.3358 -0.198266 0)
(1.33059 -0.23512 0)
(1.00262 0.0543927 0)
(1.03031 0.133341 0)
(1.07285 0.181773 0)
(1.12023 0.203045 0)
(1.16541 0.203674 0)
(1.20506 0.190554 0)
(1.23794 0.169669 0)
(1.26416 0.145545 0)
(1.2845 0.121249 0)
(1.29994 0.0986356 0)
(1.31148 0.0786588 0)
(1.31999 0.0616638 0)
(1.3262 0.0476179 0)
(1.33067 0.0362768 0)
(1.33385 0.0272974 0)
(1.3361 0.0203093 0)
(1.33765 0.0149553 0)
(1.3387 0.0109136 0)
(1.33939 0.00790642 0)
(1.33983 0.00570102 0)
(1.34009 0.00410691 0)
(1.34023 0.0029706 0)
(1.34029 0.00216971 0)
(1.34029 0.00160707 0)
(1.34027 0.00120521 0)
(1.34024 0.000901397 0)
(1.34021 0.000643266 0)
(1.34021 0.000384964 0)
(1.34024 8.37108e-05 0)
(1.34033 -0.00030334 0)
(1.34049 -0.000822097 0)
(1.34074 -0.00152452 0)
(1.34113 -0.00247178 0)
(1.34168 -0.00373767 0)
(1.34242 -0.00541257 0)
(1.34342 -0.00760801 0)
(1.34471 -0.0104619 0)
(1.34636 -0.0141447 0)
(1.34842 -0.018866 0)
(1.35095 -0.0248818 0)
(1.35396 -0.0325002 0)
(1.35745 -0.0420846 0)
(1.36136 -0.0540501 0)
(1.36551 -0.0688463 0)
(1.36961 -0.0869194 0)
(1.37315 -0.10864 0)
(1.37541 -0.13419 0)
(1.37545 -0.163406 0)
(1.3722 -0.195607 0)
(1.36468 -0.229468 0)
(1.00228 0.0449136 0)
(1.02833 0.111423 0)
(1.07003 0.153556 0)
(1.11831 0.173451 0)
(1.16634 0.175882 0)
(1.21035 0.166223 0)
(1.24844 0.149368 0)
(1.28012 0.12918 0)
(1.3057 0.10839 0)
(1.32589 0.0887285 0)
(1.34153 0.0711454 0)
(1.35348 0.0560418 0)
(1.36247 0.043462 0)
(1.36916 0.0332406 0)
(1.37408 0.0251063 0)
(1.37764 0.0187491 0)
(1.38019 0.0138618 0)
(1.38199 0.0101618 0)
(1.38322 0.0074023 0)
(1.38406 0.00537433 0)
(1.3846 0.00390548 0)
(1.38494 0.00285581 0)
(1.38513 0.00211291 0)
(1.38524 0.00158681 0)
(1.38528 0.00120502 0)
(1.38529 0.000908083 0)
(1.38529 0.000645495 0)
(1.38531 0.000372155 0)
(1.38535 4.50996e-05 0)
(1.38543 -0.000379495 0)
(1.38558 -0.000949199 0)
(1.38582 -0.00171822 0)
(1.38617 -0.00275044 0)
(1.38666 -0.00412268 0)
(1.38732 -0.0059284 0)
(1.38819 -0.00828179 0)
(1.38931 -0.0113224 0)
(1.39072 -0.0152203 0)
(1.39244 -0.020181 0)
(1.39451 -0.0264502 0)
(1.39691 -0.0343169 0)
(1.39959 -0.044112 0)
(1.40245 -0.0561999 0)
(1.40529 -0.0709577 0)
(1.40775 -0.0887344 0)
(1.40936 -0.109785 0)
(1.40945 -0.134173 0)
(1.40719 -0.161649 0)
(1.40169 -0.191533 0)
(1.39221 -0.222647 0)
(1.00203 0.0360433 0)
(1.02684 0.0902267 0)
(1.06777 0.125399 0)
(1.11657 0.142894 0)
(1.16665 0.146153 0)
(1.21398 0.139257 0)
(1.25619 0.126075 0)
(1.29231 0.109769 0)
(1.32225 0.0926529 0)
(1.34647 0.0762443 0)
(1.36565 0.0614184 0)
(1.3806 0.0485793 0)
(1.39206 0.0378159 0)
(1.40073 0.0290244 0)
(1.4072 0.0219984 0)
(1.41196 0.0164887 0)
(1.41542 0.0122414 0)
(1.4179 0.00901927 0)
(1.41964 0.0066122 0)
(1.42084 0.00484098 0)
(1.42164 0.00355653 0)
(1.42217 0.00263693 0)
(1.4225 0.0019835 0)
(1.42269 0.0015165 0)
(1.4228 0.00117084 0)
(1.42285 0.000892253 0)
(1.42288 0.000633654 0)
(1.42291 0.000351936 0)
(1.42295 5.00198e-06 0)
(1.42303 -0.000451018 0)
(1.42317 -0.00106446 0)
(1.42338 -0.00189085 0)
(1.42368 -0.00299574 0)
(1.4241 -0.00445776 0)
(1.42465 -0.00637194 0)
(1.42538 -0.00885333 0)
(1.4263 -0.0120409 0)
(1.42742 -0.0161016 0)
(1.42878 -0.0212338 0)
(1.43034 -0.0276699 0)
(1.43209 -0.0356769 0)
(1.43395 -0.0455516 0)
(1.43576 -0.0576092 0)
(1.4373 -0.0721601 0)
(1.43822 -0.0894703 0)
(1.43805 -0.109702 0)
(1.43617 -0.132832 0)
(1.43188 -0.158563 0)
(1.42444 -0.186241 0)
(1.41327 -0.214821 0)
(1.00187 0.0276212 0)
(1.02574 0.0696058 0)
(1.06602 0.0973569 0)
(1.1151 0.111687 0)
(1.16663 0.114997 0)
(1.21641 0.11027 0)
(1.26178 0.10042 0)
(1.30136 0.0879001 0)
(1.33478 0.0745491 0)
(1.36226 0.0616085 0)
(1.38434 0.0498185 0)
(1.40177 0.039542 0)
(1.41529 0.0308822 0)
(1.42563 0.02378 0)
(1.43342 0.0180858 0)
(1.43921 0.0136095 0)
(1.44345 0.0101527 0)
(1.44652 0.00752726 0)
(1.44869 0.00556482 0)
(1.45021 0.00412058 0)
(1.45125 0.00307315 0)
(1.45194 0.00232253 0)
(1.45239 0.00178698 0)
(1.45266 0.00139961 0)
(1.45283 0.00110493 0)
(1.45292 0.000855581 0)
(1.45297 0.000609298 0)
(1.45301 0.000326136 0)
(1.45306 -3.41402e-05 0)
(1.45313 -0.000514536 0)
(1.45325 -0.00116327 0)
(1.45342 -0.00203626 0)
(1.45366 -0.00319969 0)
(1.45399 -0.00473279 0)
(1.45443 -0.00673074 0)
(1.45499 -0.0093078 0)
(1.45568 -0.0126004 0)
(1.45651 -0.01677 0)
(1.45746 -0.0220057 0)
(1.45851 -0.0285244 0)
(1.4596 -0.0365693 0)
(1.46062 -0.0464033 0)
(1.46141 -0.0582954 0)
(1.46171 -0.0724966 0)
(1.46119 -0.0892032 0)
(1.45938 -0.108505 0)
(1.45575 -0.130319 0)
(1.44969 -0.154322 0)
(1.44058 -0.179899 0)
(1.42796 -0.20613 0)
(1.00175 0.0195194 0)
(1.02497 0.049421 0)
(1.06476 0.0694409 0)
(1.11397 0.0800501 0)
(1.16647 0.082826 0)
(1.21799 0.0797951 0)
(1.26563 0.0729873 0)
(1.30777 0.0641455 0)
(1.34378 0.0546026 0)
(1.37371 0.0452762 0)
(1.39801 0.0367262 0)
(1.41735 0.0292382 0)
(1.43247 0.0229051 0)
(1.44411 0.0176967 0)
(1.45293 0.0135126 0)
(1.45953 0.0102195 0)
(1.46439 0.00767537 0)
(1.46792 0.00574379 0)
(1.47045 0.00430172 0)
(1.47223 0.00324241 0)
(1.47345 0.00247567 0)
(1.47428 0.00192645 0)
(1.47482 0.0015326 0)
(1.47517 0.00124229 0)
(1.47538 0.00101139 0)
(1.4755 0.000800931 0)
(1.47558 0.000574689 0)
(1.47562 0.000296898 0)
(1.47567 -6.99051e-05 0)
(1.47573 -0.00056702 0)
(1.47582 -0.00124171 0)
(1.47594 -0.00214938 0)
(1.47612 -0.00335588 0)
(1.47636 -0.0049399 0)
(1.47667 -0.00699549 0)
(1.47705 -0.00963457 0)
(1.4775 -0.0129893 0)
(1.47801 -0.0172142 0)
(1.47855 -0.0224869 0)
(1.47908 -0.0290077 0)
(1.47951 -0.0369957 0)
(1.47972 -0.046681 0)
(1.47952 -0.0582901 0)
(1.47866 -0.0720223 0)
(1.47681 -0.0880168 0)
(1.47353 -0.106308 0)
(1.46835 -0.126772 0)
(1.46074 -0.14908 0)
(1.4502 -0.172661 0)
(1.43637 -0.196706 0)
(1.00168 0.0116323 0)
(1.02448 0.0295408 0)
(1.06393 0.041631 0)
(1.11321 0.0481453 0)
(1.16631 0.0499771 0)
(1.21893 0.0483018 0)
(1.26804 0.0443155 0)
(1.31186 0.0390595 0)
(1.34959 0.0333406 0)
(1.38117 0.0277211 0)
(1.40696 0.0225496 0)
(1.42759 0.0180081 0)
(1.4438 0.0141601 0)
(1.45633 0.0109926 0)
(1.46587 0.00844828 0)
(1.47303 0.00644803 0)
(1.47832 0.0049064 0)
(1.48218 0.00374055 0)
(1.48495 0.00287504 0)
(1.48691 0.00224382 0)
(1.48827 0.0017904 0)
(1.4892 0.00146694 0)
(1.48981 0.00123281 0)
(1.4902 0.00105289 0)
(1.49045 0.000895817 0)
(1.4906 0.000732134 0)
(1.49069 0.000532618 0)
(1.49074 0.00026654 0)
(1.49078 -0.000100028 0)
(1.49082 -0.000605928 0)
(1.49088 -0.0012967 0)
(1.49096 -0.00222643 0)
(1.49107 -0.00345972 0)
(1.4912 -0.00507369 0)
(1.49137 -0.00716007 0)
(1.49156 -0.00982718 0)
(1.49177 -0.0132016 0)
(1.49196 -0.0174294 0)
(1.49209 -0.0226758 0)
(1.49211 -0.0291237 0)
(1.4919 -0.0369685 0)
(1.49133 -0.0464096 0)
(1.4902 -0.0576352 0)
(1.48827 -0.0708008 0)
(1.48521 -0.0859992 0)
(1.48063 -0.103223 0)
(1.47409 -0.122325 0)
(1.46515 -0.142979 0)
(1.4534 -0.164663 0)
(1.43854 -0.186665 0)
(1.00165 0.00386864 0)
(1.02424 0.00984028 0)
(1.06353 0.0138905 0)
(1.11282 0.016094 0)
(1.16621 0.0167403 0)
(1.21937 0.0162149 0)
(1.26921 0.014913 0)
(1.31385 0.0131812 0)
(1.35245 0.0112896 0)
(1.38485 0.00942804 0)
(1.41139 0.0077149 0)
(1.43268 0.00621284 0)
(1.44945 0.00494457 0)
(1.46243 0.0039067 0)
(1.47233 0.00308053 0)
(1.47978 0.00243975 0)
(1.48529 0.00195547 0)
(1.48932 0.00159928 0)
(1.49223 0.00134478 0)
(1.49428 0.00116817 0)
(1.49572 0.00104817 0)
(1.4967 0.000965544 0)
(1.49735 0.000902432 0)
(1.49778 0.000841483 0)
(1.49804 0.000764949 0)
(1.49821 0.000653704 0)
(1.4983 0.000486204 0)
(1.49836 0.000237384 0)
(1.49839 -0.000122534 0)
(1.49841 -0.00062932 0)
(1.49844 -0.00132613 0)
(1.49847 -0.002265 0)
(1.4985 -0.00350847 0)
(1.49853 -0.00513118 0)
(1.49856 -0.00722157 0)
(1.49856 -0.00988327 0)
(1.49852 -0.0132362 0)
(1.4984 -0.017417 0)
(1.49813 -0.0225779 0)
(1.49764 -0.0288843 0)
(1.49683 -0.036509 0)
(1.49553 -0.0456229 0)
(1.49355 -0.0563807 0)
(1.49064 -0.0689011 0)
(1.4865 -0.0832401 0)
(1.48077 -0.099361 0)
(1.47306 -0.117102 0)
(1.463 -0.13615 0)
(1.45024 -0.156029 0)
(1.43455 -0.176117 0)
(1.00165 -0.00385483 0)
(1.02424 -0.009801 0)
(1.06353 -0.0138263 0)
(1.11283 -0.0160042 0)
(1.16622 -0.0166232 0)
(1.21938 -0.0160675 0)
(1.26921 -0.0147316 0)
(1.31386 -0.012961 0)
(1.35246 -0.0110252 0)
(1.38486 -0.00911281 0)
(1.4114 -0.00734167 0)
(1.4327 -0.00577369 0)
(1.44947 -0.00443104 0)
(1.46246 -0.00331003 0)
(1.47237 -0.00239203 0)
(1.47982 -0.00165125 0)
(1.48534 -0.00106003 0)
(1.48938 -0.000592042 0)
(1.49229 -0.000224178 0)
(1.49435 6.2546e-05 0)
(1.4958 0.00028261 0)
(1.49679 0.00044591 0)
(1.49745 0.000557802 0)
(1.49788 0.000619127 0)
(1.49816 0.000626175 0)
(1.49833 0.00057051 0)
(1.49843 0.000438653 0)
(1.49848 0.000211593 0)
(1.4985 -0.000135868 0)
(1.4985 -0.000635953 0)
(1.49849 -0.00132889 0)
(1.49847 -0.00226408 0)
(1.49843 -0.00350126 0)
(1.49836 -0.00511187 0)
(1.49825 -0.00718019 0)
(1.49807 -0.00980432 0)
(1.49779 -0.0130968 0)
(1.49736 -0.017184 0)
(1.49671 -0.0222052 0)
(1.49575 -0.0283087 0)
(1.49437 -0.0356457 0)
(1.4924 -0.0443618 0)
(1.48965 -0.0545825 0)
(1.48587 -0.0663959 0)
(1.48078 -0.0798299 0)
(1.47406 -0.094827 0)
(1.46536 -0.11122 0)
(1.45435 -0.128713 0)
(1.44077 -0.146877 0)
(1.42441 -0.165165 0)
(1.00168 -0.0116187 0)
(1.02448 -0.0295021 0)
(1.06394 -0.0415678 0)
(1.11321 -0.0480567 0)
(1.16632 -0.0498615 0)
(1.21894 -0.0481562 0)
(1.26806 -0.0441362 0)
(1.31188 -0.0388419 0)
(1.34962 -0.0330792 0)
(1.3812 -0.0274094 0)
(1.407 -0.0221805 0)
(1.42765 -0.0175737 0)
(1.44387 -0.0136521 0)
(1.45642 -0.0104023 0)
(1.46597 -0.00776702 0)
(1.47314 -0.00566769 0)
(1.47846 -0.00402005 0)
(1.48234 -0.00274332 0)
(1.48514 -0.00176529 0)
(1.48712 -0.00102466 0)
(1.48851 -0.000471651 0)
(1.48947 -6.7608e-05 0)
(1.49011 0.000215742 0)
(1.49053 0.000397225 0)
(1.4908 0.000487046 0)
(1.49096 0.00048743 0)
(1.49106 0.00039302 0)
(1.4911 0.000191008 0)
(1.49111 -0.000138998 0)
(1.4911 -0.000625352 0)
(1.49105 -0.00130496 0)
(1.49098 -0.00222406 0)
(1.49086 -0.00343908 0)
(1.4907 -0.00501757 0)
(1.49045 -0.00703902 0)
(1.49009 -0.00959537 0)
(1.48959 -0.0127911 0)
(1.48887 -0.0167424 0)
(1.48786 -0.0215753 0)
(1.48648 -0.0274216 0)
(1.48457 -0.0344132 0)
(1.482 -0.0426724 0)
(1.47856 -0.0523003 0)
(1.47402 -0.0633599 0)
(1.46812 -0.0758578 0)
(1.46055 -0.0897233 0)
(1.45103 -0.10479 0)
(1.43927 -0.120782 0)
(1.42503 -0.137314 0)
(1.40817 -0.153906 0)
(1.00175 -0.0195063 0)
(1.02497 -0.0493834 0)
(1.06476 -0.0693793 0)
(1.11398 -0.0799638 0)
(1.16649 -0.0827131 0)
(1.21801 -0.079653 0)
(1.26565 -0.0728123 0)
(1.3078 -0.0639329 0)
(1.34383 -0.0543471 0)
(1.37377 -0.0449715 0)
(1.39809 -0.0363654 0)
(1.41744 -0.0288134 0)
(1.43258 -0.0224081 0)
(1.44424 -0.017119 0)
(1.4531 -0.0128457 0)
(1.45972 -0.00945536 0)
(1.46462 -0.00680706 0)
(1.46819 -0.00476644 0)
(1.47076 -0.00321354 0)
(1.47258 -0.00204625 0)
(1.47385 -0.00118088 0)
(1.47473 -0.00055131 0)
(1.47532 -0.000107412 0)
(1.47571 0.000186785 0)
(1.47596 0.000354772 0)
(1.47611 0.000409002 0)
(1.47619 0.00035198 0)
(1.47623 0.000176995 0)
(1.47623 -0.000131505 0)
(1.47619 -0.000597845 0)
(1.47611 -0.00125534 0)
(1.47599 -0.00214671 0)
(1.47581 -0.00332463 0)
(1.47555 -0.00485228 0)
(1.47518 -0.00680384 0)
(1.47466 -0.00926466 0)
(1.47394 -0.0123309 0)
(1.47296 -0.0161084 0)
(1.47164 -0.0207102 0)
(1.46986 -0.0262529 0)
(1.4675 -0.0328503 0)
(1.4644 -0.0406048 0)
(1.46036 -0.0495965 0)
(1.45517 -0.0598687 0)
(1.44858 -0.0714122 0)
(1.44033 -0.0841487 0)
(1.43014 -0.0979166 0)
(1.41778 -0.112462 0)
(1.40306 -0.127441 0)
(1.38586 -0.142434 0)
(1.00187 -0.0276087 0)
(1.02574 -0.0695698 0)
(1.06603 -0.0972978 0)
(1.11511 -0.111604 0)
(1.16665 -0.114889 0)
(1.21644 -0.110133 0)
(1.26181 -0.100252 0)
(1.30141 -0.087695 0)
(1.33485 -0.0743024 0)
(1.36234 -0.0613142 0)
(1.38445 -0.0494698 0)
(1.4019 -0.0391313 0)
(1.41545 -0.0304015 0)
(1.42582 -0.023221 0)
(1.43364 -0.0174401 0)
(1.43948 -0.0128693 0)
(1.44377 -0.00931114 0)
(1.44688 -0.00657937 0)
(1.44912 -0.00450867 0)
(1.4507 -0.0029586 0)
(1.4518 -0.00181403 0)
(1.45256 -0.000983492 0)
(1.45307 -0.000396793 0)
(1.45341 -2.26754e-06 0)
(1.45363 0.000235746 0)
(1.45376 0.000339107 0)
(1.45383 0.000317619 0)
(1.45386 0.000170325 0)
(1.45384 -0.000113639 0)
(1.45379 -0.000554572 0)
(1.45368 -0.00118206 0)
(1.45352 -0.00203508 0)
(1.45328 -0.00316222 0)
(1.45293 -0.00462195 0)
(1.45245 -0.00648282 0)
(1.45178 -0.00882325 0)
(1.45088 -0.011731 0)
(1.44967 -0.0153016 0)
(1.44806 -0.0196359 0)
(1.44594 -0.0248361 0)
(1.44319 -0.0309997 0)
(1.43963 -0.038212 0)
(1.4351 -0.0465355 0)
(1.42937 -0.0559981 0)
(1.42222 -0.0665794 0)
(1.41342 -0.0781981 0)
(1.40272 -0.0907006 0)
(1.38993 -0.103856 0)
(1.37488 -0.117358 0)
(1.35748 -0.13084 0)
(1.00203 -0.0360316 0)
(1.02684 -0.0901928 0)
(1.06777 -0.125343 0)
(1.11658 -0.142816 0)
(1.16667 -0.14605 0)
(1.21401 -0.139127 0)
(1.25624 -0.125914 0)
(1.29237 -0.109574 0)
(1.32233 -0.0924177 0)
(1.34657 -0.0759635 0)
(1.36578 -0.0610855 0)
(1.38075 -0.048187 0)
(1.39225 -0.0373564 0)
(1.40096 -0.0284898 0)
(1.40748 -0.0213805 0)
(1.41229 -0.0157799 0)
(1.41581 -0.0114349 0)
(1.41835 -0.00811003 0)
(1.42016 -0.00559811 0)
(1.42144 -0.003724 0)
(1.42233 -0.00234446 0)
(1.42294 -0.00134568 0)
(1.42336 -0.000639878 0)
(1.42363 -0.000161702 0)
(1.42381 0.000135123 0)
(1.42392 0.00028069 0)
(1.42397 0.000291267 0)
(1.42399 0.000171091 0)
(1.42396 -8.63439e-05 0)
(1.42389 -0.000497453 0)
(1.42376 -0.00108809 0)
(1.42356 -0.00189336 0)
(1.42327 -0.00295758 0)
(1.42285 -0.0043343 0)
(1.42227 -0.00608617 0)
(1.42148 -0.00828464 0)
(1.42041 -0.011009 0)
(1.419 -0.0143448 0)
(1.41715 -0.0183814 0)
(1.41475 -0.0232076 0)
(1.41166 -0.0289067 0)
(1.40774 -0.0355489 0)
(1.4028 -0.0431824 0)
(1.39665 -0.0518234 0)
(1.38907 -0.0614441 0)
(1.37986 -0.0719635 0)
(1.36881 -0.0832381 0)
(1.35573 -0.0950594 0)
(1.34051 -0.107157 0)
(1.32305 -0.119211 0)
(1.00228 -0.0449028 0)
(1.02833 -0.111392 0)
(1.07004 -0.153504 0)
(1.11833 -0.173378 0)
(1.16637 -0.175785 0)
(1.21039 -0.166101 0)
(1.24849 -0.149217 0)
(1.28019 -0.128996 0)
(1.30579 -0.108169 0)