/*--------------------------------*- C++ -*----------------------------------*\
  =========                 |
  \\      /  F ield         | OpenFOAM: The Open Source CFD Toolbox
   \\    /   O peration     | Website:  https://openfoam.org
    \\  /    A nd           | Version:  6
     \\/     M anipulation  |
\*---------------------------------------------------------------------------*/
FoamFile
{
    version     2.0;
    format      ascii;
    class       volScalarField;
    location    "1000";
    object      alphat;
}
// * * * * * * * * * * * * * * * * * * * * * * * * * * * * * * * * * * * * * //

dimensions      [1 -1 -1 0 0 0 0];

internalField   nonuniform List<scalar> 
16000
(
6.0687356e-06
2.4782845e-05
2.6944435e-05
3.8439383e-05
3.3115227e-05
4.2656172e-05
4.2189185e-05
4.7609277e-05
4.9270036e-05
4.9340289e-05
5.0224076e-05
4.8591261e-05
4.8800933e-05
4.7509691e-05
4.7546416e-05
4.6932193e-05
4.7126446e-05
4.7152787e-05
4.7636306e-05
4.8165275e-05
4.8997461e-05
4.9977468e-05
5.1211493e-05
5.2654212e-05
5.4359765e-05
5.6332613e-05
5.861647e-05
6.1243953e-05
6.4267931e-05
6.77465e-05
7.1755175e-05
7.6384842e-05
8.1748185e-05
8.7982646e-05
9.5257561e-05
0.00010378072
0.00011380763
0.00012565242
0.00013970146
0.00015642968
0.00017642087
0.00020039446
0.00022923379
0.00026402165
0.00030608261
0.00035703123
0.00041882339
0.00049381255
0.00058480452
0.00069510526
0.00082855411
0.00098955831
0.0011831658
0.0012245023
0.0012257856
0.0012260285
0.001225516
0.0012245753
0.0012234272
0.0012221092
0.0012204812
0.0012185896
0.0012163547
0.0012136902
0.0012105297
0.0012069026
0.0012029328
0.0011989888
0.0011952619
0.0011920542
0.0011889743
0.0011867024
0.0011839845
0.0011826816
0.0011799139
0.0011810306
0.0011773013
0.0011848309
0.0011743425
0.0011839794
5.0522859e-06
2.4518605e-05
2.4713593e-05
3.5157635e-05
3.0598716e-05
3.847193e-05
3.8871433e-05
4.2549e-05
4.4966011e-05
4.3967257e-05
4.5292384e-05
4.3245866e-05
4.3637631e-05
4.2202551e-05
4.2310365e-05
4.1696557e-05
4.1898903e-05
4.1903115e-05
4.2341673e-05
4.2808429e-05
4.3551174e-05
4.4423369e-05
4.5522035e-05
4.6806015e-05
4.8322822e-05
5.0076696e-05
5.2105576e-05
5.4438484e-05
5.712147e-05
6.02056e-05
6.3756809e-05
6.7854668e-05
7.2597738e-05
7.8106079e-05
8.4527496e-05
9.2043234e-05
0.00010087589
0.00011129879
0.00012364766
0.00013833453
0.00015586454
0.00017685947
0.00020208171
0.00023246422
0.00026914703
0.00031351993
0.00036726804
0.00043242425
0.0005114244
0.00060716156
0.00072303809
0.00086301209
0.0010316768
0.001223323
0.0012248286
0.0012252101
0.0012247454
0.0012237939
0.0012226256
0.0012213209
0.0012198515
0.0012181123
0.001216027
0.0012135026
0.0012104654
0.0012069119
0.0012029652
0.0011989693
0.0011952252
0.0011919308
0.0011889034
0.0011864714
0.0011839701
0.0011825496
0.0011799825
0.0011803428
0.0011771957
0.0011835939
0.0011743797
0.001183664
4.3159959e-06
2.4251642e-05
2.2971169e-05
3.2356945e-05
2.85985e-05
3.4905959e-05
3.6355358e-05
3.8086183e-05
4.1279035e-05
3.9066787e-05
4.0777582e-05
3.831999e-05
3.8858599e-05
3.7372598e-05
3.7551709e-05
3.6963e-05
3.7171446e-05
3.7173284e-05
3.7577284e-05
3.800236e-05
3.8674968e-05
3.9464467e-05
4.0455407e-05
4.1613286e-05
4.297852e-05
4.4556421e-05
4.6379811e-05
4.8475252e-05
5.088333e-05
5.3649685e-05
5.6832742e-05
6.0503207e-05
6.4748533e-05
6.9675229e-05
7.5414256e-05
8.2126164e-05
9.0007855e-05
9.9300977e-05
0.00011030199
0.00012337414
0.00013896169
0.00015761086
0.00017999028
0.00020691678
0.00023938688
0.00027861444
0.0003260711
0.00038353323
0.0004531347
0.00053742098
0.00063940696
0.00076263342
0.00091124027
0.001090079
0.0012238997
0.0012244342
0.0012240249
0.0012230588
0.0012218566
0.0012205253
0.0012190536
0.0012174079
0.0012155057
0.0012131535
0.0012102687
0.0012068228
0.0012029184
0.001198896
0.0011951282
0.0011917874
0.001188777
0.0011862614
0.0011838745
0.0011823759
0.0011800056
0.0011798774
0.0011771525
0.0011825295
0.0011743628
0.0011827291
3.843921e-06
2.3891566e-05
2.1505138e-05
2.9734462e-05
2.671905e-05
3.1645666e-05
3.3906606e-05
3.4091618e-05
3.7693352e-05
3.4694036e-05
3.6534279e-05
3.3898385e-05
3.4496849e-05
3.3097354e-05
3.3292655e-05
3.2764818e-05
3.2963673e-05
3.2979609e-05
3.33509e-05
3.3747272e-05
3.4360525e-05
3.5082811e-05
3.5983269e-05
3.7035683e-05
3.8273339e-05
3.9703131e-05
4.1353415e-05
4.3248955e-05
4.5425896e-05
4.7925542e-05
5.0800239e-05
5.4113615e-05
5.7944201e-05
6.23877e-05
6.7561645e-05
7.3610141e-05
8.0709852e-05
8.9077358e-05
9.8978474e-05
0.00011073857
0.00012475452
0.00014151431
0.00016161472
0.00018578394
0.00021490918
0.00025007118
0.00029258007
0.00034401821
0.00040629013
0.00048167501
0.00057288641
0.00068313453
0.00081619761
0.00097652746
0.0011693785
0.0012236815
0.001223338
0.0012223562
0.0012211125
0.0012197439
0.0012182432
0.0012165869
0.0012147339
0.001212592
0.0012098969
0.0012065975
0.0012027662
0.0011987409
0.0011949579
0.001191594
0.0011885952
0.0011860336
0.0011837228
0.0011820767
0.0011799921
0.0011796068
0.0011771242
0.0011814576
0.0011743821
0.0011821692
3.4550932e-06
2.3399173e-05
2.0327631e-05
2.7302182e-05
2.4992597e-05
2.8666895e-05
3.1598968e-05
3.0476557e-05
3.4247882e-05
3.073e-05
3.2549289e-05
2.9957714e-05
3.0535701e-05
2.9273701e-05
2.9456794e-05
2.9007033e-05
2.9190804e-05
2.9229253e-05
2.9572278e-05
2.9948678e-05
3.0512513e-05
3.117962e-05
3.2004164e-05
3.2967928e-05
3.4097817e-05
3.540229e-05
3.6905995e-05
3.863221e-05
4.0613477e-05
4.2887548e-05
4.5501784e-05
4.8513994e-05
5.199545e-05
5.6032997e-05
6.0733252e-05
6.6227002e-05
7.2674525e-05
8.0272205e-05
8.926119e-05
9.9936804e-05
0.00011265816
0.00012786708
0.00014610376
0.00016802694
0.0001944384
0.00022631536
0.00026484267
0.00031145249
0.00036787161
0.00043617184
0.00051882979
0.00061879147
0.00073954691
0.00088522501
0.0010607297
0.001222938
0.0012226765
0.0012216808
0.0012203908
0.0012189791
0.0012174417
0.0012157586
0.0012138983
0.0012118034
0.0012093397
0.0012062301
0.0012025082
0.0011985039
0.0011947178
0.0011913495
0.0011883633
0.001185784
0.0011835253
0.0011817874
0.0011799263
0.0011793394
0.0011771055
0.0011805081
0.0011743952
0.0011813792
3.1250018e-06
2.0124477e-05
1.9277881e-05
2.5003011e-05
2.3429508e-05
2.5915637e-05
2.9425421e-05
2.7191597e-05
3.0959556e-05
2.717152e-05
2.8850462e-05
2.6469949e-05
2.6976205e-05
2.5878027e-05
2.6032198e-05
2.5666236e-05
2.5832869e-05
2.5896787e-05
2.621602e-05
2.6578092e-05
2.7101204e-05
2.7722997e-05
2.8484422e-05
2.9374228e-05
3.041407e-05
3.1613657e-05
3.2994675e-05
3.457915e-05
3.6396744e-05
3.8482296e-05
4.0879121e-05
4.3640276e-05
4.6831139e-05
5.0531371e-05
5.4838763e-05
5.9873273e-05
6.5782029e-05
7.2745183e-05
8.0983938e-05
9.0769833e-05
0.00010243176
0.00011637465
0.00013309378
0.00015319291
0.00017740593
0.00020662809
0.00024194508
0.00028466973
0.00033638747
0.00039900375
0.00047480323
0.00056651478
0.00067738701
0.00081127965
0.00097279242
0.0011674049
0.0012220257
0.0012210215
0.0012196815
0.0012182223
0.0012166437
0.0012149273
0.0012130465
0.0012109584
0.0012085802
0.0012057092
0.0012021394
0.0011981822
0.0011944073
0.0011910513
0.0011880843
0.0011855086
0.0011832903
0.0011815008
0.001179809
0.0011790635
0.0011770928
0.0011797329
0.0011744349
0.0011808206
2.8152282e-06
1.9177923e-05
1.7994517e-05
2.2830411e-05
2.2015419e-05
2.3391778e-05
2.7349462e-05
2.4207753e-05
2.7823961e-05
2.4040064e-05
2.549613e-05
2.3383789e-05
2.3789327e-05
2.2861758e-05
2.2979519e-05
2.2694573e-05
2.284466e-05
2.2933152e-05
2.3232788e-05
2.3583817e-05
2.4073312e-05
2.4657318e-05
2.5366038e-05
2.619374e-05
2.7158023e-05
2.8269417e-05
2.9547319e-05
3.1012655e-05
3.2692743e-05
3.4620057e-05
3.6834582e-05
3.9385428e-05
4.2333202e-05
4.575167e-05
4.9731388e-05
5.438356e-05
5.9844596e-05
6.6281477e-05
7.3899204e-05
8.2950374e-05
9.3739442e-05
0.00010664173
0.00012211645
0.0001407236
0.00016314272
0.00019020369
0.00022291337
0.00026248936
0.0003104043
0.00036843046
0.00043869754
0.00052375755
0.00062665996
0.00075104291
0.00090125123
0.0010824858
0.0012213715
0.0012203687
0.0012189765
0.001217467
0.0012158441
0.0012140907
0.0012121831
0.0012100859
0.001207739
0.0012050234
0.0012016563
0.0011977753
0.0011940272
0.0011906989
0.0011877606
0.0011852048
0.0011830213
0.001181215
0.0011796478
0.0011787261
0.0011770781
0.0011790691
0.0011744766
0.0011802669
2.5470075e-06
1.8643504e-05
1.6804982e-05
2.0798422e-05
2.0711015e-05
2.1048887e-05
2.5297723e-05
2.1527785e-05
2.4803286e-05
2.1260025e-05
2.2451552e-05
2.0636751e-05
2.0934109e-05
2.0173314e-05
2.0256697e-05
2.0047138e-05
2.0184832e-05
2.0296591e-05
2.0581857e-05
2.0924939e-05
2.1387802e-05
2.1940983e-05
2.2606548e-05
2.3382866e-05
2.4284494e-05
2.5322546e-05
2.6514618e-05
2.7880664e-05
2.9446158e-05
3.1241596e-05
3.3304326e-05
3.5680129e-05
3.8425782e-05
4.1610235e-05
4.5318128e-05
4.9653579e-05
5.4744303e-05
6.0746644e-05
6.7852295e-05
7.6298941e-05
8.6371205e-05
9.8420511e-05
0.00011287698
0.00013026575
0.00015122241
0.00017652426
0.00020711498
0.00024413539
0.00028896733
0.00034327505
0.00040906218
0.00048873529
0.00058517864
0.00070184463
0.00084286533
0.0010132019
0.0012187913
0.0012197114
0.0012182664
0.0012167051
0.0012150363
0.0012132438
0.0012113062
0.0012091927
0.0012068547
0.001204205
0.0012010559
0.0011972842
0.0011935793
0.0011902937
0.0011873956
0.0011848738
0.0011827248
0.0011809275
0.001179452
0.0011784035
0.0011770551
0.0011784534
0.0011745268
0.0011797964
2.3147477e-06
1.8057118e-05
1.5692486e-05
1.8864419e-05
1.9492597e-05
1.883777e-05
2.3229699e-05
1.9125078e-05
2.1926948e-05
1.8775431e-05
1.9696345e-05
1.8181775e-05
1.8378647e-05
1.77722e-05
1.7828431e-05
1.7686492e-05
1.7817234e-05
1.7950353e-05
1.8226334e-05
1.8564094e-05
1.9006476e-05
1.953494e-05
2.0165608e-05
2.0899852e-05
2.1750017e-05
2.272748e-05
2.3848565e-05
2.5132324e-05
2.6602778e-05
2.8288817e-05
3.0225632e-05
3.2456289e-05
3.5034424e-05
3.8025093e-05
4.1508162e-05
4.5581923e-05
5.0367134e-05
5.6011628e-05
6.2695923e-05
7.0646322e-05
8.0131235e-05
9.148282e-05
0.0001051077
0.00012150334
0.00014126971
0.00016514177
0.00019401266
0.00022896107
0.00027129585
0.00032259397
0.00038475656
0.00046007126
0.00055128624
0.00066169956
0.00079526861
0.00095675349
0.001151872
0.0012190389
0.0012175422
0.0012159288
0.0012142138
0.0012123819
0.0012104131
0.0012082803
0.0012059428
0.0012033343
0.0012003352
0.0011967117
0.0011930662
0.001189838
0.0011869925
0.0011845172
0.0011824067
0.0011806386
0.0011792314
0.0011781138
0.0011770208
0.0011778927
0.0011745919
0.0011793295
2.113563e-06
1.7386872e-05
1.4655978e-05
1.701363e-05
1.8343169e-05
1.6832466e-05
2.1126421e-05
1.6966039e-05
1.9260793e-05
1.6549968e-05
1.7218144e-05
1.59859e-05
1.6098187e-05
1.5628054e-05
1.5666292e-05
1.5583106e-05
1.5712259e-05
1.586464e-05
1.6135788e-05
1.6470491e-05
1.6897795e-05
1.7406926e-05
1.8009966e-05
1.8710303e-05
1.9518803e-05
2.0446887e-05
2.1509935e-05
2.2726228e-05
2.4118627e-05
2.5714744e-05
2.7548038e-05
2.9659324e-05
3.2099729e-05
3.4931183e-05
3.8229692e-05
4.208882e-05
4.6623827e-05
5.197586e-05
5.8315804e-05
6.5861764e-05
7.4868884e-05
8.5653811e-05
9.8604044e-05
0.00011419569
0.00013299962
0.00015571663
0.00018319972
0.00021647726
0.00025679969
0.00030567344
0.00036491657
0.00043671995
0.00052372016
0.00062908786
0.00075663595
0.00091095686
0.0010975807
0.0012183401
0.001216795
0.0012151305
0.0012133704
0.0012114998
0.0012095004
0.0012073475
0.0012050062
0.0012024219
0.0011995001
0.0011960625
0.0011924922
0.0011893355
0.0011865556
0.0011841377
0.0011820728
0.0011803482
0.0011789928
0.0011778549
0.0011769741
0.001177399
0.0011746726
0.0011788704
1.9389507e-06
1.6604752e-05
1.3692057e-05
1.5231621e-05
1.7232334e-05
1.5015372e-05
1.8978698e-05
1.5019269e-05
1.6814417e-05
1.4552162e-05
1.5000328e-05
1.4020317e-05
1.4067843e-05
1.3714204e-05
1.3743926e-05
1.3710942e-05
1.3843366e-05
1.4013158e-05
1.4222514e-05
1.4546473e-05
1.4956049e-05
1.5444718e-05
1.6021174e-05
1.6689588e-05
1.745942e-05
1.8341764e-05
1.9351024e-05
2.0504598e-05
2.1824176e-05
2.3336157e-05
2.5072433e-05
2.7071635e-05
2.9382661e-05
3.2064601e-05
3.5190024e-05
3.8848282e-05
4.3149737e-05
4.8230198e-05
5.461383e-05
6.1833574e-05
7.0456126e-05
8.0785887e-05
9.319449e-05
0.00010814229
0.0001261764
0.00014797001
0.00017434497
0.00020628874
0.00024500567
0.00029194572
0.00034886027
0.00041786226
0.00050149801
0.00060283482
0.00072556771
0.00087415219
0.0010539641
0.0012176045
0.0012160165
0.0012143034
0.0012125003
0.0012105932
0.0012085648
0.0012063928
0.001204047
0.0012014825
0.0011986255
0.0011953425
0.0011918624
0.0011887908
0.001186089
0.0011837391
0.0011817285
0.0011800578
0.0011787437
0.0011776225
0.0011769133
0.0011769843
0.0011747699
0.0011784679
1.7873077e-06
1.5695885e-05
1.2790885e-05
1.3507296e-05
1.611547e-05
1.3364249e-05
1.680654e-05
1.3256958e-05
1.4591028e-05
1.2754717e-05
1.3023821e-05
1.2260523e-05
1.2263983e-05
1.2007885e-05
1.1979909e-05
1.1968061e-05
1.2095556e-05
1.2274643e-05
1.2541566e-05
1.2873911e-05
1.3282584e-05
1.3765027e-05
1.4328652e-05
1.4978742e-05
1.5724227e-05
1.6576247e-05
1.7548737e-05
1.8658615e-05
1.9926838e-05
2.1379036e-05
2.3046172e-05
2.4965183e-05
2.7183486e-05
2.9758219e-05
3.2759507e-05
3.6273622e-05
4.0407315e-05
4.5293671e-05
5.1091743e-05
5.7998445e-05
6.6254536e-05
7.615402e-05
8.8739049e-05
0.00010318023
0.00012060938
0.00014167718
0.00016718244
0.00019807911
0.00023553613
0.00028095891
0.00033604607
0.00040284881
0.00048384174
0.00058200986
0.00070095443
0.00084502241
0.001019467
0.0012168218
0.0012151995
0.0012134412
0.0012115986
0.0012096581
0.0012076036
0.0012054147
0.0012030652
0.001200518
0.0011977155
0.0011945598
0.0011911835
0.0011882096
0.0011855975
0.0011833252
0.0011813787
0.0011797688
0.0011784913
0.0011774121
0.0011768355
0.0011766494
0.00117488
0.0011781428
1.6563756e-06
1.4657142e-05
1.1952862e-05
1.1939487e-05
1.4954418e-05
1.1858893e-05
1.4711729e-05
1.1656735e-05
1.2590718e-05
1.1136087e-05
1.1269664e-05
1.0687041e-05
1.0580886e-05
1.0378423e-05
1.0401284e-05
1.0443484e-05
1.0594203e-05
1.0797739e-05
1.1076127e-05
1.1416182e-05
1.1825455e-05
1.2303934e-05
1.2858367e-05
1.3494796e-05
1.4221749e-05
1.505039e-05
1.5994309e-05
1.7070001e-05
1.8297824e-05
1.9702819e-05
2.1315407e-05
2.3170977e-05
2.5315915e-05
2.7805896e-05
3.0709244e-05
3.4109831e-05
3.8111099e-05
4.2844254e-05
4.8463935e-05
5.5162424e-05
6.3174774e-05
7.2788555e-05
8.4357307e-05
9.8304909e-05
0.00011515118
0.00013665168
0.0001614926
0.00019158827
0.00022808185
0.00027234447
0.00032603401
0.00039115402
0.00047012369
0.00056586436
0.00068190502
0.00082251063
0.00099284241
0.0011991372
0.0012143379
0.001212539
0.0012106611
0.0012086916
0.0012066149
0.0012044126
0.0012020614
0.0011995305
0.0011967751
0.0011937236
0.0011904631
0.001187598
0.001185086
0.0011829005
0.0011810278
0.0011794829
0.0011782411
0.0011772205
0.0011767386
0.0011763802
0.0011749977
0.0011778707
1.5436623e-06
1.3492218e-05
1.1169784e-05
1.051674e-05
1.3710075e-05
1.0485806e-05
1.2731001e-05
1.0203977e-05
1.0810941e-05
9.6811379e-06
9.6251498e-06
9.1442778e-06
9.0904942e-06
8.9791678e-06
9.0320742e-06
9.1176627e-06
9.2897558e-06
9.5139416e-06
9.8034636e-06
1.0151075e-05
1.0562494e-05
1.1039273e-05
1.1587868e-05
1.2214904e-05
1.2928554e-05
1.3740007e-05
1.4662608e-05
1.5712504e-05
1.6909537e-05
1.8278258e-05
1.9772094e-05
2.1564187e-05
2.3635708e-05
2.6040895e-05
2.8846415e-05
3.2134022e-05
3.621093e-05
4.0827593e-05
4.6312206e-05
5.2853783e-05
6.0683105e-05
7.0081559e-05
8.1398831e-05
9.5049414e-05
0.00011154421
0.00013150711
0.00015568789
0.00018659915
0.00022238531
0.00026579615
0.00031845921
0.00038234285
0.00045982524
0.00055378065
0.00066768489
0.00080574432
0.00097305495
0.0011757841
0.001213427
0.0012115929
0.0012096852
0.0012076916
0.0012055977
0.0012033863
0.0012010368
0.0011985231
0.0011958097
0.0011928444
0.0011897097
0.0011869627
0.0011845594
0.0011824691
0.0011806792
0.0011792017
0.0011779979
0.001177047
0.0011766182
0.001176098
0.0011751165
0.0011776477
1.447864e-06
1.2216347e-05
1.0432009e-05
9.2232478e-06
1.2344876e-05
9.2291355e-06
1.0892039e-05
8.8822798e-06
9.2415728e-06
8.2307774e-06
8.1561324e-06
7.8329962e-06
7.80703e-06
7.7669286e-06
7.8483404e-06
7.9692695e-06
8.1611985e-06
8.4033802e-06
8.7039234e-06
9.0593247e-06
9.474444e-06
9.9517443e-06
1.049757e-05
1.1091973e-05
1.1790127e-05
1.2582662e-05
1.348244e-05
1.4505043e-05
1.5669576e-05
1.6999672e-05
1.8524135e-05
2.0278334e-05
2.2305756e-05
2.4659947e-05
2.7406849e-05
3.0627715e-05
3.4422597e-05
3.8914705e-05
4.4255595e-05
5.0631404e-05
5.8269399e-05
6.7957073e-05
7.9098519e-05
9.2542066e-05
0.00010879053
0.00012846265
0.00015229753
0.00018119931
0.00021822515
0.00026105108
0.00031300905
0.00037604318
0.00045250352
0.00054523211
0.00065766869
0.00079398156
0.00095922535
0.0011595256
0.0012124642
0.0012106009
0.0012086693
0.0012066575
0.001204552
0.0012023369
0.0011999935
0.0011974992
0.0011948256
0.0011919337
0.0011889325
0.0011863106
0.0011840227
0.001182035
0.0011803354
0.0011789272
0.0011777663
0.001176887
0.001176482
0.0011758616
0.0011752219
0.0011774446
1.3687949e-06
1.0843564e-05
9.7312475e-06
8.0483876e-06
1.0901451e-05
8.0769174e-06
9.2305525e-06
7.6197537e-06
7.6597816e-06
6.9756319e-06
6.9038484e-06
6.7011857e-06
6.7052091e-06
6.7210691e-06
6.8293473e-06
6.9797658e-06
7.1902563e-06
7.4486876e-06
7.7603622e-06
8.1240509e-06
8.5240094e-06
8.9983961e-06
9.5389464e-06
1.0152252e-05
1.084678e-05
1.1632882e-05
1.252339e-05
1.3533759e-05
1.4682787e-05
1.5993901e-05
1.7495612e-05
1.922295e-05
2.1219038e-05
2.3537006e-05
2.6242346e-05
2.9415758e-05
3.3156604e-05
3.7587184e-05
4.2857948e-05
4.915406e-05
5.6703006e-05
6.5779795e-05
7.6720641e-05
8.9932185e-05
0.00010678739
0.00012628038
0.00014990048
0.00017854925
0.000213306
0.00025787613
0.00030940626
0.00037192498
0.0004477659
0.00053975214
0.00065130256
0.00078656568
0.00095057697
0.0011494459
0.0012114485
0.0012095627
0.0012076135
0.0012055899
0.001203479
0.0012012661
0.0011989342
0.0011964632
0.0011938295
0.0011910031
0.0011881409
0.0011856486
0.0011834802
0.0011816008
0.0011799971
0.0011786606
0.0011775503
0.0011767396
0.001176332
0.0011756603
0.0011753001
0.0011772454
1.307658e-06
9.3843549e-06
9.0440081e-06
6.9793806e-06
9.4230795e-06
6.9903893e-06
8.4283151e-06
6.414762e-06
6.3490346e-06
5.8940692e-06
5.8401103e-06
5.7276998e-06
5.7626985e-06
5.8236969e-06
5.9571962e-06
6.1330386e-06
6.3611544e-06
6.6347508e-06
6.9388451e-06
7.3068734e-06
7.7293354e-06
8.2100126e-06
8.754428e-06
9.3694236e-06
1.0063545e-05
1.0847117e-05
1.1732974e-05
1.2736558e-05
1.3876324e-05
1.5175642e-05
1.666286e-05
1.8372854e-05
2.0348611e-05
2.2643144e-05
2.5321844e-05
2.8465316e-05
3.2172785e-05
3.6566225e-05
4.1795452e-05
4.8044741e-05
5.5542654e-05
6.4562933e-05
7.5442211e-05
8.8586492e-05
0.00010448982
0.00012375222
0.00014836564
0.00017689556
0.00021151432
0.00025352277
0.00030739288
0.00036968107
0.00044524661
0.00053690597
0.00064806996
0.00078288395
0.00094638387
0.0011446871
0.0012103811
0.0012084796
0.0012065195
0.0012044906
0.0012023809
0.0012001767
0.0011978623
0.0011954198
0.0011928285
0.0011900644
0.0011873442
0.0011849831
0.001182936
0.0011811682
0.0011796633
0.0011784005
0.0011773496
0.0011766027
0.0011761713
0.0011754813
0.0011753489
0.0011770455
1.2701618e-06
7.8658156e-06
8.3334271e-06
6.0195539e-06
7.9818743e-06
6.7712394e-06
6.4645987e-06
5.3231196e-06
5.27011e-06
4.96159e-06
4.9382846e-06
4.8963985e-06
4.9616316e-06
5.0603405e-06
5.2174691e-06
5.4157358e-06
5.644117e-06
5.9279217e-06
6.2590113e-06
6.6386593e-06
7.0703097e-06
7.5582621e-06
8.1082302e-06
8.7272083e-06
9.4238302e-06
1.0208306e-05
1.1093501e-05
1.2068027e-05
1.3196247e-05
1.4480712e-05
1.5949414e-05
1.7636872e-05
1.9585747e-05
2.1848742e-05
2.4490981e-05
2.7592821e-05
3.125326e-05
3.5593927e-05
4.0763815e-05
4.7255741e-05
5.4736338e-05
6.3739262e-05
7.460373e-05
8.7735364e-05
0.0001036279
0.00012288204
0.00014622601
0.00017608744
0.00021070206
0.00025271125
0.00030368482
0.00036900877
0.00044458442
0.00053626417
0.00064746026
0.0007823295
0.00094592564
0.0011443949
0.0012092654
0.001207355
0.0012053908
0.0012033631
0.0012012612
0.0011990722
0.001196782
0.0011943741
0.0011918298
0.0011891286
0.0011865509
0.0011843203
0.0011823935
0.0011807374
0.0011793311
0.0011781444
0.001177161
0.0011764706
0.0011760041
0.0011753275
0.0011753795
0.0011768259
1.2592868e-06
7.380492e-06
7.6077798e-06
6.3160639e-06
7.6512531e-06
5.0504779e-06
5.0706473e-06
4.4140466e-06
4.364363e-06
4.1765077e-06
4.1807298e-06
4.1958271e-06
4.2890837e-06
4.4193041e-06
4.5855416e-06
4.7987483e-06
5.0561744e-06
5.3560888e-06
5.7003667e-06
6.0912468e-06
6.5324844e-06
7.0287243e-06
7.5858169e-06
8.2108124e-06
8.8986132e-06
9.6825692e-06
1.05651e-05
1.156128e-05
1.2689583e-05
1.3972734e-05
1.5438773e-05
1.7122337e-05
1.9066296e-05
2.1323668e-05
2.3960029e-05
2.7056325e-05
3.0712338e-05
3.5050758e-05
4.0222092e-05
4.6410556e-05
5.3841094e-05
6.3247072e-05
7.4134538e-05
8.729912e-05
0.0001032348
0.00012254404
0.00014595745
0.00017436072
0.00021068556
0.00025282493
0.00030395518
0.00036599624
0.00044540485
0.00053738084
0.00064894219
0.00078426936
0.00094844877
0.0011476723
0.0012081069
0.0012061944
0.0012042325
0.0012022125
0.0012001245
0.0011979572
0.0011956977
0.0011933309
0.0011908398
0.0011882054
0.0011857686
0.0011836654
0.0011818554
0.0011803075
0.0011789967
0.0011778876
0.0011769753
0.0011763309
0.0011758348
0.0011752073
0.0011753702
0.0011765724
1.2705262e-06
7.5759139e-06
6.821472e-06
6.7589594e-06
6.6398044e-06
4.0378807e-06
4.1140288e-06
3.6485186e-06
3.6128017e-06
3.519064e-06
3.5519702e-06
3.6124049e-06
3.7319317e-06
3.8757128e-06
4.0702109e-06
4.3042202e-06
4.5783329e-06
4.8926044e-06
5.2493106e-06
5.6513276e-06
6.1026612e-06
6.6081741e-06
7.1654595e-06
7.7953263e-06
8.5003942e-06
9.2907805e-06
1.0178792e-05
1.1179472e-05
1.2311299e-05
1.3597055e-05
1.5064912e-05
1.6749748e-05
1.8694771e-05
2.0953485e-05
2.3592085e-05
2.6692314e-05
3.0354914e-05
3.4703743e-05
3.9890647e-05
4.6101364e-05
5.3562996e-05
6.2552529e-05
7.396019e-05
8.7191477e-05
0.0001032102
0.00012262162
0.00014615953
0.00017471329
0.00021126655
0.00025362968
0.00030502819
0.00036739169
0.00044730145
0.00053977064
0.00065193657
0.00078801196
0.00095312704
0.0011535322
0.0012069129
0.0012050048
0.0012030514
0.0012010447
0.0011989763
0.0011968363
0.0011946133
0.0011922942
0.0011898633
0.0011873023
0.0011850031
0.0011830228
0.0011813239
0.0011798777
0.0011786565
0.001177624
0.0011767815
0.0011761779
0.0011756759
0.0011751049
0.0011752976
0.0011762656
1.0193859e-06
8.1131409e-06
5.9109821e-06
4.2157461e-06
4.2751611e-06
3.3499124e-06
3.2866918e-06
3.0291479e-06
3.0010283e-06
2.9773468e-06
3.0384324e-06
3.134371e-06
3.2663871e-06
3.4417318e-06
3.6567303e-06
3.9081969e-06
4.1970766e-06
4.5245563e-06
4.893275e-06
5.306511e-06
5.7684341e-06
6.2780803e-06
6.8510902e-06
7.4903238e-06
8.2041132e-06
9.0025314e-06
9.8978415e-06
1.0905077e-05
1.2042755e-05
1.3333772e-05
1.4806503e-05
1.649615e-05
1.8446371e-05
2.0711263e-05
2.3357766e-05
2.6468539e-05
3.0145447e-05
3.4513696e-05
3.9726686e-05
4.5971485e-05
5.3476857e-05
6.2986705e-05
7.3999681e-05
8.7317947e-05
0.00010344359
0.00012298548
0.0001466816
0.00017542627
0.00021222262
0.00025486195
0.00030659237
0.00036935582
0.00044981521
0.00054288525
0.00065578756
0.00079277263
0.00095902089
0.001160849
0.0012056923
0.0012037948
0.0012018554
0.0011998675
0.0011978233
0.0011957147
0.0011935324
0.0011912656
0.0011889016
0.0011864246
0.0011842577
0.0011823949
0.0011808009
0.0011794483
0.001178308
0.001177347
0.0011765722
0.0011760091
0.0011755031
0.001174952
0.0011751533
0.0011758929
7.9986625e-07
5.8923216e-06
4.6079396e-06
3.2482966e-06
3.3131033e-06
2.7155205e-06
2.6485372e-06
2.5039144e-06
2.5061256e-06
2.5325902e-06
2.6224876e-06
2.73968e-06
2.9010484e-06
3.0981861e-06
3.3306199e-06
3.5972908e-06
3.8996328e-06
4.239566e-06
4.6200047e-06
5.0444646e-06
5.5137177e-06
6.0382875e-06
6.6216774e-06
7.2708073e-06
7.9939544e-06
8.8011396e-06
9.7045962e-06
1.0719365e-05
1.1864035e-05
1.3161659e-05
1.4640869e-05
1.6337241e-05
1.8294938e-05
2.0568705e-05
2.3226259e-05
2.6351188e-05
3.0046458e-05
3.4438695e-05
3.9683448e-05
4.5968832e-05
5.3895456e-05
6.3077263e-05
7.4165261e-05
8.7575766e-05
0.00010381401
0.00012349265
0.00014735427
0.00017629826
0.00021330578
0.00025622623
0.00030829507
0.00037146735
0.00045242919
0.00054610593
0.00065975369
0.00079766173
0.00096506193
0.0011683382
0.0012044556
0.0012025744
0.0012006547
0.0011986901
0.0011966742
0.0011945998
0.0011924595
0.0011902452
0.0011879479
0.0011855752
0.0011835333
0.0011817815
0.0011802861
0.0011790196
0.0011779519
0.0011770551
0.0011763394
0.0011758076
0.0011753078
0.0011748075
0.0011749754
0.0011754823
6.2507979e-07
3.3413574e-06
3.6615777e-06
2.6388982e-06
2.5596358e-06
2.1956788e-06
2.1462551e-06
2.0810371e-06
2.1133573e-06
2.179225e-06
2.2945399e-06
2.4365658e-06
2.6188546e-06
2.8336502e-06
3.0809165e-06
3.3609731e-06
3.6756557e-06
4.0273197e-06
4.4190286e-06
4.8543908e-06
5.3376636e-06
5.8706548e-06
6.4642372e-06
7.1231068e-06
7.8554828e-06
8.6713402e-06
9.5828964e-06
1.060522e-05
1.1756993e-05
1.3061441e-05
1.4547467e-05
1.6251037e-05
1.8216822e-05
2.0500211e-05
2.3169674e-05
2.6309622e-05
3.0023793e-05
3.4628538e-05
3.9943997e-05
4.6315769e-05
5.3977437e-05
6.3213092e-05
7.4367681e-05
8.7859371e-05
0.00010419586
0.00012399297
0.00014799808
0.00017866943
0.00021424586
0.00025739833
0.00030974687
0.00037325834
0.0004545641
0.00054873628
0.00066299707
0.00080167011
0.00097003319
0.0011745305
0.0012032145
0.0012013554
0.0011994604
0.0011975241
0.0011955404
0.001193503
0.0011914052
0.0011892398
0.0011869993
0.0011847552
0.001182828
0.0011811784
0.0011797741
0.0011785868
0.0011775862
0.0011767496
0.0011760851
0.0011755774
0.0011750958
0.0011746623
0.001174789
0.0011751087
5.0564099e-07
2.6023883e-06
2.8002371e-06
2.0855782e-06
1.9950947e-06
1.7835549e-06
1.7562016e-06
1.747829e-06
1.8084714e-06
1.9057116e-06
2.0433915e-06
2.2083076e-06
2.4077632e-06
2.6373651e-06
2.897628e-06
3.1896955e-06
3.5156696e-06
3.8781303e-06
4.2802035e-06
4.7255182e-06
5.2182972e-06
5.7634589e-06
6.3667838e-06
7.035144e-06
7.77681e-06
8.6018455e-06
9.5226062e-06
1.0554364e-05
1.1716082e-05
1.3031357e-05
1.4529571e-05
1.624728e-05
1.8229888e-05
2.0533661e-05
2.3228122e-05
2.6398937e-05
3.015133e-05
3.4614331e-05
3.9945702e-05
4.6337953e-05
5.4025566e-05
6.3293816e-05
7.4489497e-05
8.8030869e-05
0.00010442625
0.00012534192
0.00014960496
0.00017902146
0.00021469493
0.00025796343
0.00031045182
0.00037766714
0.00045549046
0.00054990517
0.00066447668
0.00080355232
0.00097244263
0.0011776353
0.0012019798
0.0012001483
0.0011982836
0.0011963807
0.0011944341
0.0011924383
0.0011903874
0.0011882753
0.0011860952
0.0011839649
0.0011821392
0.0011805802
0.0011792563
0.0011781387
0.0011771983
0.0011764164
0.0011757959
0.0011753088
0.001174852
0.0011744799
0.0011745587
0.0011747206
3.8761697e-07
2.0214432e-06
2.1023325e-06
1.6561661e-06
1.5634473e-06
1.4534525e-06
1.4506367e-06
1.4845026e-06
1.5707869e-06
1.6929938e-06
1.8492196e-06
2.0329923e-06
2.2457956e-06
2.4870393e-06
2.7576923e-06
3.0593709e-06
3.394331e-06
3.7652656e-06
4.1753209e-06
4.6281203e-06
5.1278565e-06
5.6794132e-06
6.2885197e-06
6.9619769e-06
7.7079778e-06
8.5365142e-06
9.4598807e-06
1.0493311e-05
1.1655754e-05
1.2970829e-05
1.4467979e-05
1.6183853e-05
1.816399e-05
2.0464816e-05
2.3156081e-05
2.6323788e-05
3.0073194e-05
3.4533447e-05
3.986232e-05
4.6252125e-05
5.3936789e-05
6.3667357e-05
7.4943589e-05
8.8578092e-05
0.00010508089
0.00012507046
0.00014929661
0.00017866859
0.00021428964
0.0002574947
0.00031273279
0.0003767707
0.00045445555
0.00054871716
0.00066312462
0.00080203215
0.00097076119
0.0011758162
0.0012007648
0.0011989657
0.0011971357
0.0011952704
0.0011933649
0.0011914143
0.0011894134
0.0011873568
0.001185239
0.0011832052
0.0011814655
0.0011799832
0.001178727
0.0011776681
0.001176779
0.0011760437
0.0011754587
0.0011749893
0.0011745608
0.0011742409
0.0011742716
0.0011743139
2.4394031e-07
1.6091411e-06
1.5272766e-06
1.3251919e-06
1.2416831e-06
1.2000391e-06
1.224845e-06
1.2931353e-06
1.4039131e-06
1.5477027e-06
1.7206299e-06
1.9199645e-06
2.1454152e-06
2.3977201e-06
2.6784024e-06
2.9887563e-06
3.3323019e-06
3.7112817e-06
4.1288424e-06
4.5886041e-06
5.094768e-06
5.6522327e-06
6.2666933e-06
6.9448478e-06
7.6948014e-06
8.5264609e-06
9.4520327e-06
1.0486673e-05
1.1649256e-05
1.2963333e-05
1.4458272e-05
1.6170639e-05
1.8145837e-05
2.0440083e-05
2.3210811e-05
2.6389157e-05
3.0150745e-05
3.4624824e-05
3.9969185e-05
4.6376095e-05
5.4079402e-05
6.3363205e-05
7.4572362e-05
8.8125279e-05
0.00010452753
0.00012439294
0.00014846555
0.00017923384
0.00021487991
0.00025810014
0.00031051501
0.00037409375
0.0004512315
0.00054484423
0.00065848594
0.0007964942
0.00096417252
0.0011680052
0.001199578
0.0011978153
0.0011960239
0.0011941997
0.0011923383
0.0011904353
0.0011884862
0.0011864862
0.0011844305
0.0011824733
0.0011808018
0.0011793802
0.0011781775
0.0011771647
0.0011763165
0.0011756179
0.0011750592
0.0011746042
0.0011742026
0.0011739201
0.0011738998
0.0011738519
3.5097361e-07
1.2872251e-06
1.1243332e-06
1.0585049e-06
1.0140039e-06
1.0124847e-06
1.0607752e-06
1.1517033e-06
1.2780058e-06
1.4332328e-06
1.6138787e-06
1.8187428e-06
2.0481091e-06
2.3031192e-06
2.5854493e-06
2.8971787e-06
3.2407086e-06
3.6188281e-06
4.0347348e-06
4.4920996e-06
4.995125e-06
5.5485943e-06
6.1578568e-06
6.8291969e-06
7.5708421e-06
8.3926437e-06
9.3067421e-06
1.0328171e-05
1.1475649e-05
1.2772515e-05
1.4247876e-05
1.593796e-05
1.7887769e-05
2.0153033e-05
2.2802473e-05
2.5920321e-05
2.9609979e-05
3.3998328e-05
3.9240255e-05
4.5524376e-05
5.3080153e-05
6.218625e-05
7.3749249e-05
8.7145856e-05
0.00010335633
0.00012298718
0.00014677401
0.00017560923
0.00021057595
0.00025298952
0.00030444823
0.00036689584
0.00044269808
0.00053473696
0.0006465272
0.00078236102
0.00094748846
0.0011483314
0.0011984113
0.0011966909
0.0011949432
0.0011931646
0.0011913512
0.0011894991
0.0011876044
0.001185663
0.0011836708
0.0011817679
0.0011801449
0.0011787662
0.0011776007
0.00117662
0.0011758002