/*--------------------------------*- C++ -*----------------------------------*\
  =========                 |
  \\      /  F ield         | OpenFOAM: The Open Source CFD Toolbox
   \\    /   O peration     | Website:  https://openfoam.org
    \\  /    A nd           | Version:  6
     \\/     M anipulation  |
\*---------------------------------------------------------------------------*/
FoamFile
{
    version     2.0;
    format      ascii;
    class       volScalarField;
    location    "1000";
    object      k;
}
// * * * * * * * * * * * * * * * * * * * * * * * * * * * * * * * * * * * * * //

dimensions      [0 2 -2 0 0 0 0];

internalField   nonuniform List<scalar> 
16000
(
0.12717643
0.031831697
0.021271971
0.017658504
0.015202699
0.014345752
0.013325984
0.012996072
0.0125249
0.012308921
0.012054279
0.011889396
0.011728058
0.011601879
0.01148945
0.011395515
0.011316938
0.011250779
0.011194417
0.011146067
0.011104254
0.011067867
0.011035998
0.011007935
0.010983096
0.010961009
0.010941282
0.010923589
0.010907658
0.010893255
0.010880185
0.010868278
0.010857387
0.01084738
0.010838139
0.010829558
0.010821538
0.010813987
0.010806818
0.010799948
0.010793299
0.010786795
0.010780363
0.010773933
0.010767433
0.010760796
0.010753951
0.010746831
0.010739366
0.010731486
0.010723119
0.010714192
0.010704628
0.010694346
0.01068325
0.010671216
0.010658086
0.010643652
0.010627618
0.010609342
0.010586587
0.010560072
0.010528592
0.010490811
0.010445795
0.010393955
0.010337443
0.010281585
0.010229976
0.010186001
0.010145937
0.010116181
0.010084666
0.010067472
0.010042728
0.010054987
0.010034038
0.010122488
0.010037351
0.010123028
0.10758794
0.032338227
0.020766776
0.01753726
0.01501684
0.014267858
0.013227646
0.012929056
0.012453846
0.01224412
0.011991354
0.01182696
0.01166851
0.011542157
0.011435226
0.011347415
0.011273952
0.011212106
0.011159421
0.011114227
0.011075143
0.011041127
0.011011329
0.01098508
0.010961834
0.010941146
0.010922649
0.010906036
0.010891049
0.010877469
0.01086511
0.010853813
0.010843438
0.010833862
0.010824973
0.010816671
0.010808863
0.010801463
0.010794388
0.010787562
0.010780911
0.010774364
0.010767853
0.010761312
0.010754675
0.010747877
0.010740855
0.010733544
0.010725877
0.010717789
0.010709211
0.010700072
0.010690297
0.010679806
0.010668511
0.0106563
0.010643028
0.010628511
0.010612539
0.010594836
0.010574874
0.010551032
0.010522147
0.010486797
0.010443897
0.010393418
0.010337381
0.010280978
0.010229074
0.010184196
0.010144543
0.010113269
0.010083949
0.010067043
0.010042283
0.010047418
0.010029541
0.010108161
0.010035494
0.010121581
0.092999041
0.032790388
0.020243356
0.017391957
0.014825124
0.014174061
0.013125334
0.012851547
0.012379427
0.012172129
0.011925042
0.011759319
0.011605752
0.011484094
0.011384347
0.011302441
0.011233919
0.01117624
0.011127108
0.011084962
0.011048512
0.011016784
0.010988981
0.010964476
0.010942757
0.010923408
0.010906082
0.010890491
0.010876392
0.01086358
0.010851879
0.010841138
0.010831225
0.010822024
0.010813432
0.010805352
0.010797699
0.010790392
0.010783354
0.010776513
0.0107698
0.01076315
0.010756499
0.010749787
0.010742952
0.010735934
0.010728674
0.01072111
0.010713182
0.010704827
0.010695979
0.010686571
0.010676529
0.010665777
0.010654228
0.010641779
0.010628297
0.01061361
0.01059752
0.01057981
0.010560189
0.010538143
0.010512407
0.010480009
0.010439718
0.010391141
0.010335946
0.010279361
0.010227197
0.010181887
0.010142392
0.010110393
0.010082187
0.01006556
0.010041819
0.010042499
0.010026923
0.010096026
0.010033354
0.010111418
0.083441926
0.032972013
0.01972213
0.017222756
0.014632024
0.014062759
0.013021733
0.012761947
0.012302351
0.012091822
0.011855257
0.01168576
0.011542821
0.011429614
0.011336796
0.011260575
0.011196818
0.011143153
0.011097446
0.011058234
0.011024319
0.010994787
0.010968897
0.010946059
0.010925795
0.010907715
0.010891493
0.01087686
0.010863586
0.010851479
0.010840373
0.010830125
0.010820613
0.010811727
0.01080337
0.010795452
0.010787893
0.010780618
0.010773557
0.010766641
0.010759808
0.010752997
0.010746151
0.010739211
0.010732123
0.010724832
0.010717281
0.010709415
0.010701176
0.010692505
0.01068334
0.010673615
0.010663262
0.010652204
0.010640358
0.010627626
0.010613885
0.010598972
0.010582699
0.01056486
0.010545207
0.010523382
0.01049876
0.01046993
0.010432851
0.010386788
0.010332934
0.010276516
0.010224267
0.010178811
0.010139514
0.01010714
0.01007977
0.010061765
0.010041198
0.010040055
0.010024891
0.010082908
0.010031533
0.010104606
0.075065679
0.032772164
0.019213995
0.017027892
0.014438841
0.013933042
0.012917208
0.0126597
0.012222522
0.01200289
0.011781866
0.011616584
0.011483934
0.011378826
0.011292674
0.011221919
0.011162748
0.011112944
0.011070531
0.011034139
0.011002655
0.010975227
0.010951162
0.01092991
0.010911023
0.010894137
0.010878946
0.010865198
0.010852679
0.010841207
0.010830625
0.010820801
0.010811619
0.010802978
0.010794785
0.010786959
0.010779426
0.010772114
0.010764961
0.010757905
0.010750886
0.010743851
0.010736746
0.010729519
0.01072212
0.010714498
0.010706602
0.01069838
0.010689778
0.010680742
0.010671211
0.010661125
0.010650415
0.010639009
0.010626824
0.010613767
0.010599722
0.010584538
0.010568031
0.010550005
0.010530231
0.0105084
0.01048404
0.01045628
0.010423076
0.010380209
0.010328274
0.010272396
0.010220273
0.010174934
0.010135917
0.010103498
0.010076794
0.010057972
0.010039978
0.0100375
0.010023356
0.010071001
0.010029792
0.01009398
0.067722974
0.032031804
0.018730914
0.016805495
0.014247299
0.013783659
0.012812374
0.012543991
0.012139806
0.011909419
0.011705033
0.011551952
0.011429168
0.011331811
0.011252056
0.011186543
0.011131775
0.011085674
0.011046417
0.011012723
0.01098356
0.010958134
0.0109358
0.010916044
0.010898448
0.010882672
0.01086843
0.010855486
0.01084364
0.010832721
0.010822584
0.010813103
0.010804172
0.010795696
0.010787589
0.010779778
0.010772193
0.010764772
0.010757455
0.010750187
0.010742915
0.01073559
0.010728165
0.010720591
0.010712824
0.010704818
0.010696526
0.010687899
0.010678889
0.010669443
0.010659505
0.010649016
0.010637912
0.010626121
0.010613563
0.010600146
0.010585761
0.010570268
0.010553489
0.010535232
0.010515285
0.010493368
0.010469082
0.010441782
0.010410215
0.010371305
0.010321954
0.010267017
0.01021525
0.010170265
0.010131652
0.010099443
0.010073316
0.010054068
0.010038079
0.010034553
0.010022062
0.010061254
0.010028316
0.010086211
0.061288983
0.030954479
0.018275976
0.016553133
0.014059327
0.013613573
0.012707782
0.012414316
0.012053571
0.011821958
0.011633451
0.011491966
0.011378615
0.011288662
0.011215033
0.011154537
0.011103982
0.011061421
0.011025177
0.010994054
0.010967095
0.010943562
0.010922856
0.010904498
0.010888097
0.010873336
0.01085995
0.010847717
0.010836452
0.010825995
0.01081621
0.010806981
0.010798211
0.01078981
0.010781703
0.01077382
0.010766101
0.010758489
0.01075093
0.010743377
0.010735782
0.010728101
0.010720291
0.010712313
0.010704122
0.01069568
0.010686943
0.010677867
0.010668406
0.01065851
0.010648128
0.010637202
0.01062567
0.010613463
0.010600502
0.010586698
0.010571946
0.010556113
0.01053903
0.01052051
0.010500352
0.010478298
0.010453995
0.010426914
0.010396156
0.010359923
0.010313936
0.010260385
0.010209215
0.01016481
0.010126753
0.010094964
0.01006938
0.010050085
0.010035555
0.010030301
0.010020808
0.010052913
0.010026767
0.01007783
0.055650682
0.029918541
0.01783228
0.016269469
0.013876704
0.013422439
0.012603757
0.0122857
0.011961908
0.011740568
0.011567168
0.011436703
0.011332349
0.011249461
0.01118168
0.011125975
0.01107944
0.011040252
0.011006872
0.010978183
0.010953303
0.010931545
0.010912354
0.010895282
0.010879968
0.010866116
0.010853479
0.010841852
0.010831062
0.010820961
0.010811424
0.010802345
0.010793634
0.01078521
0.010777005
0.010768958
0.010761016
0.010753127
0.010745246
0.010737332
0.010729343
0.01072124
0.010712986
0.010704546
0.010695882
0.010686956
0.010677732
0.010668167
0.01065822
0.010647843
0.010636986
0.010625596
0.01061361
0.010600962
0.010587576
0.010573364
0.010558223
0.010542029
0.010524619
0.010505814
0.01048542
0.010463197
0.010438825
0.010411848
0.010381547
0.010346612
0.010304219
0.010252556
0.010202224
0.010158617
0.010121284
0.010090098
0.010065071
0.010046012
0.010032599
0.010026069
0.010019435
0.010044993
0.010024989
0.010070169
0.050701829
0.028965196
0.017401851
0.015954263
0.013700607
0.013210002
0.012498786
0.012165233
0.011868996
0.011665333
0.011506257
0.011386254
0.011290458
0.0112143
0.011152087
0.011100943
0.011058228
0.011022239
0.010991563
0.010965164
0.010942226
0.010922112
0.010904307
0.010888398
0.010874048
0.010860982
0.010848972
0.010837829
0.010827393
0.010817529
0.010808123
0.010799077
0.010790312
0.010781756
0.010773349
0.010765039
0.010756779
0.010748527
0.010740243
0.010731893
0.01072344
0.010714852
0.010706098
0.010697146
0.010687962
0.010678514
0.010668767
0.010658682
0.01064822
0.010637336
0.010625983
0.010614108
0.01060165
0.010588546
0.01057472
0.010560086
0.010544544
0.010527974
0.010510225
0.01049112
0.010470474
0.010448062
0.010423592
0.010396663
0.010366678
0.01033265
0.010292794
0.010243603
0.010194345
0.010151745
0.010115312
0.010084893
0.010060481
0.010041881
0.010029315
0.010022125
0.01001791
0.010037598
0.010023059
0.010062313
0.046350033
0.028073866
0.016985924
0.015606232
0.013531938
0.013008022
0.012390228
0.0120537
0.011783343
0.011596326
0.01145079
0.011340713
0.011253036
0.011183272
0.011126343
0.011079524
0.011040422
0.011007445
0.010979304
0.010955035
0.010933887
0.010915269
0.010898707
0.010883817
0.010870288
0.010857867
0.010846344
0.010835545
0.010825325
0.010815563
0.010806155
0.010797015
0.010788074
0.01077927
0.010770551
0.010761875
0.010753202
0.010744498
0.010735732
0.010726874
0.010717894
0.010708766
0.010699462
0.010689955
0.010680216
0.010670214
0.010659917
0.01064929
0.010638295
0.010626889
0.010615026
0.010602654
0.010589715
0.010576146
0.010561873
0.010546812
0.010530864
0.010513914
0.01049582
0.010476409
0.010455506
0.010432898
0.010408315
0.010381402
0.010351648
0.010318247
0.010279798
0.010233633
0.010185674
0.010144279
0.01010892
0.010079413
0.010055706
0.010037719
0.010025811
0.010018472
0.010016233
0.010030906
0.010021057
0.010054418
0.042515398
0.027223641
0.016586049
0.015224032
0.013369325
0.01281943
0.012274808
0.011951073
0.011704949
0.011533618
0.011400847
0.011300176
0.011220177
0.011156473
0.011104536
0.011061798
0.011026089
0.010995926
0.010970132
0.010947816
0.010928285
0.010910995
0.010895509
0.010881473
0.010868601
0.010856661
0.010845463
0.010834849
0.01082469
0.010814878
0.010805323
0.010795951
0.010786703
0.010777529
0.010768387
0.010759241
0.010750063
0.010740826
0.010731503
0.010722074
0.010712513
0.010702798
0.010692906
0.010682813
0.010672492
0.010661915
0.010651054
0.010639873
0.010628336
0.010616402
0.010604025
0.010591155
0.010577735
0.010563702
0.010548983
0.010533496
0.010517146
0.010499821
0.010481383
0.010461671
0.010440514
0.010417712
0.010393015
0.010366105
0.010336545
0.010303679
0.010266418
0.010222783
0.010176326
0.010136318
0.010102199
0.01007374
0.010050843
0.010033578
0.0100222
0.010015082
0.010014426
0.010025148
0.0100192
0.010047497
0.039128462
0.026392756
0.016204033
0.014806456
0.013210595
0.012644981
0.012153202
0.011857322
0.01163382
0.011477277
0.011356511
0.01126474
0.01119198
0.011133997
0.011086751
0.011047836
0.011015283
0.010987717
0.010964059
0.010943494
0.010925383
0.010909224
0.010894618
0.010881243
0.010868837
0.010857191
0.010846133
0.010835526
0.010825254
0.010815228
0.010805371
0.010795623
0.010785935
0.010776269
0.010766594
0.010756882
0.010747114
0.01073727
0.010727331
0.010717278
0.010707094
0.01069676
0.010686255
0.010675557
0.010664642
0.010653484
0.010642054
0.010630319
0.010618244
0.010605786
0.010592903
0.010579543
0.01056565
0.010551161
0.010536007
0.010520105
0.010503364
0.010485674
0.010466906
0.010446904
0.010425506
0.01040252
0.010377718
0.010350813
0.010321427
0.010289025
0.010252768
0.010211212
0.010166439
0.010127981
0.010095251
0.01006796
0.010045987
0.010029512
0.010018596
0.010011926
0.01001247
0.010020415
0.010017433
0.010041675
0.036128319
0.025557674
0.015841746
0.014422366
0.013052428
0.012485527
0.012042347
0.011772397
0.011569967
0.011427368
0.011317867
0.011234496
0.011168535
0.011115925
0.011073054
0.011037685
0.011008028
0.010982814
0.010961057
0.010942008
0.010925085
0.010909828
0.010895876
0.010882937
0.010870776
0.010859209
0.010848087
0.010837288
0.010826719
0.010816306
0.010805987
0.010795717
0.010785459
0.010775188
0.01076488
0.010754518
0.010744089
0.01073358
0.010722978
0.010712268
0.010701437
0.010690467
0.01067934
0.010668035
0.010656529
0.010644796
0.010632808
0.010620532
0.010607932
0.010594967
0.010581593
0.01056776
0.010553411
0.010538486
0.010522913
0.010506615
0.010489501
0.010471466
0.010452387
0.010432115
0.010410496
0.010387349
0.010362462
0.010335574
0.010306356
0.010274369
0.010238967
0.010199106
0.010156169
0.010119399
0.010088183
0.01006217
0.010041226
0.010025577
0.010015091
0.010008978
0.010010284
0.010016482
0.010015794
0.010036659
0.033463019
0.02469372
0.015498372
0.014072388
0.012890081
0.012340635
0.011942042
0.011696277
0.011513437
0.011383973
0.011285011
0.011209543
0.011149928
0.011102327
0.011063501
0.01103137
0.011004315
0.010981168
0.010961032
0.010943223
0.010927214
0.010912588
0.010899024
0.010886264
0.0108741
0.010862375
0.010850963
0.010839765
0.010828707
0.010817732
0.010806797
0.010795869
0.010784925
0.01077395
0.010762929
0.010751853
0.010740714
0.010729505
0.010718216
0.010706836
0.010695352
0.010683749
0.010672009
0.010660111
0.010648032
0.010635746
0.010623223
0.010610431
0.010597332
0.010583886
0.010570047
0.010555767
0.010540989
0.010525652
0.010509687
0.010493018
0.010475557
0.010457203
0.010437838
0.010417324
0.010395513
0.010372235
0.01034729
0.010320443
0.010291404
0.010259806
0.010225145
0.010186669
0.010145686
0.010110711
0.010081109
0.010056468
0.010036649
0.010021839
0.010011779
0.010006268
0.010007845
0.010012142
0.010014204
0.010032466
0.031087492
0.023773384
0.015172672
0.013754792
0.012716828
0.012209851
0.011852106
0.011628933
0.011464277
0.011347164
0.011258029
0.011189953
0.011136236
0.011093248
0.011058092
0.011028847
0.011004048
0.01098263
0.010963782
0.010946885
0.010931469
0.010917163
0.010903684
0.010890813
0.010878374
0.010866238
0.010854305
0.010842499
0.010830767
0.010819069
0.01080738
0.010795681
0.010783959
0.010772208
0.010760421
0.010748596
0.010736726
0.010724808
0.010712833
0.010700793
0.010688675
0.010676462
0.010664137
0.010651677
0.010639058
0.010626254
0.010613232
0.010599959
0.010586397
0.010572505
0.010558237
0.010543543
0.010528369
0.010512653
0.010496329
0.010479321
0.010461545
0.010442904
0.010423287
0.010402565
0.010380596
0.010357222
0.010332259
0.010305487
0.010276651
0.010245436
0.010211442
0.010174118
0.010135171
0.010102064
0.010074142
0.01005095
0.010032333
0.010018375
0.010008759
0.010003808
0.010005379
0.010008353
0.010012513
0.010028789
0.028963132
0.022766721
0.014862629
0.01346889
0.012550887
0.012092736
0.01177239
0.011570341
0.01142254
0.011316996
0.011237005
0.011175796
0.011127477
0.011088655
0.011056735
0.011029958
0.011007007
0.010986915
0.010968961
0.010952593
0.010937399
0.010923059
0.010909334
0.010896041
0.010883045
0.010870245
0.010857568
0.010844962
0.010832395
0.010819844
0.010807296
0.010794747
0.010782191
0.010769629
0.010757059
0.01074448
0.01073189
0.010719283
0.010706652
0.010693988
0.010681275
0.010668497
0.010655632
0.010642657
0.010629546
0.010616269
0.010602794
0.010589086
0.010575107
0.010560812
0.010546157
0.010531091
0.01051556
0.010499504
0.010482858
0.010465548
0.010447495
0.010428605
0.010408774
0.010387882
0.010365796
0.01034237
0.010317431
0.01029078
0.010262183
0.010231367
0.010198004
0.010161675
0.010124809
0.010093603
0.010067393
0.0100457
0.010028335
0.010015249
0.010006128
0.010001643
0.010002913
0.010004978
0.010010548
0.010025448
0.027057653
0.02164176
0.014565066
0.013213356
0.012402354
0.01198901
0.01170283
0.01152041
0.011388223
0.011293536
0.01122198
0.011167058
0.011123574
0.011088393
0.011059196
0.011034386
0.011012793
0.010993552
0.010976033
0.010959755
0.01094437
0.010929616
0.010915298
0.010901278
0.010887454
0.010873759
0.010860147
0.010846589
0.010833068
0.010819578
0.010806116
0.010792684
0.010779285
0.010765919
0.010752589
0.010739292
0.010726025
0.010712781
0.010699549
0.010686318
0.01067307
0.010659786
0.010646443
0.010633013
0.010619468
0.010605776
0.010591903
0.010577814
0.010563467
0.01054882
0.010533825
0.010518433
0.010502591
0.010486239
0.010469313
0.010451744
0.010433454
0.010414358
0.010394355
0.010373336
0.010351178
0.010327747
0.010302882
0.010276402
0.010248094
0.010217714
0.010184979
0.010149558
0.010114783
0.010085471
0.010060969
0.010040789
0.010024694
0.010012493
0.010003937
0.0099998375
0.010000587
0.010001949
0.010008391
0.010022389
0.02534509
0.020365964
0.01427301
0.012986535
0.012270551
0.011898372
0.01164346
0.011479229
0.011361459
0.011276837
0.01121293
0.011163611
0.011124297
0.01109212
0.011065024
0.011041581
0.011020765
0.011001825
0.010984221
0.010967561
0.010951557
0.010936007
0.010920768
0.010905743
0.010890867
0.0108761
0.010861421
0.010846818
0.010832289
0.010817835
0.010803462
0.010789172
0.010774969
0.010760855
0.010746829
0.010732885
0.010719016
0.010705212
0.010691458
0.010677738
0.010664033
0.010650317
0.010636566
0.01062275
0.010608838
0.010594795
0.010580586
0.010566173
0.010551516
0.010536569
0.010521287
0.01050562
0.010489514
0.010472914
0.010455756
0.010437973
0.010419493
0.010400234
0.010380106
0.010359005
0.010336822
0.010313433
0.010288696
0.010262442
0.01023448
0.010204588
0.010172513
0.010137975
0.010105265
0.010077805
0.010054969
0.010036276
0.01002143
0.010010124
0.010002198
0.0099984172
0.0099985501
0.0099994003
0.010006393
0.010019402
0.023806338
0.019112316
0.013973247
0.012786869
0.012154638
0.011820318
0.011593565
0.011446795
0.011342253
0.011266781
0.011209622
0.01116508
0.011129125
0.01109918
0.011073441
0.011050662
0.011029964
0.011010724
0.010992501
0.010974983
0.010957956
0.010941276
0.010924848
0.010908614
0.01089254
0.010876609
0.010860815
0.010845158
0.010829643
0.010814274
0.010799055
0.010783988
0.010769073
0.010754307
0.010739684
0.010725194
0.010710824
0.010696559
0.010682379
0.010668263
0.010654187
0.010640124
0.010626045
0.010611918
0.010597709
0.010583383
0.010568903
0.010554228
0.010539318
0.01052413
0.010508615
0.010492725
0.010476408
0.010459609
0.010442268
0.010424321
0.010405698
0.010386326
0.010366118
0.010344984
0.010322823
0.010299525
0.010274965
0.010248993
0.010221438
0.010192098
0.010160741
0.01012711
0.010096411
0.010070731
0.010049481
0.010032202
0.010018546
0.010008132
0.010000859
0.0099973228
0.0099969017
0.0099974964
0.010004405
0.010016327
0.022424775
0.018051264
0.013656634
0.012613577
0.01205448
0.01175393
0.01155365
0.011423115
0.011330437
0.01126298
0.01121147
0.011170687
0.011137117
0.011108488
0.011083254
0.011060368
0.011039106
0.011018971
0.010999625
0.010980841
0.010962474
0.010944431
0.010926657
0.010909125
0.01089182
0.01087474
0.010857884
0.010841256
0.010824857
0.010808689
0.010792751
0.010777037
0.010761542
0.010746254
0.010731161
0.010716247
0.010701493
0.010686877
0.010672375
0.010657962
0.010643609
0.010629285
0.010614961
0.0106006
0.010586168
0.010571628
0.010556941
0.010542068
0.010526966
0.010511593
0.010495901
0.010479843
0.010463368
0.010446423
0.010428951
0.01041089
0.010392176
0.01037274
0.010352503
0.010331382
0.010309289
0.010286128
0.010261789
0.010236147
0.010209052
0.010180329
0.010149766
0.010117114
0.010088349
0.010064357
0.010044587
0.010028609
0.010016044
0.010006482
0.0099998366
0.0099964883
0.0099956997
0.0099961926
0.010002278
0.010012949
0.021177518
0.017143105
0.013374746
0.012460764
0.011968155
0.011699269
0.011523418
0.011407568
0.01132522
0.011264447
0.01121729
0.011179073
0.011146773
0.011118451
0.011092839
0.011069085
0.011046626
0.011025092
0.011004243
0.010983929
0.010964058
0.010944574
0.01092545
0.010906673
0.010888237
0.010870137
0.010852371
0.010834935
0.010817825
0.010801031
0.010784544
0.010768349
0.010752432
0.010736773
0.010721352
0.010706146
0.010691131
0.01067628
0.010661564
0.010646953
0.010632416
0.01061792
0.010603431
0.010588913
0.01057433
0.010559644
0.010544816
0.010529806
0.010514572
0.010499071
0.010483259
0.010467088
0.01045051
0.010433473
0.010415922
0.010397801
0.010379049
0.0103596
0.010339384
0.010318326
0.010296347
0.010273364
0.010249283
0.010224001
0.010197399
0.010169336
0.010139643
0.010108106
0.010081174
0.010058769
0.010040369
0.01002556
0.010013955
0.01000516
0.0099991001
0.0099959319
0.0099947656
0.0099947857
0.0099999637
0.010008934
0.02004493
0.016340477
0.013124335
0.012322999
0.011894289
0.0116565
0.011502268
0.011399267
0.01132535
0.011269614
0.011225271
0.011188254
0.011156027
0.011127016
0.01110021
0.011074957
0.011050844
0.011027612
0.011005097
0.010983203
0.010961868
0.010941056
0.010920745
0.010900921
0.01088157
0.010862679
0.010844233
0.010826218
0.010808614
0.010791403
0.010774563
0.010758071
0.010741901
0.010726028
0.010710424
0.01069506
0.010679907
0.010664933
0.010650107
0.010635395
0.010620763
0.010606178
0.010591602
0.010577
0.010562335
0.010547569
0.010532662
0.010517576
0.010502269
0.010486699
0.010470822
0.010454594
0.010437967
0.010420892
0.010403319
0.010385192
0.010366456
0.010347049
0.010326908
0.010305963
0.010284145
0.01026138
0.010237587
0.010212682
0.010186569
0.010159146
0.010130302
0.010100169
0.010074943
0.010054015
0.010036882
0.01002313
0.010012363
0.010004227
0.0099986599
0.0099956289
0.0099942002
0.0099939602
0.0099981211
0.010005095
0.019017542
0.015612638
0.012905513
0.012204609
0.011834108
0.011624576
0.011488743
0.011396249
0.011328514
0.011275905
0.011232718
0.01119554
0.011162319
0.011131816
0.011103263
0.011076178
0.011050264
0.011025333
0.011001269
0.010977993
0.010955451
0.010933602
0.010912413
0.010891853
0.010871893
0.010852503
0.010833655
0.010815317
0.010797459
0.010780049
0.010763057
0.010746449
0.010730193
0.010714256
0.010698606
0.010683209
0.010668032
0.01065304
0.0106382
0.010623476
0.010608833
0.010594235
0.010579646
0.010565029
0.010550348
0.010535564
0.01052064
0.010505536
0.010490214
0.010474631
0.010458745
0.010442515
0.010425895
0.010408839
0.010391297
0.010373221
0.010354557
0.010335249
0.010315238
0.010294461
0.010272856
0.010250355
0.010226888
0.010202378
0.010176742
0.010149891
0.010121728
0.010093361
0.010069677
0.010050086
0.010034101
0.010021304
0.010011297
0.010003759
0.0099986085
0.0099956737
0.0099941259
0.0099938801
0.0099972464
0.010002774
0.018089909
0.01494657
0.01271547
0.012104925
0.011785299
0.011600633
0.01147973
0.011395037
0.011331132
0.011279765
0.011236264
0.011197867
0.011162964
0.011130599
0.011100185
0.011071354
0.011043869
0.011017571
0.010992346
0.010968107
0.010944784
0.010922315
0.010900645
0.010879722
0.010859497
0.010839925
0.010820959
0.010802557
0.010784676
0.010767277
0.010750318
0.010733763
0.010717572
0.01070171
0.010686138
0.010670821
0.010655724
0.010640809
0.010626042
0.010611387
0.010596809
0.01058227
0.010567736
0.01055317
0.010538535
0.010523795
0.010508913
0.01049385
0.010478569
0.010463029
0.010447192
0.010431015
0.010414458
0.010397475
0.010380023
0.010362053
0.010343518
0.010324366
0.010304543
0.010283991
0.010262656
0.010240476
0.01021739
0.010193331
0.010168225
0.010141997
0.010114564
0.010087733
0.010065388
0.01004696
0.010031969
0.010019998
0.010010654
0.010003644
0.0099988487
0.0099959976
0.0099944065
0.0099941869
0.0099969023
0.010001154
0.017261518
0.014384369
0.012552577
0.012020887
0.011744711
0.01158055
0.011470686
0.011390938
0.011328666
0.011277035
0.011232287
0.011192227
0.011155586
0.011121583
0.011089727
0.011059685
0.011031225
0.011004171
0.010978385
0.010953753
0.010930176
0.010907567
0.010885849
0.010864951
0.010844807
0.010825358
0.010806546
0.01078832
0.010770629
0.010753429
0.010736673
0.01072032
0.010704329
0.010688662
0.010673278
0.010658142
0.010643216
0.010628464
0.01061385
0.01059934
0.010584896
0.010570485
0.010556071
0.010541618
0.010527091
0.010512454
0.010497671
0.010482706
0.010467522
0.010452082
0.010436348
0.010420281
0.010403841
0.010386989
0.01036968
0.010351873
0.010333522
0.01031458
0.010294999
0.010274726
0.010253712
0.010231904
0.010209246
0.010185679
0.010161143
0.010135571
0.010108894
0.010083337
0.010062103
0.010044637
0.010030467
0.010019174
0.010010379
0.010003807
0.0099992928
0.0099965174
0.0099949496
0.0099947858
0.0099969936
0.010000272
0.01654961
0.013929773
0.012414331
0.011947567
0.011706208
0.01155778
0.011455355
0.01137838
0.011316534
0.011264214
0.011218348
0.011177125
0.011139463
0.011104665
0.011072248
0.011041856
0.011013224
0.010986145
0.01096045
0.010935996
0.010912663
0.010890348
0.010868958
0.010848409
0.010828628
0.010809546
0.0107911
0.010773235
0.010755896
0.010739036
0.010722609
0.01070657
0.01069088
0.010675497
0.010660385
0.010645506
0.010630823
0.010616301
0.010601905
0.0105876
0.010573351
0.010559125
0.010544887
0.010530602
0.010516237
0.010501758
0.010487129
0.010472316
0.010457285
0.010441999
0.010426423
0.01041052
0.010394253
0.010377584
0.010360473
0.010342881
0.010324766
0.010306086
0.010286795
0.010266849
0.010246201
0.010224805
0.010202612
0.01017957
0.010155625
0.010130721
0.010104798
0.010080217
0.010059832
0.0100431
0.010029553
0.010018773
0.010010396
0.010004153
0.0099998376
0.0099971134
0.0099955784
0.0099954215
0.0099971655
0.0099996565
0.015845651
0.013523996
0.012274302
0.011865274
0.011653142
0.011518743
0.011423308
0.011349778
0.011289614
0.011238134
0.0111927
0.011151722
0.011114195
0.011079661
0.011047688
0.011017865
0.01098988
0.01096349
0.010938501
0.010914755
0.010892122
0.010870492
0.01084977
0.010829872
0.010810718
0.010792237
0.010774366
0.010757047
0.010740227
0.010723857
0.010707894
0.010692295
0.01067702
0.01066203
0.01064729
0.010632762
0.010618413
0.010604208
0.010590113
0.010576094
0.01056212
0.010548155
0.010534169
0.010520128
0.010505999
0.01049175
0.010477346
0.010462757
0.010447947
0.010432885
0.010417534
0.010401862
0.010385833
0.010369411
0.01035256
0.010335243
0.010317421
0.010299056
0.010280106
0.010260531
0.01024029
0.010219342
0.010197643
0.010175151
0.010151818
0.010127598
0.010102441
0.010078493
0.01005866
0.010042401
0.010029249
0.01001879
0.010010672
0.010004626
0.010000411
0.0099977008
0.0099962089
0.0099960998
0.0099975604
0.0099995419
0.014484401
0.012853165
0.012019411
0.011704454
0.011533049
0.011421307
0.011340172
0.011276658
0.011224242
0.011179278
0.011139644
0.011104018
0.011071532
0.011041378
0.011013071
0.010986337
0.010960967
0.010936796
0.010913689
0.010891536
0.010870241
0.010849723
0.010829956
0.010810959
0.010792652
0.010774964
0.010757834
0.010741205
0.010725028
0.010709258
0.010693853
0.010678773
0.010663983
0.010649446
0.01063513
0.010621001
0.010607027
0.010593178
0.010579424
0.010565732
0.010552071
0.01053841
0.010524718
0.010510962
0.010497113
0.010483139
0.010469007
0.010454688
0.010440149
0.010425357
0.010410281
0.010394888
0.010379145
0.010363017
0.010346471
0.010329471
0.010311981
0.010293964
0.010275384
0.010256201
0.010236377
0.010215876
0.010194657
0.010172681
0.010149906
0.010126292
0.010101793
0.010078148
0.010058573
0.010042527
0.010029539
0.010019196
0.010011151
0.010005123
0.010000846
0.0099980313
0.00999648
0.0099962277
0.0099971801
0.0099986135
0.014033459
0.012628954
0.011866784
0.011588776
0.011437892
0.011339908
0.011268437
0.011212199
0.011165354
0.011124768
0.011088622
0.011055814
0.011025634
0.010997597
0.010971377
0.010946729
0.010923459
0.010901409
0.010880445
0.01086045
0.010841323
0.010822972
0.010805271
0.010788076
0.010771347
0.01075505
0.010739151
0.010723617
0.010708418
0.010693523
0.010678904
0.010664532
0.010650382
0.010636425
0.010622636
0.010608989
0.010595456
0.010582041
0.010568715
0.010555444
0.010542197
0.010528943
0.01051565
0.01050229
0.01048883
0.01047524
0.010461492
0.010447553
0.010433393
0.010418982
0.010404289
0.010389282
0.010373929
0.010358197
0.010342055
0.010325467
0.010308401
0.010290821
0.01027269
0.010253973
0.010234632
0.010214632
0.010193936
0.010172505
0.010150302
0.010127285
0.010103415
0.010079511
0.010059722
0.010043519
0.01003041
0.010019971
0.010011845
0.010005727
0.010001338
0.0099984194
0.0099967937
0.0099963794
0.0099969916
0.0099982311
0.013585581
0.012399
0.0116816
0.011443379
0.011316099
0.011236014
0.011177779
0.011131937
0.011093392
0.011059607
0.011029134
0.011001142
0.010975108
0.010950683
0.01092762
0.010905735
0.010884882
0.010864946
0.01084583
0.010827453
0.010809746
0.010792652
0.010776116
0.010760093
0.010744543
0.01072943
0.010714717
0.010700373
0.010686362
0.010672654
0.010659217
0.010646021
0.010633036
0.010620232
0.010607581
0.010595054
0.010582622
0.010570229
0.010557846
0.010545451
0.010533021
0.010520532
0.01050796
0.01049528
0.010482467
0.010469496
0.01045634
0.010442973
0.010429368
0.010415497
0.010401332
0.010386844
0.010372004
0.010356782
0.010341147
0.010325068
0.010308513
0.010291447
0.010273838
0.010255649
0.010236847
0.010217395
0.010197258
0.010176401
0.010154785
0.010132372
0.010109122
0.010084994
0.010064355
0.010047427
0.010033699
0.010022731
0.010014145
0.010007616
0.010002857
0.0099996198
0.0099977099
0.0099969682
0.0099972071
0.0099982327
55.482505
100.72204
60.451334
40.995526
28.470402
19.894955
14.059836
10.066859
7.2676694
5.2662267
3.814056
2.7593819
1.9875497
1.4287949
1.0179492
0.7212263
0.50646235
0.35325654
0.24547956
0.1701242
0.1178629
0.082000493
0.057682569
0.041394576
0.030635164
0.023623142
0.019119667
0.016264273
0.014474428
0.013362502
0.012674543
0.012247441
0.011978492
0.011804255
0.011686328
0.011601924
0.011537774
0.011486259
0.011443044
0.011405654
0.011372635
0.011343092
0.011316438
0.011292228
0.011270092
0.011249608
0.011229681
0.011204963
0.011169999
0.011125241
0.011074703
0.011022887
0.010972694
0.010925727
0.010882378
0.010842853
0.010806946
0.010776213
0.010748603
0.010723943
0.01069727
0.010671734
0.010637886