/*--------------------------------*- C++ -*----------------------------------*\
  =========                 |
  \\      /  F ield         | OpenFOAM: The Open Source CFD Toolbox
   \\    /   O peration     | Website:  https://openfoam.org
    \\  /    A nd           | Version:  6
     \\/     M anipulation  |
\*---------------------------------------------------------------------------*/
FoamFile
{
    version     2.0;
    format      ascii;
    class       volScalarField;
    location    "1000";
    object      nut;
}
// * * * * * * * * * * * * * * * * * * * * * * * * * * * * * * * * * * * * * //

dimensions      [0 2 -1 0 0 0 0];

internalField   nonuniform List<scalar> 
16000
(
5.2452316e-06
2.1325439e-05
2.3216296e-05
3.3084626e-05
2.85122e-05
3.6704647e-05
3.630342e-05
4.0949771e-05
4.2372391e-05
4.2417758e-05
4.3168039e-05
4.1751039e-05
4.1919956e-05
4.0797788e-05
4.0817175e-05
4.0276901e-05
4.0430781e-05
4.0440026e-05
4.0841185e-05
4.1280724e-05
4.1979643e-05
4.2804502e-05
4.384618e-05
4.5065652e-05
4.6509106e-05
4.8180154e-05
5.0115984e-05
5.2344253e-05
5.49099e-05
5.7862283e-05
6.1265588e-05
6.5197063e-05
6.975249e-05
7.5048691e-05
8.1229597e-05
8.8471811e-05
9.6992494e-05
0.00010705861
0.00011899852
0.00013321583
0.00015020666
0.00017058239
0.00019509373
0.00022466091
0.00026040968
0.00030371234
0.00035623141
0.00041996757
0.00049730627
0.00059105858
0.00070448963
0.00084134826
0.0010059293
0.0010410592
0.0010421512
0.0010423734
0.0010419676
0.0010412115
0.0010402922
0.0010392412
0.0010379387
0.0010364234
0.0010346277
0.0010324763
0.0010299151
0.0010269636
0.0010237375
0.0010205307
0.0010175435
0.0010149655
0.0010125885
0.0010107699
0.0010088321
0.0010076737
0.0010060626
0.001006494
0.0010050156
0.0010096026
0.0010043633
0.0010085028
4.3647554e-06
2.1088508e-05
2.1285695e-05
3.0246419e-05
2.6333997e-05
3.308842e-05
3.3432565e-05
3.6578754e-05
3.8650927e-05
3.7778127e-05
3.8907559e-05
3.7136681e-05
3.7462396e-05
3.6218156e-05
3.6299208e-05
3.5760413e-05
3.5921902e-05
3.5913017e-05
3.6276244e-05
3.6663121e-05
3.728594e-05
3.8018972e-05
3.8945183e-05
4.0029172e-05
4.1311443e-05
4.2795442e-05
4.4513427e-05
4.6489994e-05
4.8764265e-05
5.1379603e-05
5.4392025e-05
5.7869128e-05
6.1894652e-05
6.6570599e-05
7.2022542e-05
7.8404465e-05
8.5905481e-05
9.4757786e-05
0.00010524661
0.00011772198
0.00013261305
0.00015044809
0.00017187484
0.00019768601
0.00022885034
0.00026654886
0.00031221376
0.00036757296
0.00043469716
0.00051604617
0.00061451325
0.00073346498
0.000876809
0.0010396988
0.0010410047
0.0010413687
0.0010410266
0.0010402831
0.001039367
0.0010383463
0.0010371961
0.0010358267
0.0010341728
0.0010321546
0.0010297097
0.0010268333
0.0010236337
0.0010203967
0.001017393
0.0010147644
0.0010124103
0.0010105064
0.0010086912
0.0010075483
0.0010059359
0.0010059662
0.0010046586
0.0010086932
0.0010041477
0.0010083
3.7264604e-06
2.084663e-05
1.9773941e-05
2.7819994e-05
2.4597723e-05
3.0002276e-05
3.1248335e-05
3.2720106e-05
3.5457354e-05
3.3543652e-05
3.5003695e-05
3.2882039e-05
3.3334036e-05
3.2047855e-05
3.219065e-05
3.1674604e-05
3.184196e-05
3.1831907e-05
3.2166109e-05
3.251792e-05
3.3081169e-05
3.3743878e-05
3.4578276e-05
3.5554709e-05
3.6707597e-05
3.8041326e-05
3.9583779e-05
4.1357463e-05
4.3396836e-05
4.5740637e-05
4.8438472e-05
5.1550379e-05
5.5150622e-05
5.9329648e-05
6.4198668e-05
6.9894022e-05
7.658292e-05
8.4470573e-05
9.3808749e-05
0.00010490593
0.00011813943
0.00013397317
0.0001529751
0.00017583909
0.00020341174
0.0002367244
0.00027702761
0.00032583106
0.00038494853
0.00045654408
0.00054318128
0.0006478715
0.0007741365
0.0009261043
0.0010398494
0.0010403701
0.0010401003
0.0010393683
0.0010384458
0.0010374233
0.0010362905
0.0010350184
0.0010335366
0.0010316799
0.0010293781
0.0010266062
0.0010234529
0.0010202055
0.001017187
0.0010145338
0.001012188
0.001010243
0.0010084897
0.0010073617
0.0010058058
0.001005585
0.0010044049
0.0010079048
0.0010039166
0.0010076143
3.3163735e-06
2.0521994e-05
1.8498558e-05
2.5545336e-05
2.296342e-05
2.7177916e-05
2.9119633e-05
2.9263437e-05
3.2349272e-05
2.9762531e-05
3.1332589e-05
2.90607e-05
2.9564087e-05
2.8353986e-05
2.8511133e-05
2.8048467e-05
2.8208165e-05
2.8210983e-05
2.8517677e-05
2.8845456e-05
2.9358302e-05
2.9963867e-05
3.0721142e-05
3.1607606e-05
3.2651573e-05
3.3858796e-05
3.5253344e-05
3.6856197e-05
3.8698022e-05
4.0813859e-05
4.3248129e-05
4.6054832e-05
4.9300619e-05
5.3066718e-05
5.745289e-05
6.2581451e-05
6.8602358e-05
7.569946e-05
8.4098404e-05
9.4075411e-05
0.00010596744
0.00012018883
0.00013724636
0.00015775845
0.00018247868
0.00021232513
0.00024841092
0.00029208069
0.0003449531
0.00040896562
0.00048642544
0.00058006259
0.00069309091
0.0008292981
0.00099315572
0.0010393722
0.001039187
0.0010384684
0.0010375358
0.0010365047
0.0010353686
0.0010341072
0.001032685
0.0010310234
0.0010288976
0.0010262637
0.0010231839
0.0010199451
0.001016921
0.001014259
0.0010119235
0.0010099568
0.0010082495
0.0010070434
0.0010056648
0.0010053405
0.0010041825
0.0010070606
0.0010037043
0.0010071247
2.9781984e-06
2.0081415e-05
1.7470114e-05
2.3433527e-05
2.1459294e-05
2.4595383e-05
2.7110607e-05
2.6133347e-05
2.9361322e-05
2.6333492e-05
2.7884168e-05
2.5653458e-05
2.6139224e-05
2.5048895e-05
2.5196013e-05
2.480139e-05
2.4948696e-05
2.4971523e-05
2.5254484e-05
2.5565656e-05
2.6036575e-05
2.6595256e-05
2.7287847e-05
2.8098702e-05
2.9050671e-05
3.0150861e-05
3.1420172e-05
3.287832e-05
3.45529e-05
3.6475921e-05
3.8687551e-05
4.1236824e-05
4.4184197e-05
4.7603341e-05
5.1584704e-05
5.6239244e-05
6.1702946e-05
6.8142442e-05
7.5762359e-05
8.4813319e-05
9.5600108e-05
0.00010849777
0.00012396488
0.00014256077
0.0001649663
0.00019201147
0.00022470278
0.00026425707
0.00031214179
0.00037011795
0.00044029108
0.00052516636
0.00062771225
0.00075144146
0.00090052697
0.0010383662
0.0010382812
0.0010375796
0.0010366344
0.0010355914
0.001034447
0.0010331835
0.001031774
0.0010301695
0.0010282558
0.0010257972
0.0010228225
0.0010196126
0.0010165946
0.001013938
0.0010116172
0.0010096469
0.0010079761
0.0010067233
0.0010054883
0.0010050883
0.0010039868
0.0010062836
0.0010034983
0.0010064305
2.6907269e-06
1.7252742e-05
1.6549995e-05
2.1435693e-05
2.009419e-05
2.2208562e-05
2.5215468e-05
2.3287789e-05
2.6508826e-05
2.3254239e-05
2.4683105e-05
2.2636563e-05
2.3060815e-05
2.2112663e-05
2.2235451e-05
2.1913637e-05
2.2046777e-05
2.2092048e-05
2.2355073e-05
2.26544e-05
2.3090793e-05
2.3610983e-05
2.4249797e-05
2.4997567e-05
2.5872657e-05
2.688325e-05
2.8047719e-05
2.9384714e-05
3.0919371e-05
3.2681214e-05
3.4706958e-05
3.7041581e-05
3.9740508e-05
4.287128e-05
4.6516814e-05
5.0778828e-05
5.5782093e-05
6.1679397e-05
6.8658367e-05
7.6949353e-05
8.6831397e-05
9.8648126e-05
0.00011281987
0.00012985914
0.00015038902
0.00017516975
0.00020512347
0.00024136547
0.00028524292
0.00033837527
0.00040270472
0.00048055159
0.00057467884
0.00068836994
0.00082553873
0.00099084873
0.0010373782
0.0010366997
0.0010357401
0.0010346826
0.0010335268
0.0010322566
0.0010308493
0.0010292681
0.0010274428
0.0010252011
0.0010223681
0.001019209
0.0010162094
0.0010135713
0.0010112719
0.0010093123
0.0010076728
0.0010063952
0.001005272
0.0010048125
0.0010038037
0.0010056277
0.0010033096
0.0010059035
2.4209057e-06
1.6420205e-05
1.5428517e-05
1.9546954e-05
1.8856064e-05
2.0017992e-05
2.3403586e-05
2.0702522e-05
2.3789088e-05
2.0543512e-05
2.1780078e-05
1.996637e-05
2.0304429e-05
1.9504006e-05
1.95961e-05
1.9344546e-05
1.9464019e-05
1.9530869e-05
1.9777513e-05
2.0067745e-05
2.0475655e-05
2.0963747e-05
2.155766e-05
2.2252453e-05
2.3063027e-05
2.3998273e-05
2.5074611e-05
2.6309753e-05
2.7726837e-05
2.9353364e-05
3.1223211e-05
3.3377982e-05
3.5869032e-05
3.8758865e-05
4.2124223e-05
4.6059356e-05
5.0679887e-05
5.6127372e-05
6.2575623e-05
7.0238839e-05
7.9375247e-05
9.0303236e-05
0.00010341244
0.00011917811
0.00013817706
0.00016111389
0.00018884367
0.00022240064
0.00026303601
0.00031225588
0.00037187058
0.00044404989
0.00053138722
0.00063697731
0.00076451689
0.00091843202
0.0010364717
0.0010358255
0.0010348502
0.0010337764
0.001032607
0.0010313272
0.0010299168
0.0010283456
0.0010265626
0.0010244669
0.0010218184
0.0010187345
0.0010157665
0.0010131593
0.0010108896
0.0010089523
0.0010073422
0.0010060611
0.0010050192
0.0010044626
0.0010036224
0.0010050513
0.0010031196
0.0010053495
2.1870662e-06
1.593909e-05
1.4387435e-05
1.7779951e-05
1.7711459e-05
1.7984409e-05
2.1612891e-05
1.838023e-05
2.1170769e-05
1.8136701e-05
1.9145764e-05
1.7589542e-05
1.7835245e-05
1.7178938e-05
1.7242137e-05
1.7055842e-05
1.7165186e-05
1.7252393e-05
1.7487087e-05
1.7770806e-05
1.8156164e-05
1.8618068e-05
1.917521e-05
1.9826156e-05
2.0583219e-05
2.1455787e-05
2.2458745e-05
2.3608979e-05
2.4928049e-05
2.6441772e-05
2.8181768e-05
3.01868e-05
3.2504948e-05
3.5194607e-05
3.8327465e-05
4.199172e-05
4.6295575e-05
5.1371511e-05
5.738199e-05
6.4528489e-05
7.3052337e-05
8.3251564e-05
9.5491027e-05
0.00011021628
0.00012796674
0.00014940226
0.00017532411
0.00020670122
0.00024470751
0.00029075719
0.00034655326
0.00041414174
0.00049597534
0.00059499063
0.0007147031
0.00085933451
0.0010339382
0.0010349544
0.0010339629
0.0010328713
0.0010316868
0.0010303954
0.0010289789
0.0010274112
0.0010256511
0.0010236248
0.0010211733
0.0010181923
0.0010152691
0.0010127048
0.0010104741
0.0010085693
0.0010069893
0.0010057207
0.0010047411
0.0010041131
0.0010034346
0.0010044997
0.0010029203
0.0010048423
1.9843636e-06
1.5411953e-05
1.3412502e-05
1.6098604e-05
1.66402e-05
1.6066161e-05
1.9809611e-05
1.6298202e-05
1.8679876e-05
1.5985958e-05
1.6762947e-05
1.5465888e-05
1.5626064e-05
1.5102893e-05
1.5143429e-05
1.5015571e-05
1.5119411e-05
1.5225245e-05
1.5452292e-05
1.5731679e-05
1.6099702e-05
1.6540595e-05
1.7067989e-05
1.7683015e-05
1.8396104e-05
1.9216871e-05
2.0159116e-05
2.1238955e-05
2.2476708e-05
2.3896817e-05
2.552906e-05
2.7409884e-05
2.958468e-05
3.2108516e-05
3.5049001e-05
3.8489357e-05
4.2531845e-05
4.730168e-05
5.2951796e-05
5.9673949e-05
6.7695653e-05
7.7298522e-05
8.8827392e-05
0.00010270425
0.00011943821
0.00013965306
0.00016410706
0.00019371627
0.00022959251
0.00027307569
0.00032578159
0.00038965499
0.00046703274
0.00056071995
0.00067408331
0.00081117326
0.00097685619
0.0010340835
0.0010330762
0.0010319659
0.0010307652
0.0010294612
0.0010280369
0.0010264693
0.0010247242
0.0010227455
0.0010204323
0.0010175864
0.001014721
0.0010122111
0.0010100291
0.0010081659
0.0010066195
0.001005376
0.0010044438
0.0010037795
0.0010032388
0.0010039794
0.0010027162
0.0010043302
1.8085469e-06
1.481195e-05
1.2502915e-05
1.4490727e-05
1.562787e-05
1.4326678e-05
1.7978595e-05
1.4427704e-05
1.637312e-05
1.4060221e-05
1.4621098e-05
1.3567219e-05
1.365569e-05
1.3249905e-05
1.327563e-05
1.3198465e-05
1.3301344e-05
1.3423921e-05
1.3647072e-05
1.3924002e-05
1.427926e-05
1.4703702e-05
1.5207524e-05
1.5793578e-05
1.647104e-05
1.7249561e-05
1.8142139e-05
1.9164231e-05
2.0335165e-05
2.1678292e-05
2.3221906e-05
2.5000532e-05
2.7057415e-05
2.9444946e-05
3.2227439e-05
3.5484073e-05
3.9312409e-05
4.3831951e-05
4.9187424e-05
5.5563566e-05
6.317659e-05
7.2294892e-05
8.3247018e-05
9.6436754e-05
0.00011234844
0.00013157679
0.00015484592
0.00018302905
0.00021718828
0.00025860351
0.00030881982
0.00036969961
0.00044348472
0.00053287177
0.00064110435
0.00077209003
0.00093053522
0.0010332103
0.0010321886
0.0010310591
0.0010298419
0.0010285246
0.0010270916
0.0010255223
0.0010237873
0.0010218408
0.001019603
0.001016923
0.0010141277
0.0010116831
0.0010095597
0.0010077463
0.0010062385
0.001005029
0.001004134
0.0010034625
0.0010030355
0.0010035007
0.001002512
0.0010038217
1.6556788e-06
1.4115834e-05
1.165582e-05
1.2944491e-05
1.464873e-05
1.275092e-05
1.6113244e-05
1.2741894e-05
1.4258909e-05
1.2332565e-05
1.2705934e-05
1.1868869e-05
1.1902744e-05
1.1597115e-05
1.1616118e-05
1.1582194e-05
1.1688208e-05
1.1825861e-05
1.1997051e-05
1.2265032e-05
1.2605321e-05
1.3012399e-05
1.3493593e-05
1.4052426e-05
1.4696886e-05
1.5436347e-05
1.6282979e-05
1.7251486e-05
1.8360198e-05
1.9631427e-05
2.1092132e-05
2.2774973e-05
2.4721286e-05
2.6981037e-05
2.9615599e-05
3.2700555e-05
3.6329281e-05
4.0616712e-05
4.6005089e-05
5.2101986e-05
5.9385886e-05
6.8114748e-05
7.8603609e-05
9.1242815e-05
0.0001064965
0.00012493589
0.00014725855
0.00017430293
0.0002070919
0.00024685729
0.00029508746
0.00035357845
0.00042449528
0.00051044654
0.00061457538
0.0007406727
0.00089331333
0.0010323324
0.001031299
0.0010301505
0.0010289168
0.0010275862
0.0010261442
0.0010245725
0.0010228456
0.0010209259
0.0010187514
0.0010162096
0.0010134958
0.0010111267
0.0010090711
0.0010073152
0.001005852
0.0010046829
0.0010038183
0.0010031611
0.0010028266
0.0010030772
0.0010023203
0.0010033729
1.5226589e-06
1.3311937e-05
1.0862919e-05
1.1451023e-05
1.3665204e-05
1.1319903e-05
1.4231895e-05
1.1217009e-05
1.2339982e-05
1.0779621e-05
1.1000976e-05
1.034982e-05
1.0346868e-05
1.0124958e-05
1.0095847e-05
1.0080494e-05
1.0182751e-05
1.0328594e-05
1.0548527e-05
1.0823652e-05
1.1163141e-05
1.1564845e-05
1.2035012e-05
1.2578109e-05
1.3201681e-05
1.3915137e-05
1.4730251e-05
1.5661313e-05
1.6726027e-05
1.7946047e-05
1.9347529e-05
2.096169e-05
2.2828594e-05
2.4996533e-05
2.7524789e-05
3.0486309e-05
3.397138e-05
3.8092586e-05
4.2984549e-05
4.8813981e-05
5.5784789e-05
6.4146073e-05
7.4777779e-05
8.6983554e-05
0.00010171989
0.00011953886
0.00014111842
0.00016726851
0.00019898187
0.00023745245
0.00028412366
0.00034073905
0.00040940257
0.00049265274
0.00059355282
0.00071580122
0.00086386824
0.0010314471
0.0010304067
0.0010292397
0.0010279901
0.0010266469
0.0010251965
0.0010236222
0.0010219022
0.0010200055
0.001017884
0.0010154553
0.0010128331
0.0010105487
0.0010085693
0.0010068778
0.0010054659
0.0010043412
0.0010035036
0.0010028741
0.0010026114
0.0010027143
0.0010021379
0.0010029905
1.4074958e-06
1.2398597e-05
1.0124472e-05
1.0094351e-05
1.2645473e-05
1.0016332e-05
1.2421832e-05
9.833918e-06
1.0616212e-05
9.3829109e-06
9.4897745e-06
8.9933053e-06
8.8986555e-06
8.7231851e-06
8.7375194e-06
8.7682953e-06
8.8904413e-06
9.0571127e-06
9.286801e-06
9.5684325e-06
9.9083552e-06
1.0306579e-05
1.0768797e-05
1.130012e-05
1.1907754e-05
1.260113e-05
1.3391725e-05
1.429347e-05
1.5323555e-05
1.6503123e-05
1.7857864e-05
1.9417675e-05
2.122173e-05
2.3317064e-05
2.5761413e-05
2.8625674e-05
3.1997307e-05
3.5987267e-05
4.072641e-05
4.6377491e-05
5.3139548e-05
6.1256189e-05
7.1027003e-05
8.2811372e-05
9.7050149e-05
0.00011522694
0.00013623864
0.00016170445
0.00019259512
0.00023007547
0.00027555427
0.0003307345
0.00039767296
0.00047885396
0.00057727923
0.00069657726
0.00084113997
0.0010162756
0.0010295119
0.0010283275
0.0010270631
0.0010257082
0.0010242503
0.0010226742
0.0010209608
0.0010190844
0.0010170077
0.0010146708
0.0010121487
0.0010099568
0.0010080607
0.0010064399
0.0010050855
0.0010040076
0.0010031957
0.0010026005
0.0010023859
0.0010023998
0.0010019673
0.0010026578
1.3079975e-06
1.1380233e-05
9.4334768e-06
8.8646111e-06
1.1557421e-05
8.8286546e-06
1.0714689e-05
8.5800962e-06
9.0850643e-06
8.1294005e-06
8.0771839e-06
7.6684337e-06
7.6186008e-06
7.5207545e-06
7.5608553e-06
7.6285522e-06
7.7689115e-06
7.9530964e-06
8.1921945e-06
8.4801562e-06
8.8217924e-06
9.2184421e-06
9.6755544e-06
1.0198734e-05
1.0794893e-05
1.1473478e-05
1.2245758e-05
1.3125366e-05
1.412905e-05
1.5277532e-05
1.6532105e-05
1.8037802e-05
1.9779258e-05
2.180228e-05
2.4163182e-05
2.6931047e-05
3.0364169e-05
3.4254284e-05
3.887766e-05
4.4394258e-05
5.0999474e-05
5.8931656e-05
6.8487086e-05
8.0017177e-05
9.39552e-05
0.00011083042
0.00013127919
0.00015742612
0.0001877127
0.00022446605
0.00026906918
0.00032319515
0.00038886584
0.00046852551
0.00056513062
0.00068225974
0.00082424918
0.0009963478
0.0010286153
0.0010274149
0.0010261372
0.0010247723
0.0010233085
0.001021732
0.0010200257
0.0010181681
0.0010161299
0.0010138677
0.0010114524
0.0010093591
0.0010075521
0.0010060076
0.0010047162
0.0010036863
0.0010029004
0.0010023425
0.0010021492
0.0010020665
0.001001804
0.0010023754
1.222981e-06
1.027115e-05
8.781749e-06
7.7482683e-06
1.0370823e-05
7.7433803e-06
9.1340831e-06
7.4415327e-06
7.7374472e-06
6.8856245e-06
6.8185178e-06
6.5438053e-06
6.5180028e-06
6.480658e-06
6.5450841e-06
6.6427501e-06
6.7999267e-06
6.9993032e-06
7.2476633e-06
7.5421191e-06
7.8867683e-06
8.2837235e-06
8.7383445e-06
9.2341164e-06
9.8170757e-06
1.0479554e-05
1.1232408e-05
1.2088794e-05
1.3064835e-05
1.4180472e-05
1.5460008e-05
1.6933294e-05
1.863703e-05
2.0616423e-05
2.292716e-05
2.5637882e-05
2.8833141e-05
3.2617105e-05
3.7117961e-05
4.2493215e-05
4.8935265e-05
5.7107718e-05
6.6512485e-05
7.786527e-05
9.1592484e-05
0.00010821901
0.00012837213
0.00015281942
0.00018414655
0.00022040095
0.00026440297
0.00031780508
0.00038260528
0.00046122044
0.00055657632
0.0006722191
0.0008124498
0.00098248163
0.0010277185
0.0010265039
0.0010252149
0.001023842
0.0010223744
0.0010207993
0.0010191015
0.0010172625
0.0010152589
0.0010130584
0.0010107547
0.0010087643
0.0010070503
0.0010055866
0.001004363
0.0010033822
0.0010026237
0.0010021016
0.0010019146
0.0010017681
0.0010016396
0.0010021258
1.1521871e-06
9.0846829e-06
8.1622672e-06
6.736175e-06
9.123279e-06
6.7503481e-06
7.709962e-06
6.3580246e-06
6.3868162e-06
5.8115202e-06
5.7476345e-06
5.5750092e-06
5.5749093e-06
5.5849549e-06
5.6721896e-06
5.7947653e-06
5.967601e-06
6.1806355e-06
6.4383137e-06
6.739667e-06
7.0717038e-06
7.4661606e-06
7.9162787e-06
8.4276406e-06
9.0074037e-06
9.6643124e-06
1.0409198e-05
1.1255104e-05
1.2217889e-05
1.3317313e-05
1.4577426e-05
1.602778e-05
1.7704761e-05
1.9653213e-05
2.192843e-05
2.4598575e-05
2.7747605e-05
3.147891e-05
3.5919732e-05
4.1226742e-05
4.7592505e-05
5.5249952e-05
6.4483971e-05
7.5639293e-05
8.9874635e-05
0.00010634807
0.00012631784
0.00015054933
0.00017995919
0.00021768239
0.00026132045
0.00031428442
0.00037855838
0.00045654314
0.00055114678
0.00066589866
0.00080508351
0.00097390088
0.0010268241
0.0010255974
0.0010242992
0.0010229207
0.0010214518
0.0010198806
0.0010181935
0.0010163741
0.0010144031
0.0010122558
0.0010100664
0.001008181
0.0010065622
0.0010051823
0.0010040296
0.0010030994
0.0010023717
0.0010018805
0.0010016839
0.0010014974
0.0010014645
0.0010018988
1.0965035e-06
7.8313378e-06
7.5553495e-06
5.8173297e-06
7.8524552e-06
5.8169583e-06
7.0088088e-06
5.3287536e-06
5.2700391e-06
4.8882395e-06
4.8400278e-06
4.7436659e-06
4.7699213e-06
4.8180516e-06
4.9265879e-06
5.0705503e-06
5.2581912e-06
5.48393e-06
5.7354448e-06
6.0404423e-06
6.3911579e-06
6.7908185e-06
7.2441075e-06
7.7568169e-06
8.3361689e-06
8.9908845e-06
9.7317928e-06
1.0571919e-05
1.1526834e-05
1.2616241e-05
1.3864047e-05
1.5299666e-05
1.6959363e-05
1.8887874e-05
2.1140403e-05
2.3785024e-05
2.6905575e-05
3.0605168e-05
3.501051e-05
4.0277525e-05
4.6599684e-05
5.4208856e-05
6.3390291e-05
7.4488201e-05
8.7921603e-05
0.00010419961
0.00012500506
0.00014913583
0.00017842896
0.00021398968
0.00025960306
0.00031237295
0.0003764153
0.00045412539
0.00054840454
0.00066277953
0.00080153559
0.00096987905
0.0010259353
0.001024699
0.0010233941
0.0010220127
0.0010205452
0.0010189809
0.0010173072
0.0010155096
0.0010135713
0.0010114725
0.0010093983
0.0010076178
0.0010060941
0.0010047993
0.0010037188
0.0010028404
0.0010021477
0.0010016834
0.0010014654
0.0010012507
0.0010012831
0.001001691
1.0605276e-06
6.5355788e-06
6.9304781e-06
4.9942464e-06
6.6199273e-06
5.6076274e-06
5.3495504e-06
4.4001557e-06
4.3528334e-06
4.0945916e-06
4.0725897e-06
4.0356129e-06
4.0874402e-06
4.1672563e-06
4.2956554e-06
4.4584128e-06
4.6465102e-06
4.8808402e-06
5.1547826e-06
5.4694766e-06
5.8278646e-06
6.2336074e-06
6.6915487e-06
7.2076069e-06
7.7890765e-06
8.4445811e-06
9.18497e-06
1.0001033e-05
1.0946353e-05
1.2023386e-05
1.3255735e-05
1.467251e-05
1.6309694e-05
1.8211758e-05
2.0433673e-05
2.3043304e-05
2.6124293e-05
2.9779464e-05
3.4134836e-05
3.9604927e-05
4.5912514e-05
5.3507143e-05
6.2676263e-05
7.3763806e-05
8.7188578e-05
0.00010346031
0.00012319718
0.00014845118
0.0001777427
0.00021330646
0.00025647673
0.00031181448
0.00037587035
0.00045360379
0.00054791751
0.00066234823
0.00080119649
0.00096969329
0.0010250567
0.0010238133
0.0010225045
0.0010211228
0.0010196598
0.0010181056
0.0010164487
0.001014676
0.0010127723
0.0010107209
0.0010087607
0.001007083
0.0010056524
0.0010044414
0.0010034324
0.0010026067
0.0010019531
0.0010015123
0.0010012677
0.0010010358
0.0010011151
0.0010014905
1.0463228e-06
6.1021473e-06
6.2947763e-06
5.2132687e-06
6.3122739e-06
4.160391e-06
4.1734741e-06
3.6290527e-06
3.5853454e-06
3.4283887e-06
3.42985e-06
3.4406444e-06
3.5160543e-06
3.6222439e-06
3.758495e-06
3.9338214e-06
4.146043e-06
4.3938213e-06
4.6787921e-06
5.0028996e-06
5.3693476e-06
5.7820848e-06
6.2460682e-06
6.7672623e-06
7.3416313e-06
7.9968719e-06
8.73522e-06
9.5693876e-06
1.0514951e-05
1.1591069e-05
1.282138e-05
1.4235092e-05
1.5868362e-05
1.776593e-05
1.9983147e-05
2.2588379e-05
2.5665941e-05
2.9319559e-05
3.3676548e-05
3.8892819e-05
4.515885e-05
5.3092395e-05
6.2281906e-05
7.33985e-05
8.6861266e-05
0.00010318151
0.0001229795
0.00014700743
0.00017774495
0.0002134235
0.00025673203
0.00030930288
0.00037660676
0.00045460115
0.00054923633
0.00066406936
0.00080342886
0.00097258495
0.0010241939
0.0010229462
0.001021636
0.0010202569
0.0010188013
0.0010172604
0.0010156239
0.0010138798
0.0010120142
0.0010100118
0.001008163
0.0010065844
0.0010052427
0.0010041119
0.0010031713
0.0010023983
0.0010017855
0.0010013643
0.0010010968
0.0010008619
0.001000952
0.0010012882
1.0499148e-06
6.2296492e-06
5.6126527e-06
5.5475645e-06
5.445716e-06
3.3064492e-06
3.3659886e-06
2.9820689e-06
2.950793e-06
2.8724823e-06
2.8982013e-06
2.9468482e-06
3.0442513e-06
3.1619911e-06
3.3217253e-06
3.5143802e-06
3.7405322e-06
4.0003263e-06
4.2957344e-06
4.62923e-06
5.004225e-06
5.4248486e-06
5.8892713e-06
6.4147545e-06
7.0036507e-06
7.6645019e-06
8.4076909e-06
9.2459052e-06
1.0194722e-05
1.1273346e-05
1.2505531e-05
1.3920686e-05
1.5555258e-05
1.7454397e-05
1.9673987e-05
2.2283076e-05
2.5366804e-05
2.9029904e-05
3.3400848e-05
3.8636867e-05
4.4930307e-05
5.2515875e-05
6.2144115e-05
7.3319178e-05
8.6854704e-05
0.00010326447
0.00012317155
0.00014733142
0.00017826798
0.00021414273
0.00025768655
0.00031054023
0.00037828078
0.00045670703
0.00055187114
0.000667358
0.00080753389
0.00097771921
0.0010233535
0.0010221041
0.0010207954
0.0010194215
0.001017976
0.0010164511
0.0010148382
0.0010131266
0.0010113037
0.0010093546
0.001007613
0.0010061286
0.0010048704
0.0010038135
0.0010029361
0.001002214
0.0010016408
0.0010012361
0.0010009562
0.0010007267
0.0010007856
0.0010010718
8.3735183e-07
6.6316823e-06
4.8327626e-06
3.4377101e-06
3.4837076e-06
2.7256676e-06
2.6719964e-06
2.4605209e-06
2.4364141e-06
2.4163607e-06
2.4657205e-06
2.5438938e-06
2.6519508e-06
2.7958192e-06
2.9726093e-06
3.1798249e-06
3.418342e-06
3.6892396e-06
3.9947907e-06
4.3378006e-06
4.7218164e-06
5.1461917e-06
5.6238993e-06
6.1574718e-06
6.7539508e-06
7.4218413e-06
8.1714904e-06
9.0155761e-06
9.9697116e-06
1.10532e-05
1.2289964e-05
1.3709695e-05
1.5349221e-05
1.7254203e-05
1.9481165e-05
2.2099946e-05
2.5196654e-05
2.887719e-05
3.3271376e-05
3.8537611e-05
4.4869705e-05
5.2894547e-05
6.2194292e-05
7.3445856e-05
8.7075369e-05
0.00010359979
0.0001236459
0.00014797352
0.00017912369
0.00021524124
0.00025907682
0.00031228198
0.0003805041
0.00045945753
0.00055526706
0.00067155022
0.00081271656
0.00098414351
0.0010225431
0.0010212949
0.0010199902
0.0010186241
0.0010171908
0.001015684
0.0010140966
0.0010124202
0.0010106444
0.0010087566
0.001007117
0.0010057215
0.0010045406
0.0010035507
0.0010027293
0.0010020534
0.0010015176
0.0010011291
0.0010008362
0.0010005909
0.0010006131
0.0010008225
6.5252001e-07
4.7831777e-06
3.7407276e-06
2.6303601e-06
2.6806531e-06
2.1942762e-06
2.13877e-06
2.020893e-06
2.0223533e-06
2.0438775e-06
2.1172084e-06
2.2131644e-06
2.3454721e-06
2.5074223e-06
2.698742e-06
2.9186825e-06
3.1685235e-06
3.4499458e-06
3.7654483e-06
4.1180311e-06
4.5084635e-06
4.9454977e-06
5.432174e-06
5.9743482e-06
6.5790169e-06
7.2546428e-06
8.0115496e-06
8.8624235e-06
9.8229406e-06
1.0912539e-05
1.2155365e-05
1.3581426e-05
1.5227992e-05
1.7141278e-05
1.9378486e-05
2.2010257e-05
2.5123663e-05
2.8825837e-05
3.3248458e-05
3.8550874e-05
4.523909e-05
5.2991759e-05
6.2358144e-05
7.3691545e-05
8.7420885e-05
0.00010406648
0.00012425918
0.00014876331
0.0001801022
0.00021646893
0.00026060436
0.00031417152
0.0003828391
0.00046232878
0.00055879629
0.00067589273
0.00081807214
0.00099076997
0.0010217713
0.0010205273
0.0010192296
0.0010178736
0.0010164544
0.0010149668
0.0010134051
0.001011763
0.0010100334
0.0010082233
0.001006679
0.0010053665
0.0010042575
0.0010033284
0.0010025564
0.0010019209
0.0010014173
0.0010010425
0.0010007427
0.0010004929
0.0010004712
0.0010005857
5.0584182e-07
2.6915778e-06
2.9489831e-06
2.1204987e-06
2.0554792e-06
1.7615934e-06
1.7215292e-06
1.6691881e-06
1.6957737e-06
1.7498053e-06
1.8441745e-06
1.9606674e-06
2.1102964e-06
2.28693e-06
2.4906591e-06
2.721859e-06
2.9821374e-06
3.27353e-06
3.5986576e-06
3.9605961e-06
4.3629647e-06
4.8073919e-06
5.3029418e-06
5.8536525e-06
6.4664737e-06
7.1498321e-06
7.9140401e-06
8.7718114e-06
9.7389031e-06
1.0834904e-05
1.2084197e-05
1.3517129e-05
1.5171407e-05
1.7093812e-05
1.9342202e-05
2.1987941e-05
2.5118792e-05
2.9000833e-05
3.3485092e-05
3.8862765e-05
4.5331886e-05
5.3133417e-05
6.2560073e-05
7.396685e-05
8.7784901e-05
0.0001045374
0.00012485946
0.00015083162
0.00018097471
0.00021755124
0.00026193934
0.00031581251
0.00038479503
0.00046473078
0.00056174884
0.00067953032
0.00082256926
0.00099635341
0.0010210483
0.0010198118
0.001018524
0.001017181
0.0010157783
0.0010143112
0.0010127747
0.0010111633
0.001009471
0.0010077591
0.0010063011
0.001005064
0.0010040204
0.0010031466
0.0010024197
0.0010018211
0.0010013454
0.0010009818
0.0010006828
0.0010004422
0.001000388
0.0010004366
4.0552333e-07
2.0789037e-06
2.2365808e-06
1.6627817e-06
1.5902147e-06
1.4212048e-06
1.3999709e-06
1.394289e-06
1.4442765e-06
1.5240609e-06
1.6368621e-06
1.7722088e-06
1.9360838e-06
2.1250834e-06
2.3397446e-06
2.5811098e-06
2.8510019e-06
3.1516383e-06
3.4856899e-06
3.8562491e-06
4.266907e-06
4.7218389e-06
5.2259456e-06
5.7850453e-06
6.4061327e-06
7.0977106e-06
7.8702111e-06
8.7365227e-06
9.7126444e-06
1.0818487e-05
1.2078845e-05
1.3524579e-05
1.5194034e-05
1.7134751e-05
1.9405506e-05
2.2078764e-05
2.5243582e-05
2.900923e-05
3.3509379e-05
3.890723e-05
4.5401658e-05
5.3234733e-05
6.2700849e-05
7.4155226e-05
8.8029713e-05
0.00010573381
0.00012628363
0.0001512084
0.0001814467
0.00021813693
0.00026266169
0.00031969177
0.00038575358
0.000465925
0.000563242
0.00068140679
0.00082494236
0.00099937488
0.0010203842
0.0010191586
0.0010178843
0.0010165576
0.0010151748
0.0010137316
0.0010122236
0.0010106461
0.001008994
0.0010073678
0.001005985
0.0010048137
0.0010038271
0.0010030014
0.0010023142
0.0010017486
0.0010012971
0.0010009437
0.0010006492
0.0010004188
0.0010003388
0.0010003293
3.0814439e-07
1.601322e-06
1.6652918e-06
1.3105643e-06
1.2377192e-06
1.151408e-06
1.1506788e-06
1.1794646e-06
1.2504696e-06
1.3506819e-06
1.478753e-06
1.6296388e-06
1.8046568e-06
2.0034553e-06
2.2269346e-06
2.476517e-06
2.7541484e-06
3.062137e-06
3.4031695e-06
3.7803334e-06
4.1971947e-06
4.6579008e-06
5.1673105e-06
5.7311845e-06
6.3564549e-06
7.0515675e-06
7.8269073e-06
8.695336e-06
9.6728498e-06
1.0779387e-05
1.2039805e-05
1.3485062e-05
1.5153634e-05
1.7093225e-05
1.9362834e-05
2.2035249e-05
2.5199605e-05
2.8965326e-05
3.3466164e-05
3.886523e-05
4.5361032e-05
5.3587777e-05
6.3127411e-05
7.466697e-05
8.8639937e-05
0.00010557215
0.00012610125
0.00015100073
0.00018120927
0.00021786303
0.00026473582
0.00031910158
0.0003850745
0.00046514974
0.00056236732
0.00068043642
0.00082389063
0.0009982719
0.0010197902
0.0010185787
0.0010173209
0.0010160137
0.0010146536
0.001013237
0.00101176
0.0010102186
0.0010086084
0.0010070535
0.0010057333
0.0010046167
0.0010036774
0.0010028916
0.0010022377
0.0010016998
0.0010012681
0.001000924
0.001000637
0.0010004174
0.0010003184
0.0010002659
1.9209432e-07
1.2639947e-06
1.2002996e-06
1.0419642e-06
9.7782499e-07
9.4683016e-07
9.6868373e-07
1.0253329e-06
1.1162366e-06
1.2340452e-06
1.3758473e-06
1.5395958e-06
1.7251825e-06
1.9333144e-06
2.165332e-06
2.4223929e-06
2.7074633e-06
3.0224863e-06
3.3701479e-06
3.7535319e-06
4.1762107e-06
4.6423436e-06
5.1567612e-06
5.7251409e-06
6.3543438e-06
7.0527485e-06
7.8306712e-06
8.7009158e-06
9.6794236e-06
1.0786088e-05
1.204572e-05
1.3489224e-05
1.5154988e-05
1.709057e-05
1.9428397e-05
2.2111764e-05
2.5288697e-05
2.9068774e-05
3.3585839e-05
3.9003058e-05
4.5518976e-05
5.3374908e-05
6.2863887e-05
7.4341576e-05
8.8237888e-05
0.00010507493
0.00012548574
0.00015157966
0.00018182617
0.00021851256
0.00026301877
0.00031702203
0.00038256259
0.00046212477
0.00055873677
0.00067609494
0.00081871911
0.00099213599
0.0010192778
0.0010180834
0.001016845
0.0010155599
0.0010142249
0.0010128368
0.0010113924
0.001009888
0.0010083199
0.0010068198
0.0010055478
0.0010044733
0.0010035702
0.001002815
0.0010021868
0.0010016702
0.0010012532
0.0010009164
0.0010006367
0.0010004241
0.0010003069
0.0010002199
2.7392597e-07
1.0052e-06
8.7948621e-07
8.2980325e-07
7.9713894e-07
7.9836489e-07
8.3914369e-07
9.1405826e-07
1.0176167e-06
1.1448796e-06
1.2932062e-06
1.4617573e-06
1.6508738e-06
1.8615813e-06
2.0953374e-06
2.3539312e-06
2.6394205e-06
2.9541871e-06
3.3009567e-06
3.682853e-06
4.1034487e-06
4.5668082e-06
5.0774788e-06
5.6407976e-06
6.2637274e-06
6.9546035e-06
7.723692e-06
8.5837022e-06
9.5504547e-06
1.064368e-05
1.1887987e-05
1.3314017e-05
1.4959849e-05
1.6872663e-05
1.9110666e-05
2.1745248e-05
2.4864087e-05
2.8574824e-05
3.3008923e-05
3.8326554e-05
4.4722655e-05
5.243406e-05
6.2227899e-05
7.3581396e-05
8.7324884e-05
0.00010397452
0.00012415647
0.00014863057
0.00017831923
0.00021434286
0.0002580631
0.00031113621
0.00037557826
0.00045384564
0.00054893436
0.00066450356
0.00080502934
0.00097598733
0.0010188583
0.0010176838
0.0010164674
0.0010152066
0.0010138987
0.001012541
0.0010111305
0.0010096643
0.0010081393
0.0010066751
0.0010054345
0.0010043875
0.0010035079
0.0010027722
0.0010021606
0.0010016576
0.0010012493