/*--------------------------------*- C++ -*----------------------------------*\
  =========                 |
  \\      /  F ield         | OpenFOAM: The Open Source CFD Toolbox
   \\    /   O peration     | Website:  https://openfoam.org
    \\  /    A nd           | Version:  6
     \\/     M anipulation  |
\*---------------------------------------------------------------------------*/
FoamFile
{
    version     2.0;
    format      ascii;
    class       volScalarField;
    location    "1000";
    object      omega;
}
// * * * * * * * * * * * * * * * * * * * * * * * * * * * * * * * * * * * * * //

dimensions      [0 0 -1 0 0 0 0];

internalField   nonuniform List<scalar> 
16000
(
1436.1076
1492.6631
763.12339
495.19398
332.40528
256.95821
192.37184
159.74496
129.1791
110.57691
93.678915
81.614775
71.056645
62.761849
55.640139
49.762796
44.75589
40.522513
36.879575
33.742246
31.014713
28.635514
26.547348
24.707827
23.080468
21.636271
20.350681
19.203477
18.177602
17.258776
16.434949
15.695939
15.03301
14.438608
13.906161
13.429895
13.004675
12.62589
12.289355
11.991217
11.727921
11.496231
11.29312
11.115746
10.961458
10.827803
10.712488
10.613408
10.528657
10.456544
10.395639
10.344838
10.303591
10.272563
10.251152
10.237422
10.228807
10.222373
10.215993
10.208739
10.199626
10.188956
10.176213
10.160825
10.142385
10.121055
10.097748
10.074743
10.0536
10.035811
10.019802
10.008391
9.9963768
9.9908063
9.9822099
9.9901113
9.9839626
10.026211
9.9937454
10.037679
1340.5407
1533.4526
765.10399
502.69437
334.38949
260.81951
194.06795
161.90808
130.43997
111.78412
94.489228
82.262558
71.505434
63.063275
55.860167
49.943337
44.900915
40.641358
36.976923
33.822729
31.081749
28.691966
26.595458
24.749342
23.116784
21.668494
20.379693
19.229964
18.202085
17.281623
16.456418
15.716203
15.052195
14.456788
13.923381
13.446182
13.020046
12.640357
12.302935
12.003927
11.739763
11.507214
11.303263
11.125072
10.969992
10.835577
10.719538
10.619763
10.534338
10.461548
10.399917
10.348236
10.305664
10.272019
10.248284
10.232975
10.223588
10.216941
10.210579
10.203567
10.195636
10.186098
10.174457
10.160103
10.142564
10.121816
10.098711
10.075472
10.054201
10.03602
10.02019
10.00812
9.9970627
9.9916234
9.9830245
9.9878282
9.9830346
10.021047
9.994041
10.038263
1087.8875
1572.9347
765.01682
509.3912
335.71218
264.19162
195.4297
163.74341
131.48004
112.73646
95.108155
82.691656
71.77192
63.238219
55.987714
50.03932
44.970301
40.691311
37.012023
33.846512
31.097218
28.701362
26.600639
24.751634
23.117248
21.66793
20.378722
19.229036
18.20152
17.281614
16.457053
15.717507
15.054154
14.459351
13.926477
13.449729
13.023957
12.644548
12.307331
12.008466
11.744361
11.511801
11.307781
11.129473
10.974229
10.839619
10.72336
10.623342
10.537649
10.464556
10.402561
10.350404
10.307117
10.272174
10.245933
10.22884
10.218531
10.211596
10.205175
10.198162
10.190375
10.1816
10.171297
10.158199
10.141773
10.121837
10.099092
10.075775
10.054392
10.036025
10.020264
10.007882
9.9973128
9.9920017
9.9838541
9.9867235
9.9829487
10.016844
9.9942109
10.035008
1114.0352
1606.6672
763.40896
515.22671
336.47442
266.99912
196.51206
165.18235
132.30352
113.3771
95.515135
82.855598
71.871284
63.30114
56.018191
50.046375
44.960501
40.669256
36.982256
33.811366
31.059242
28.662146
26.561587
24.713636
23.080999
21.633897
20.347235
19.200293
18.175621
17.258555
16.436741
15.6998
15.03889
14.446342
13.915523
13.440631
13.01652
12.638579
12.30266
12.004945
11.74182
11.510084
11.306755
11.129016
10.974225
10.839969
10.723982
10.62416
10.538592
10.465549
10.403519
10.351214
10.3076
10.271968
10.244143
10.225043
10.213643
10.206351
10.19984
10.192776
10.184978
10.176298
10.166468
10.15489
10.139835
10.120974
10.098804
10.075559
10.05414
10.035712
10.02004
10.007498
9.9972973
9.9913911
9.9846364
9.98672
9.9831358
10.012216
9.9945103
10.033123
1137.941
1631.9649
760.65571
520.08732
336.69804
269.15845
197.31825
166.16243
132.89569
113.65604
95.683388
82.872236
71.849784
63.250964
55.950219
49.963523
44.870465
40.574381
36.886858
33.716684
30.967285
28.573862
26.47793
24.635051
23.007792
21.566203
20.285089
19.143633
18.124321
17.212414
16.39548
15.663105
15.006447
14.417823
13.890597
13.418978
12.99783
12.622555
12.289026
11.993471
11.732247
11.50217
11.300285
11.123798
10.970068
10.83671
10.721478
10.62228
10.537218
10.464566
10.402809
10.350648
10.307015
10.271115
10.242541
10.221603
10.208912
10.201181
10.194559
10.18742
10.179575
10.170895
10.161179
10.150058
10.136656
10.119163
10.097816
10.074803
10.053441
10.035066
10.019519
10.006961
9.9970564
9.9908003
9.9851763
9.9866855
9.9835537
10.008114
9.9948268
10.029486
1159.5623
1644.8509
757.24723
523.83014
336.41996
270.56107
197.85884
166.60061
133.23629
113.58282
95.582291
82.739468
71.70431
63.085267
55.781395
49.788914
44.698469
40.405292
36.724603
33.561445
30.820477
28.4358
26.349076
24.515393
22.897244
21.464551
20.19206
19.058895
18.047514
17.143127
16.333248
15.607433
14.956865
14.373856
13.851778
13.38486
12.967991
12.596583
12.266537
11.974153
11.715749
11.488162
11.28847
11.113912
10.961846
10.82992
10.715919
10.617764
10.533581
10.46165
10.400462
10.348715
10.305327
10.269453
10.240553
10.218564
10.204341
10.196075
10.189322
10.182091
10.174177
10.165464
10.155783
10.144861
10.13216
10.116361
10.096123
10.073515
10.052309
10.03409
10.018722
10.006262
9.9966142
9.9901783
9.9854359
9.9864927
9.9840856
10.004949
9.9952364
10.027016
1178.93
1643.1271
753.37875
526.25953
335.69886
271.08147
198.14984
166.40482
133.29332
113.31027
95.331232
82.458153
71.434354
62.804312
55.51142
49.522594
44.444376
40.161975
36.495473
33.345732
30.618925
28.248127
26.175227
24.354922
22.749651
21.329272
20.06851
18.946464
17.945601
17.051116
16.250478
15.533222
14.890581
14.314873
13.799488
13.338685
12.927393
12.561039
12.235539
11.947314
11.692625
11.468333
11.271556
11.099578
10.949755
10.819773
10.707454
10.61074
10.527787
10.456888
10.396545
10.345462
10.302552
10.266946
10.238031
10.21556
10.199937
10.191014
10.184111
10.176776
10.168779
10.160013
10.15033
10.139504
10.127152
10.112501
10.093708
10.071697
10.05075
10.032786
10.017665
10.005393
9.9959875
9.9895368
9.9854363
9.9857392
9.984639
10.002388
9.9955842
10.024206
1196.1401
1640.0049
748.39509
527.20218
334.6166
270.60118
198.20924
165.80128
133.00136
112.84489
94.931663
82.031249
71.040473
62.409307
55.140567
49.165101
44.108403
39.844728
36.19971
33.069828
30.362937
28.011179
25.956766
24.154057
22.565465
21.160852
19.914953
18.806876
17.819131
16.936936
16.147732
15.441032
14.808147
14.241417
13.734255
13.280961
12.876518
12.516378
12.196454
11.913343
11.663234
11.443012
11.249836
11.081061
10.93403
10.806472
10.696263
10.601362
10.519967
10.45039
10.391147
10.340957
10.298733
10.263598
10.234898
10.212259
10.195721
10.185984
10.178914
10.171465
10.163376
10.154545
10.144838
10.134062
10.121909
10.107817
10.090569
10.069371
10.048788
10.031174
10.016372
10.004368
9.9952114
9.9888683
9.9852583
9.9850002
9.9851402
9.9999953
9.9957986
10.021642
1211.3202
1637.9928
742.44951
526.508
333.25388
268.98008
198.01392
164.93308
132.39618
112.19493
94.384979
81.462467
70.523674
61.90211
54.669691
48.717514
43.691345
39.454332
35.838071
32.734508
30.053295
27.725764
25.694508
23.913645
22.345558
20.96018
19.732288
18.641031
17.669002
16.801478
16.025894
15.331726
14.710401
14.154292
13.656846
13.212414
12.816048
12.463246
12.149865
11.872774
11.628062
11.412636
11.223698
11.058708
10.914975
10.790283
10.682573
10.589823
10.510283
10.44229
10.38438
10.335286
10.293935
10.259447
10.231147
10.208604
10.191725
10.180971
10.173717
10.16615
10.157962
10.149059
10.139317
10.128567
10.116554
10.102855
10.086699
10.066568
10.046451
10.029277
10.014871
10.003207
9.9943238
9.988184
9.9849436
9.984389
9.985569
9.9978126
9.9959087
10.018929
1224.6376
1636.7283
735.64804
523.92248
331.68529
266.90589
197.49414
163.83052
131.63327
111.36804
93.691845
80.755385
69.884916
61.284471
54.099726
48.180989
43.19414
38.991739
35.411512
32.340779
29.691037
27.392952
25.389558
23.634822
22.091085
20.728426
19.521696
18.450109
17.496374
16.645881
15.886083
15.206389
14.598388
14.0545
13.568214
13.133933
12.746807
12.402424
12.09647
11.826244
11.587687
11.377729
11.1936
11.032921
10.892948
10.771513
10.666651
10.576348
10.498926
10.432746
10.376372
10.328555
10.288238
10.254547
10.226797
10.204512
10.187489
10.175967
10.168509
10.160823
10.152535
10.143557
10.133775
10.123039
10.111131
10.097705
10.082157
10.063332
10.043778
10.027131
10.013197
10.001935
9.9933627
9.987492
9.9845351
9.9839021
9.9859207
9.9959127
9.995947
10.016139
1236.2837
1635.7342
728.12524
519.1105
329.93489
264.48387
196.53151
162.51223
130.71343
110.37286
92.853562
79.913943
69.125627
60.558405
53.431976
47.556957
42.61809
38.458185
34.921356
31.890007
29.277578
27.014186
25.04339
23.319108
21.803584
20.467138
19.284723
18.235642
17.302745
16.471598
15.72972
15.066385
14.473407
13.943273
13.469521
13.046604
12.669788
12.334857
12.037103
11.774503
11.542783
11.3389
11.160069
11.004168
10.868357
10.750512
10.648799
10.561193
10.486108
10.421937
10.367269
10.320883
10.281737
10.248969
10.221893
10.200006
10.183018
10.170969
10.163283
10.155479
10.147093
10.138042
10.12822
10.117493
10.105675
10.092484
10.077452
10.059719
10.040817
10.024775
10.011385
10.000584
9.9923676
9.9868108
9.9840782
9.983523
9.9861995
9.9943932
9.996007
10.013722
1246.5414
1634.3917
720.06096
511.62614
327.99547
261.77607
195.06204
160.99853
129.63726
109.21841
91.871919
78.942054
68.247516
59.725924
52.667883
46.846971
41.964756
37.855121
34.362447
31.376837
28.807796
26.584734
24.651743
22.962763
21.479806
20.17352
19.018985
17.995603
17.086388
16.277153
15.555583
14.910688
14.334599
13.819897
13.360184
12.949952
12.584568
12.260273
11.972716
11.718405
11.494111
11.296844
11.123694
10.972965
10.841659
10.727666
10.629351
10.544638
10.472063
10.410055
10.357231
10.312399
10.274535
10.242794
10.216494
10.195119
10.178322
10.165984
10.158034
10.150117
10.14164
10.13252
10.122663
10.111947
10.10021
10.087225
10.072629
10.055796
10.037625
10.022259
10.009477
9.9991878
9.9913753
9.9861596
9.9836171
9.9832336
9.9863918
9.99329
9.9960618
10.011735
1255.6788
1631.8138
711.64333
503.53681
325.7919
258.84845
193.48946
159.30592
128.40243
107.91098
90.747343
77.841876
67.251402
58.788094
51.796292
46.036937
41.219661
37.170291
33.735732
30.804076
28.285655
26.10919
24.219517
22.570851
21.124805
19.852523
18.729279
17.734597
16.851665
16.066618
15.367529
14.742888
14.185286
13.68743
13.243014
12.846554
12.49338
12.180289
11.902801
11.657524
11.441315
11.251321
11.085113
10.939871
10.813356
10.70339
10.608671
10.526985
10.457043
10.397307
10.346429
10.303242
10.266746
10.23611
10.210663
10.189888
10.173413
10.161032
10.15276
10.14474
10.13618
10.127003
10.117119
10.106418
10.094762
10.081961
10.067738
10.05164
10.034266
10.019635
10.007516
9.9977851
9.9904205
9.9855583
9.9831877
9.9830176
9.9864577
9.9925018
9.9961282
10.010054
1263.9947
1626.8378
703.02264
494.98373
323.15882
255.73966
191.80439
157.45238
127.00837
106.45697
89.481404
76.61565
66.111668
57.715843
50.810059
45.127663
40.38792
36.410107
33.043394
30.174151
27.713865
25.590387
23.749563
22.146321
20.741525
19.507048
18.418445
17.455387
16.601208
15.842397
15.167892
14.565162
14.027483
13.547719
13.119717
12.738055
12.397726
12.096496
11.829626
11.593848
11.386089
11.203478
11.043958
10.904584
10.783248
10.678122
10.587151
10.50856
10.441315
10.383915
10.335041
10.293558
10.258488
10.229013
10.204473
10.184358
10.168284
10.15601
10.147466
10.139355
10.130724
10.121502
10.111604
10.10093
10.089358
10.076731
10.062832
10.047336
10.030809
10.016961
10.005546
9.9964142
9.9895365
9.9850306
9.9828253
9.9828821
9.9863819
9.9914954
9.9961705
10.008692
1271.7943
1617.7311
694.34122
486.00527
319.76331
252.4856
189.98899
155.45328
125.45446
104.86015
88.029281
75.205049
64.816732
56.511582
49.709058
44.119956
39.471248
35.576828
32.288249
29.49013
27.095868
25.031922
23.245397
21.692808
20.333552
19.140579
18.089848
17.161229
16.338134
15.60719
14.956913
14.377645
13.861227
13.400718
12.990174
12.624463
12.299124
12.01025
11.754392
11.528448
11.329468
11.154345
11.00171
10.868336
10.752136
10.651576
10.564607
10.489707
10.42516
10.370106
10.323253
10.283499
10.249884
10.221602
10.198003
10.178585
10.162962
10.150865
10.142161
10.133974
10.125288
10.116036
10.10614
10.095508
10.084031
10.071575
10.057969
10.042973
10.02733
10.014296
10.003613
9.9951115
9.9887523
9.984605
9.9825681
9.9828286
9.9862591
9.9906883
9.9961226
10.007514
1279.3542
1601.8919
685.71347
476.63585
316.15653
249.11614
188.01284
153.31772
123.74063
103.02387
86.358516
73.612383
63.362695
55.173528
48.493373
43.015105
38.472127
34.673561
31.474161
28.756034
26.436168
24.438483
22.711361
21.210763
19.901022
18.75302
17.743261
16.851886
16.062344
15.361762
14.738922
14.184421
13.690329
13.24992
12.85744
12.507929
12.197069
11.92108
11.67665
11.46088
11.271179
11.104725
10.959087
10.831829
10.720717
10.624719
10.541632
10.470221
10.408875
10.356121
10.311258
10.273216
10.241058
10.213982
10.191338
10.172639
10.157499
10.145631
10.136862
10.128615
10.119891
10.110627
10.100752
10.090181
10.078815
10.066537
10.053207
10.038644
10.023904
10.011697
10.00176
9.9939084
9.9880872
9.9843031
9.9824529
9.9828707
9.9860974
9.9900186
9.9959091
10.006447
1286.9022
1575.324
677.22702
466.84909
312.69052
245.65727
185.84304
150.97451
121.69168
100.93091
84.456404
71.829731
61.74539
53.700104
47.163981
41.815524
37.394548
33.704806
30.606677
27.977148
25.734222
23.809356
22.14813
20.707082
19.451177
18.351582
17.385661
16.534057
15.779987
15.111311
14.517147
13.988395
13.517404
13.097698
12.723754
12.390811
12.094721
11.83183
11.598912
11.393188
11.212515
11.054048
10.915583
10.794757
10.689529
10.59808
10.518703
10.45061
10.392251
10.342217
10.299256
10.262868
10.232133
10.206255
10.184565
10.166591
10.151951
10.140352
10.13159
10.1233
10.114557
10.105302
10.095469
10.08498
10.073745
10.061661
10.048606
10.034438
10.020606
10.009223
10.000028
9.9928307
9.987552
9.9841341
9.982497
9.983032
9.985954
9.9894548
9.9955657
10.005469
1294.5999
1531.6475
668.76378
456.54452
309.26409
242.09035
184.29848
148.3057
119.28097
98.558761
82.308165
69.846434
59.960074
52.090337
45.723438
40.525358
36.244926
32.676857
29.683229
27.152954
24.999379
23.154689
21.565275
20.188486
18.99036
17.942026
17.02213
16.212517
15.495361
14.85969
14.295022
13.792616
13.345143
12.946421
12.59119
12.274925
11.99368
11.743957
11.522588
11.326624
11.154826
11.00409
10.872592
10.75793
10.658104
10.571409
10.496279
10.431268
10.375701
10.328202
10.28747
10.252619
10.223235
10.198527
10.177772
10.160515
10.146381
10.135074
10.126372
10.11806
10.109317
10.100091
10.090322
10.079939
10.06886
10.056992
10.044225
10.03044
10.017505
10.006926
9.9984536
9.9918974
9.9871497
9.9840991
9.9827002
9.9833195
9.985891
9.9890541
9.9952475
10.00449
1302.2369
1474.073
659.63832
445.51785
305.71008
240.20783
181.83369
145.16046
116.48407
95.863638
79.891948
67.649772
58.002103
50.345148
44.177685
39.151306
35.017115
31.587069
28.717055
26.296935
24.241323
22.483606
20.971308
19.662604
18.525833
17.530883
16.657946
15.889143
15.209785
14.607756
14.073025
13.597252
13.173466
12.795808
12.459308
12.159707
11.893302
11.65683
11.447371
11.262281
11.099138
10.955656
10.830833
10.722128
10.627488
10.545306
10.474115
10.412585
10.359528
10.314416
10.275731
10.242658
10.214485
10.190903
10.17105
10.154488
10.140853
10.129849
10.121246
10.112931
10.104208
10.095031
10.085347
10.075093
10.064196
10.05257
10.040116
10.026724
10.014662
10.004856
9.9970691
9.9911201
9.9868751
9.984187
9.9830338
9.9837023
9.9859492
9.9888873
9.994889
10.003441
1309.7443
1429.2035
649.64984
440.69345
304.11603
236.24225
178.42741
141.4972
113.24776
92.821385
77.190923
65.235675
55.874774
48.47215
42.518619
37.689032
33.730493
30.455521
27.722056
25.421967
23.471853
21.806861
20.376255
19.137579
18.06126
17.121474
16.29726
15.571517
14.930236
14.361892
13.85697
13.407581
13.007151
12.650169
12.331972
12.048574
11.796515
11.572745
11.374522
11.199362
11.045044
10.909527
10.790883
10.687858
10.59815
10.520235
10.452721
10.394348
10.343983
10.301115
10.264328
10.232849
10.206001
10.183485
10.164487
10.148588
10.135434
10.124734
10.116253
10.107954
10.099271
10.090162
10.080581
10.070476
10.059783
10.048427
10.036319
10.02335
10.012126
10.003052
9.9959036
9.9905099
9.9867219
9.9843774
9.9834562
9.9841472
9.9861509
9.9889339
9.9944258
10.002229
1316.6897
1408.6543
641.80222
443.38759
304.14878
230.88347
174.39489
137.21807
109.5121
89.406494
74.1965
62.609395
53.592253
46.466988
40.771314
36.167701
32.405869
29.301275
26.715408
24.543341
22.704455
21.136008
19.786357
18.620431
17.607675
16.723509
15.948034
15.265061
14.661359
14.126073
13.65026
13.226521
12.848706
12.511665
12.211052
11.943161
11.704785
11.493099
11.305547
11.139718
10.993526
10.865109
10.753258
10.65557
10.570489
10.496578
10.432519
10.377113
10.329288
10.288512
10.253497
10.223507
10.197898
10.176373
10.158173
10.142893
10.130194
10.119788
10.111441
10.10318
10.094555
10.08553
10.076068
10.066124
10.055648
10.044581
10.032849
10.020362
10.009933
10.001545
9.9949854
9.9900881
9.9866977
9.9846569
9.9839482
9.9846579
9.986415
9.9888837
9.9938369
10.000708
1321.5529
1418.6189
634.55996
436.79316
299.68394
224.9689
169.42332
132.38022
105.26146
85.624004
70.923411
59.794453
51.153607
44.36883
38.968504
34.617053
31.069843
28.147746
25.717424
23.678485
21.954339
20.481505
19.216278
18.123272
17.173646
16.344259
15.616427
14.974983
14.407558
13.904023
13.456046
13.056748
12.700412
12.382254
12.098237
11.844919
11.619338
11.41892
11.241432
11.084394
10.945757
10.824586
10.718418
10.625654
10.544832
10.474606
10.413734
10.361066
10.315629
10.276768
10.243377
10.214757
10.190289
10.169668
10.152196
10.137485
10.125205
10.115077
10.106868
10.098664
10.090116
10.081193
10.071861
10.062084
10.051823
10.041034
10.02967
10.01779
10.008099
10.000348
9.994331
9.9898794
9.9868325
9.9850472
9.9845094
9.9852195
9.9867832
9.9890362
9.9934119
9.999238
1322.0771
1426.472
625.39477
426.5349
293.69607
217.90947
163.4497
126.83694
100.47111
81.4679
67.387299
56.795209
48.616129
42.222752
37.150724
33.072763
29.753494
27.021676
24.750594
22.845248
21.233461
19.859754
18.677717
17.655893
16.767364
15.990582
15.308183
14.706096
14.172865
13.69912
13.277166
12.900651
12.564299
12.263689
11.995074
11.755234
11.541354
11.350939
11.182817
11.034133
10.903035
10.787796
10.686792
10.598482
10.521491
10.454565
10.396573
10.346303
10.30319
10.266038
10.234096
10.206707
10.18329
10.163474
10.14665
10.132447
10.120545
10.110671
10.102596
10.094472
10.086022
10.077219
10.068032
10.05843
10.048377
10.037836
10.026765
10.015649
10.006624
9.9994493
9.9939214
9.98987
9.987131
9.9855741
9.9851748
9.9858694
9.9873064
9.9894624
9.9933692
9.9984083
1315.7066
1377.2018
616.57932
415.19404
285.77531
209.57902
156.4747
120.62927
95.218544
77.031733
63.687596
53.711269
46.055933
40.091987
35.370654
31.578946
28.494129
25.955183
23.843385
22.070034
20.567928
19.285509
18.182744
17.228216
16.397028
15.669287
15.028982
14.463153
13.96126
13.514692
13.116386
12.760518
12.442256
12.157555
11.902986
11.675597
11.472792
11.292305
11.132094
10.990293
10.865182
10.755169
10.658786
10.574443
10.500814
10.436673
10.381391
10.333524
10.292161
10.25648
10.225771
10.199415
10.177017
10.157894
10.14163
10.127866
10.11629
10.10664
10.098689
10.090668
10.08234
10.07368
10.064661
10.055256
10.045433
10.035161
10.024404
10.013952
10.005506
9.9988285
9.9937223
9.9900138
9.9875404
9.9861824
9.9858962
9.986573
9.9879221
9.9900034
9.9935167
9.9978613
1299.6911
1324.4815
607.9958
401.58461
276.17687
200.18468
148.67037
113.93613
89.694142
72.494728
59.984356
50.677503
43.579524
38.060985
33.69595
30.190057
27.335309
24.983219
23.024079
21.376174
19.977754
18.781532
17.750838
16.85691
16.076949
15.39273
14.789572
14.255584
13.781083
13.358159
12.980318
12.642208
12.339392
12.068165
11.825398
11.608419
11.414696
11.242113
11.088753
10.952853
10.832764
10.726943
10.634655
10.553897
10.483409
10.422048
10.368766
10.322616
10.282749
10.248316
10.218625
10.193304
10.171597
10.153041
10.137235
10.12383
10.112525
10.10306
10.095213
10.087317
10.079132
10.070635
10.061804
10.052613
10.043037
10.033048
10.022616
10.012713
10.004743
9.9984764
9.9937155
9.9902858
9.9880288
9.9868314
9.986629
9.9872892
9.9885865
9.9906157
9.9938119
9.9976139
1267.8342
1270.9183
601.24047
385.50066
264.36127
189.40864
139.86398
106.70116
83.919553
67.905071
56.33116
47.742643
41.213556
36.144826
32.136791
28.915957
26.283392
24.109281
22.293725
20.762461
19.459449
18.341798
17.376244
16.536669
15.802334
15.15663
14.586155
14.080028
13.629375
13.226927
12.866707
12.543772
12.254013
11.993975
11.760724
11.552637
11.366678
11.200882
11.053466
10.922781
10.807296
10.705573
10.616265
10.538112
10.46983
10.410317
10.358562
10.313642
10.275067
10.241754
10.213042
10.18835
10.167164
10.149036
10.133574
10.120438
10.109334
10.100007
10.092239
10.084487
10.076463
10.068146
10.059516
10.050552
10.041232
10.031529
10.021421
10.011937
10.004331
9.9983744
9.9938724
9.9906498
9.9885534
9.9874719
9.9873212
9.98796
9.9892178
9.9911847
9.9940979
9.9974581
1218.2456
1206.5249
588.80662
365.80133
248.97213
177.23543
130.699
99.819732
78.802422
64.064586
53.401874
45.462129
39.40027
34.683169
30.946935
27.938031
25.479288
23.44412
21.740333
20.299593
19.070421
18.013429
17.098041
16.300191
15.600734
14.984339
14.438624
13.953526
13.520823
13.133777
12.786838
12.475421
12.195708
11.944493
11.719056
11.51696
11.336132
11.174713
11.031011
10.903457
10.790581
10.691
10.603407
10.527171
10.460542
10.402461
10.351954
10.308132
10.270191
10.23741
10.209145
10.184824
10.163945
10.146067
10.130805
10.117822
10.106827
10.097569
10.08983
10.082239
10.074391
10.066268
10.057852
10.049125
10.040067
10.030659
10.020879
10.011665
10.004291
9.9985319
9.9941902
9.9910922
9.9890895
9.9880699
9.9879335
9.9885416
9.9897744
9.9917096
9.9944353
9.9974965
1161.5667
1127.7609
564.72534
343.47544
229.25056
161.51141
118.99387
91.114703
72.321309
59.197489
49.713532
42.650595
37.254634
33.030658
29.657924
26.921264
24.669259
22.793089
21.213017
19.869563
18.717612
17.722429
16.856799
16.099142
15.432493
14.843072
14.319684
13.853171
13.436011
13.062005
12.726025
12.423816
12.15182
11.90704
11.687743
11.490872
11.31448
11.156819
11.016304
10.89146
10.780895
10.683291
10.597402
10.522053
10.45614
10.398636
10.348595
10.305149
10.267511
10.234974
10.206905
10.182741
10.161988
10.144208
10.12902
10.116092
10.105135
10.095898
10.088163
10.080741
10.073073
10.065141
10.056931
10.048425
10.039607
10.030458
10.02096
10.011872
10.004604
9.998929
9.9946481
9.9915874
9.9896007
9.9885692
9.9883821
9.988917
9.9900912
9.9919252
9.9943824
9.9971498
1125.0707
1170.71
575.85688
346.73786
229.49176
160.58443
117.85773
90.265994
71.798474
58.925537
49.612397
42.65481
37.315729
33.124823
29.771846
27.04505
24.795829
22.917524
21.332019
19.981047
18.820399
17.815976
16.94121
16.175178
15.500883
14.904583
14.375044
13.903052
13.481023
13.102695
12.762886
12.457286
12.182297
11.934887
11.712472
11.512822
11.333969
11.174055
11.031448
10.904666
10.792316
10.693079
10.605708
10.529025
10.461921
10.403365
10.352399
10.308147
10.269812
10.236675
10.208093
10.183493
10.162369
10.144276
10.128824
10.115672
10.104524
10.095123
10.087247
10.080024
10.072561
10.064844
10.056857
10.048585
10.04001
10.031118
10.021889
10.012683
10.005316
9.9995649
9.9952227
9.9921105
9.9900766
9.9889929
9.9887419
9.9892143
9.9903367
9.9920775
9.9943603
9.997014
1162.987
1239.9272
597.1606
362.28558
239.0544
167.31489
122.56194
93.702019
74.368781
60.902683
51.162646
43.888138
38.307078
33.928708
30.428543
27.585023
25.242579
23.289445
21.643646
20.243949
19.043838
18.007431
17.106639
16.319146
15.627015
15.015749
14.473547
13.990744
13.559395
13.17295
12.825987
12.514008
12.233258
11.980583
11.753306
11.549123
11.366018
11.202271
11.056238
10.926379
10.811264
10.709547
10.619958
10.541299
10.472442
10.412339
10.360014
10.314574
10.275207
10.241177
10.211825
10.186566
10.164879
10.146309
10.130454
10.116964
10.105535
10.095902
10.087835
10.080836
10.073603
10.066119
10.058372
10.050346
10.042024
10.033392
10.024431
10.015126
10.007385
10.001314
9.9966972
9.9933486
9.9911089
9.9898408
9.9894232
9.9897517
9.9907457
9.9923398
9.9944563
9.9970147
30438.944
32840.928
18931.478
13114.973
9515.1955
6936.1053
5060.1835
3710.5418
2737.7304
2036.3803
1523.5447
1147.3091
866.4361
660.78774
501.45287
382.23984
289.58341
219.86002
168.26576
130.35738
102.21136
81.523545
66.235872
54.891216
46.434799
40.038489
35.148683
31.336413
28.309932
25.840361
23.774643
22.018496
20.504971
19.186854
18.030115
17.009793
16.107046
15.307223
14.598575
13.9714
13.41744
12.929503
12.501217
12.126832
11.801079
11.519072
11.27621
11.068002
10.890983
10.742527
10.620562
10.522736
10.444652
10.383075
10.335905
10.30114
10.276277
10.259172
10.24635
10.235987
10.225189
10.215005
10.201379
10.18865
10.167985
10.151316
10.121004
10.103125
10.058121
10.041462
10.009224
10.003707
9.9766994
9.9831709
9.9521392
9.9825588
9.9508585
10.004781
9.9633687
10.003142
33311.673
28220.115
21477.485
16269.484
12067.364
8791.5108
6369.3976
4616.0647
3361.4414
2463.4168
1816.2566
1345.5234
1001.0344
747.1436
559.45608
420.30136
317.01365
240.53766
183.88358
141.98714
110.84688
87.863281
70.885458
58.315843
48.983393
41.943863
36.584814
32.431065
29.162636
26.523108
24.327704
22.470089
20.876573
19.494275
18.285301
17.221932
16.283381
15.453591
14.719763
14.071392
13.499583
12.996629
12.555739
12.170818
11.836299
11.547056
11.2983
11.085223
10.904124
10.752215
10.627395
10.526991
10.446454
10.382923
10.334226
10.29847
10.273655
10.256813
10.244345
10.234411
10.223966
10.21418
10.200826
10.188473
10.167973
10.151598
10.121326
10.103672
10.059199
10.042722
10.010152
10.004899
9.9775626
9.984287
9.9532565
9.9833303
9.9521786
10.005749
9.9645608
10.004591
36637.865
20064.224
12938.419
8328.0889
4652.7119
2267.1339
1039.026
498.50778
280.52578
188.96174
146.39602
121.02188
104.32209
91.059235
80.735556
72.13826
64.6405
58.726928
53.165651
48.724155
44.466074
40.998727
37.783523
34.942058
32.41191
30.060253
27.981259
26.090899
24.386593
22.822019
21.392344
20.101951
18.940124
17.894034
16.952796
16.106733
15.347335
14.667005
14.058931
13.516984
13.035531
12.609414
12.233886
11.904494
11.617043
11.367556
11.152214
10.966904
10.809098
10.676918
10.568934
10.481782
10.411244
10.355661
10.313343
10.283256
10.263039
10.249464
10.23886
10.230177
10.22007
10.21089
10.197203
10.185422
10.163961
10.14856
10.116864
10.101009
10.054913
10.041903
10.00782
10.00531
9.9763556
9.9854126
9.9525596
9.9850453
9.9521281
10.007606
9.9648819
10.006128
33884.392
23396.601
13768.076
7745.6096
3595.9162
1420.1069
561.63039
281.47757
192.95663
152.73031
129.98811
111.55397
98.370949
86.551383
77.399621
69.484838
62.425495
57.039945
51.633969
47.512477
43.320733
40.097528
36.874528
34.223711
31.671063
29.476324
27.401733
25.596151
23.906262
22.381174
21.004667
19.763202
18.644868
17.63751
16.730516
15.914615
15.181737
14.524679
13.936996
13.412869
12.946962
12.534384
12.170615
11.851409
11.572744
11.330803
11.121905
10.942036
10.788901
10.660746
10.556031
10.470732
10.401614
10.347217
10.30621
10.277759
10.25882
10.246179
10.236215
10.227994
10.218193
10.20926
10.195738
10.18408
10.162707
10.14736
10.115779
10.100014
10.054773
10.042601
10.00808
10.006444
9.9769432
9.9868101
9.953439
9.9865681
9.9531143
10.009402
9.9658472
10.007758
35883.87
23005.134
13324.19
7265.7453
3264.2848
1241.6831
492.705
259.38428
184.43713
147.31969
125.77904
107.81922
95.228062
83.810805
75.241244
67.447722
61.071804
55.365131
50.52549
46.202685
42.446257
39.052967
36.074171
33.37783
30.974315
28.794663
26.834053
25.045534
23.426468
21.96152
20.638838
19.445528
18.369168
17.398436
16.523421
15.735477
15.027091
14.391502
13.822643
13.31501
12.863537
12.463574
12.110802
11.801148
11.530749
11.295925
11.09312
10.918402
10.769705
10.645379
10.543579
10.459951
10.392162
10.338887
10.299621
10.272725
10.254993
10.243186
10.233834
10.225985
10.216509
10.207718
10.194433
10.182752
10.16161
10.146103
10.11488
10.098867
10.054551
10.042403
10.008284
10.006107
9.9775451
9.9870977
9.9543014
9.9872962
9.9540735
10.010797
9.9667916
10.009202
36445.301
22682.747
12940.724
6712.0808
2742.1298
958.2811
390.69974
227.71742
173.93264
141.1951
121.70148
104.22137
92.306402
81.120046
73.006225
65.412897
59.310435
53.775138
49.13545
44.96135
41.336144
38.093414
35.214893
32.625947
30.301658
28.202705
26.30394
24.579789
23.014652
21.598248
20.319441
19.165125
18.12341
17.183435
16.335744
15.572078
14.885256
14.268797
13.716881
13.224214
12.78593
12.39756
12.054944
11.75415
11.491442
11.263261
11.066154
10.896264
10.751741
10.631021
10.531676
10.449549
10.382997
10.331248
10.293779
10.268321
10.25168
10.240618
10.231798
10.224267
10.215057
10.206377
10.193279
10.181562
10.160607
10.144944
10.114033
10.097908
10.054509
10.042656
10.008669
10.006935
9.9781712
9.9880346
9.9551992
9.9882618
9.9550638
10.012284
9.9677498
10.010665
37381.965
22425.775
12510.064
6151.8872
2382.1962
801.86903
343.6642
214.68352
168.57104
137.85792
118.93743
101.75038
90.158706
79.09748
71.24523
63.788283
57.903909
52.505225
48.01888
43.955623
40.444647
37.286023
34.493797
31.97695
29.722634
27.684492
25.842812
24.167624
22.647876
21.273035
20.031901
18.911528
17.900247
16.987502
16.164142
15.422202
14.754772
14.155597
13.619053
13.140025
12.713816
12.336105
12.002863
11.710274
11.454712
11.232721
11.040935
10.875561
10.734956
10.617624
10.52021
10.439447
10.374229
10.32447
10.288671
10.264512
10.248846
10.238433
10.230069
10.222792
10.213802
10.205188
10.192251
10.180461
10.159687
10.143832
10.113248
10.097009
10.054442
10.042576
10.008981
10.007365
9.9787795
9.9886543
9.9561033
9.9890944
9.9560572
10.01372
9.9687082
10.012098
38139.272
22072.422