/*--------------------------------*- C++ -*----------------------------------*\
  =========                 |
  \\      /  F ield         | OpenFOAM: The Open Source CFD Toolbox
   \\    /   O peration     | Website:  https://openfoam.org
    \\  /    A nd           | Version:  6
     \\/     M anipulation  |
\*---------------------------------------------------------------------------*/
FoamFile
{
    version     2.0;
    format      ascii;
    class       volScalarField;
    location    "1000";
    object      p;
}
// * * * * * * * * * * * * * * * * * * * * * * * * * * * * * * * * * * * * * //

dimensions      [1 -1 -2 0 0 0 0];

internalField   nonuniform List<scalar> 
16000
(
99134.994
99192.754
99196.715
99252.299
99264.397
99315.095
99336.305
99382.65
99411.604
99455.391
99490.167
99533.134
99572.096
99615.45
99657.438
99701.824
99746.065
99791.699
99837.647
99884.456
99931.656
99979.379
100027.38
100075.63
100123.96
100172.25
100220.36
100268.16
100315.47
100362.15
100408.05
100452.99
100496.83
100539.4
100580.55
100620.13
100658.01
100694.05
100728.12
100760.13
100789.97
100817.56
100842.83
100865.74
100886.23
100904.3
100919.92
100933.1
100943.86
100952.22
100958.23
100961.93
100963.37
100962.63
100959.76
100954.84
100947.95
100939.16
100928.56
100916.22
100902.22
100886.66
100869.55
100851.12
100831.09
100810.2
100787.19
100764.59
100737.79
100715.35
100681.64
100664.79
100615.51
100620.68
100527.26
100595.52
100390.79
100622.7
100190.36
100678.38
99188.227
99250.121
99254.049
99314.092
99326.529
99381.338
99403.6
99453.54
99484.233
99531.183
99568.183
99614.043
99655.49
99701.584
99746.149
99793.165
99839.954
99888.094
99936.466
99985.605
100035.02
100084.83
100134.77
100184.78
100234.67
100284.31
100333.53
100382.18
100430.09
100477.07
100522.96
100567.6
100610.81
100652.42
100692.3
100730.29
100766.26
100800.08
100831.66
100860.9
100887.73
100912.09
100933.94
100953.25
100970.03
100984.27
100996
101005.26
101012.09
101016.55
101018.71
101018.65
101016.43
101012.14
101005.87
100997.71
100987.74
100976.04
100962.71
100947.82
100931.46
100913.7
100894.6
100874.27
100852.65
100830.03
100806
100781.48
100754.7
100729.18
100698.05
100674.55
100633.17
100623.2
100551.33
100587.77
100424.13
100603.65
100222.4
100663.91
99262.781
99329.721
99333.675
99398.542
99411.728
99470.727
99494.559
99548.082
99580.992
99631.108
99670.706
99719.5
99763.698
99812.592
99859.901
99909.598
99959.015
100009.67
100060.47
100111.89
100163.44
100215.2
100266.89
100318.43
100369.6
100420.26
100470.22
100519.29
100567.29
100614.03
100659.33
100703.01
100744.9
100784.84
100822.67
100858.27
100891.51
100922.29
100950.52
100976.15
100999.11
101019.39
101036.99
101051.9
101064.17
101073.83
101080.95
101085.59
101087.83
101087.77
101085.5
101081.11
101074.71
101066.4
101056.29
101044.46
101031.03
101016.07
100999.69
100981.95
100962.95
100942.75
100921.4
100899
100875.53
100851.14
100825.67
100799.49
100771.91
100744.35
100713.85
100686.41
100649.37
100629.29
100570.99
100586.11
100451.56
100589.24
100250.02
100651.98
99360.058
99432.436
99436.449
99506.68
99520.727
99584.392
99610.021
99667.515
99702.948
99756.556
99799.075
99851.089
99898.332
99950.273
100000.57
100053.13
100105.34
100158.63
100211.93
100265.65
100319.3
100372.92
100426.22
100479.06
100531.24
100582.56
100632.82
100681.81
100729.34
100775.2
100819.21
100861.17
100900.92
100938.31
100973.19
101005.45
101034.98
101061.7
101085.58
101106.56
101124.65
101139.85
101152.2
101161.75
101168.58
101172.76
101174.4
101173.61
101170.49
101165.18
101157.79
101148.44
101137.27
101124.39
101109.92
101093.98
101076.65
101058.06
101038.27
101017.38
100995.46
100972.58
100948.79
100924.14
100898.67
100872.43
100845.38
100817.64
100788.97
100759.87
100729.13
100699.32
100664.42
100638.27
100588.25
100588.15
100476.23
100580.91
100278.16
100652.27
99479.715
99558.274
99562.566
99638.908
99654.149
99723.038
99750.904
99812.765
99851.182
99908.595
99954.442
100009.94
100060.55
100115.75
100169.25
100224.83
100279.95
100335.92
100391.71
100447.66
100503.29
100558.56
100613.19
100667
100719.75
100771.23
100821.21
100869.47
100915.79
100959.97
101001.81
101041.13
101077.77
101111.58
101142.45
101170.29
101195.02
101216.6
101235.03
101250.3
101262.46
101271.56
101277.7
101280.96
101281.46
101279.34
101274.73
101267.78
101258.63
101247.45
101234.38
101219.57
101203.16
101185.3
101166.1
101145.68
101124.17
101101.66
101078.23
101053.97
101028.94
101003.21
100976.83
100949.82
100922.23
100894.07
100865.34
100836.06
100806.13
100775.71
100744.31
100712.89
100678.8
100648.65
100604.32
100591.99
100498.67
100577.12
100304.76
100655.2
99624.892
99710.688
99715.287
99798.32
99814.868
99889.357
99919.754
99986.235
100027.99
100089.42
100138.92
100198.1
100252.32
100310.95
100367.81
100426.51
100484.59
100543.24
100601.46
100659.5
100716.88
100773.51
100829.08
100883.38
100936.14
100987.13
101036.08
101082.78
101126.99
101168.5
101207.12
101242.69
101275.05
101304.1
101329.75
101351.93
101370.63
101385.86
101397.64
101406.04
101411.15
101413.1
101412
101408.02
101401.31
101392.06
101380.45
101366.65
101350.85
101333.24
101313.98
101293.26
101271.21
101248
101223.76
101198.61
101172.66
101146.02
101118.77
101090.99
101062.72
101034.04
101004.97
100975.54
100945.77
100915.66
100885.21
100854.41
100823.19
100791.59
100759.38
100726.83
100692.93
100660.25
100619.85
100598.23
100520.15
100576.73
100331.4
100661.91
99796.477
99890.479
99895.175
99985.598
100003.67
100084.19
100117.54
100188.96
100234.5
100300.23
100353.78
100416.89
100475.04
100537.28
100597.69
100659.58
100720.66
100781.92
100842.43
100902.33
100961.13
101018.69
101074.66
101128.8
101180.81
101230.44
101277.41
101321.48
101362.43
101400.06
101434.19
101464.68
101491.41
101514.31
101533.34
101548.5
101559.82
101567.37
101571.24
101571.57
101568.5
101562.21
101552.9
101540.77
101526.04
101508.91
101489.63
101468.39
101445.43
101420.93
101395.1
101368.12
101340.15
101311.36
101281.87
101251.81
101221.3
101190.42
101159.26
101127.88
101096.32
101064.64
101032.86
101000.99
100969.03
100936.99
100904.84
100872.55
100840.07
100807.37
100774.33
100740.93
100706.89
100672.72
100635.1
100606.85
100541.22
100578.41
100358.25
100672.23
99994.094
100097.42
100102.39
100201.15
100221.2
100308.4
100345.33
100422.15
100472.11
100542.52
100600.63
100668
100730.41
100796.49
100860.6
100925.76
100989.8
101053.54
101116.08
101177.46
101237.18
101295.03
101350.65
101403.74
101454
101501.14
101544.89
101585.01
101621.3
101653.56
101681.67
101705.51
101725.03
101740.21
101751.08
101757.7
101760.18
101758.66
101753.32
101744.34
101731.96
101716.41
101697.95
101676.84
101653.33
101627.69
101600.18
101571.03
101540.5
101508.79
101476.11
101442.66
101408.6
101374.09
101339.26
101304.24
101269.12
101233.98
101198.9
101163.93
101129.11
101094.46
101060
101025.73
100991.65
100957.72
100923.93
100890.23
100856.56
100822.87
100789.05
100755.03
100720.72
100685.78
100649.95
100617.1
100562.17
100582.06
100386.74
100684.96
100219.03
100333.08
100338.53
100446.67
100469.27
100563.83
100605.08
100687.79
100742.87
100818.37
100881.57
100953.53
101020.52
101090.61
101158.53
101226.9
101293.75
101359.66
101423.79
101486.05
101545.95
101603.19
101657.39
101708.24
101755.4
101798.6
101837.56
101872.07
101901.96
101927.08
101947.35
101962.73
101973.24
101978.95
101979.96
101976.43
101968.55
101956.55
101940.68
101921.21
101898.45
101872.7
101844.27
101813.46
101780.58
101745.92
101709.77
101672.4
101634.04
101594.94
101555.29
101515.29
101475.11
101434.89
101394.75
101354.8
101315.14
101275.83
101236.92
101198.45
101160.46
101122.95
101085.91
101049.35
101013.24
100977.54
100942.21
100907.2
100872.45
100837.89
100803.4
100768.94
100734.36
100699.21
100664.51
100628.79
100582.92
100587.59
100416.93
100698.85
100473.05
100599.47
100605.61
100724.32
100750.12
100852.76
100899.18
100988.3
101049.23
101130.26
101199.07
101275.9
101347.73
101421.93
101493.61
101565.01
101634.29
101701.85
101766.84
101829.08
101888.04
101943.4
101994.75
102041.74
102084.06
102121.44
102153.65
102180.51
102201.9
102217.77
102228.12
102233
102232.52
102226.86
102216.22
102200.88
102181.11
102157.24
102129.61
102098.57
102064.5
102027.74
101988.67
101947.64
101904.96
101860.98
101815.97
101770.22
101723.97
101677.46
101630.88
101584.41
101538.21
101492.4
101447.1
101402.4
101358.37
101315.05
101272.49
101230.71
101189.72
101149.51
101110.07
101071.37
101033.38
100996.06
100959.34
100923.18
100887.49
100852.2
100817.2
100782.44
100747.71
100712.75
100678.75
100641.64
100603.28
100594.91
100448.37
100712.68
100758.31
100898.93
100905.97
101036.49
101066.29
101177.76
101230.3
101326.38
101393.97
101480.96
101555.87
101637.84
101714.65
101792.89
101868.1
101942.08
102013.12
102081.43
102146.16
102207.04
102263.52
102315.23
102361.77
102402.79
102438.02
102467.23
102490.26
102507
102517.46
102521.66
102519.74
102511.87
102498.29
102479.29
102455.21
102426.42
102393.33
102356.33
102315.87
102272.37
102226.24
102177.92
102127.78
102076.21
102023.55
101970.14
101916.26
101862.2
101808.18
101754.43
101701.12
101648.41
101596.45
101545.33
101495.14
101445.96
101397.83
101350.78
101304.83
101259.99
101216.24
101173.57
101131.95
101091.33
101051.67
101012.91
100974.99
100937.85
100901.4
100865.55
100830.22
100795.33
100760.62
100726.14
100692.57
100655.27
100622.87
100603.59
100479.94
100725.41
101076.06
101233.26
101241.73
101385.58
101420.49
101541.68
101601.54
101705.21
101780.33
101873.72
101955.15
102042.38
102124.13
102206.1
102284.26
102359.98
102431.67
102499.33
102562.13
102619.71
102671.52
102717.19
102756.34
102788.67
102813.98
102832.13
102843.07
102846.85
102843.57
102833.44
102816.72
102793.76
102764.94
102730.68
102691.47
102647.77
102600.11
102548.97
102494.86
102438.27
102379.66
102319.47
102258.11
102195.98
102133.41
102070.73
102008.22
101946.12
101884.66
101824.02
101764.35
101705.8
101648.46
101592.42
101537.73
101484.45
101432.59
101382.16
101333.17
101285.59
101239.4
101194.56
101151.02
101108.74
101067.65
101027.7
100988.8
100950.89
100913.88
100877.68
100842.2
100807.36
100772.88
100739.1
100705.85
100669.34
100641.47
100613.1
100511.32
100737.67
101429.97
101606.37
101616.82
101775.56
101816.85
101948.61
102017.03
102128.88
102212.29
102312.41
102400.54
102492.89
102579.15
102664.1
102744.13
102820.16
102890.72
102955.61
103014.05
103065.62
103109.8
103146.26
103174.7
103194.93
103206.87
103210.54
103206.06
103193.65
103173.62
103146.35
103112.29
103071.94
103025.87
102974.64
102918.85
102859.1
102795.96
102730.02
102661.82
102591.88
102520.69
102448.7
102376.31
102303.89
102231.77
102160.25
102089.56
102019.93
101951.55
101884.55
101819.07
101755.2
101693.01
101632.56
101573.86
101516.95
101461.81
101408.44
101356.8
101306.87
101258.59
101211.92
101166.79
101123.15
101080.92
101040.03
101000.4
100961.96
100924.61
100888.27
100852.86
100818.25
100784.25
100751.32
100718.47
100683.58
100659.22
100623.46
100541.99
100749.15
101823.45
102022.07
102035.28
102210.65
102259.87
102403.01
102481.38
102601.88
102694.18
102801.15
102895.85
102992.74
103082.52
103169.06
103249.09
103323.15
103389.87
103448.94
103499.6
103541.46
103574.1
103597.3
103610.91
103614.93
103609.48
103594.8
103571.25
103539.27
103499.41
103452.26
103398.47
103338.73
103273.75
103204.23
103130.86
103054.34
102975.3
102894.35
102812.07
102728.97
102645.53
102562.17
102479.28
102397.18
102316.16
102236.47
102158.32
102081.87
102007.27
101934.61
101863.99
101795.46
101729.05
101664.78
101602.65
101542.65
101484.75
101428.91
101375.09
101323.23
101273.27
101225.14
101178.78
101134.1
101091.04
101049.5
101009.42
100970.7
100933.26
100897.01
100861.88
100827.71
100794.44
100762.46
100730.2
100697.65
100675.74
100634.56
100571.79
100759.4
102260.25
102484.73
102501.79
102695.58
102754.57
102909.87
102999.84
103129.57
103230.98
103344.41
103444.94
103545.02
103636.44
103722.12
103799.18
103867.82
103926.78
103975.71
104013.97
104041.3
104057.46
104062.43
104056.33
104039.43
104012.15
103975.02
103928.68
103873.86
103811.33
103741.92
103666.47
103585.84
103500.86
103412.32
103321
103227.61
103132.82
103037.22
102941.38
102845.77
102750.83
102656.94
102564.43
102473.55
102384.56
102297.63
102212.91
102130.52
102050.55
101973.06
101898.09
101825.65
101755.73
101688.32
101623.4
101560.91
101500.8
101443.02
101387.51
101334.18
101282.96
101233.78
101186.55
101141.19
101097.62
101055.74
101015.48
100976.75
100939.47
100903.55
100868.91
100835.4
100803.09
100772.14
100740.77
100710.95
100690.37
100646.07
100600.42
100767.49
102745.72
103000.19
103022.46
103236.16
103306.88
103474.96
103577.98
103717.44
103827.76
103946.29
104050.84
104151.65
104241.5
104322.52
104392.14
104450.35
104496.1
104529.11
104549.01
104555.77
104549.48
104530.48
104499.24
104456.42
104402.8
104339.25
104266.74
104186.26
104098.83
104005.49
103907.23
103805.01
103699.73
103592.24
103483.31
103373.65
103263.89
103154.59
103046.23
102939.24
102833.98
102730.75
102629.79
102531.32
102435.49
102342.42
102252.2
102164.9
102080.53
101999.12
101920.66
101845.12
101772.46
101702.63
101635.57
101571.22
101509.5
101450.32
101393.62
101339.3
101287.27
101237.44
101189.72
101144.04
101100.28
101058.38
101018.23
100979.76
100942.88
100907.53
100873.6
100840.97
100809.82
100779.96
100749.86
100722.99
100702.98
100657.8
100627.53
100772.94
103285.59
103575.11
103605.24
103840.86
103926.89
104108.8
104223.61
104369.38
104488.04
104609.74
104715.14
104812.66
104895.94
104966.52
105022.24
105063.07
105088.34
105098.03
105092.22
105071.31
105035.88
104986.73
104924.84
104851.29
104767.27
104674
104572.76
104464.77
104351.26
104233.36
104112.16
103988.65
103863.74
103738.24
103612.87
103488.27
103364.98
103243.47
103124.13
103007.29
102893.22
102782.12
102674.15
102569.45
102468.09
102370.12
102275.57
102184.45
102096.72
102012.36
101931.31
101853.51
101778.89
101707.36
101638.86
101573.27
101510.52
101450.49
101393.11
101338.26
101285.85
101235.79
101187.97
101142.31
101098.7
101057.07
101017.32
100979.37
100943.15
100908.58
100875.56
100844.03
100814.17
100785.5
100757.04
100733.11
100712.92
100668.85
100652.38
100775.77
103886.7
104217.65
104260.23
104518.47
104621.54
104814.19
104941.81
105094.81
105217.09
105337.46
105437.78
105525.1
105593.98
105645.6
105678.42
105692.67
105688.28
105665.8
105625.93
105569.7
105498.33
105413.19
105315.78
105207.64
105090.32
104965.35
104834.2
104698.27
104558.84
104417.08
104274.05
104130.69
103987.82
103846.14
103706.26
103568.7
103433.87
103302.11
103173.7
103048.86
102927.73
102810.44
102697.05
102587.6
102482.1
102380.54
102282.87
102189.05
102099.01
102012.66
101929.93
101850.7
101774.9
101702.4
101633.11
101566.9
101503.69
101443.34
101385.77
101330.85
101278.49
101228.58
101181.02
101135.71
101092.57
101051.5
101012.42
100975.24
100939.9
100906.32
100874.4
100844.15
100815.68
100788.31
100761.86
100740.55
100719.64
100678.57
100673.8
100775.65
104575.59
104950.02
105005.61
105282.31
105398.94
105600.76
105738.69
105894.28
106014.97
106126.04
106212.19
106278.93
106322.29
106343.46
106341.86
106318.39
106273.87
106209.67
106127.34
106028.65
105915.52
105789.89
105653.72
105508.92
105357.29
105200.51
105040.13
104877.53
104713.93
104550.42
104387.91
104227.2
104068.94
103913.67
103761.84
103613.8
103469.82
103330.09
103194.77
103063.94
102937.66
102815.93
102698.76
102586.08
102477.85
102373.99
102274.4
102178.99
102087.65
102000.26
101916.7
101836.85
101760.6
101687.8
101618.35
101552.11
101488.96
101428.8
101371.49
101316.93
101265.01
101215.62
101168.65
101124.02
101081.63
101041.39
101003.21
100967.03
100932.78
100900.37
100869.72
100840.9
100813.89
100787.97
100763.66
100744.44
100722.99
100686.75
100690.77
100772.22
105350.73
105767.28
105831.81
106121.88
106267.08
106487.47
106623.82
106770.04
106876.96
106965.16
107022.85
107054.39
107057.56
107034.12
106984.84
106911.65
106816.53
106701.85
106570.07
106423.72
106265.29
106097.17
105921.59
105740.61
105556.07
105369.61
105182.65
104996.4
104811.9
104630.01
104451.43
104276.72
104106.33
103940.59
103779.77
103624.03
103473.5
103328.22
103188.22
103053.47
102923.93
102799.53
102680.16
102565.73
102456.11
102351.18
102250.8
102154.84
102063.15
101975.58
101892.01
101812.27
101736.24
101663.78
101594.74
101528.99
101466.41
101406.87
101350.25
101296.44
101245.31
101196.77
101150.7
101107.03
101065.64
101026.47
100989.42
100954.43
100921.44
100890.36
100861.14
100833.86
100808.39
100784.06
100761.92
100744.58
100723.81
100692.26
100701.96
100765.08
106211.64
106671.22
106766.72
107094.28
107241.4
107446.6
107579.19
107701.46
107779.51
107827.86
107839.24
107817.97
107764.21
107681.03
107570.94
107437.24
107283.17
107112.06
106927.12
106731.41
106527.7
106318.52
106106.07
105892.27
105678.77
105466.92
105257.85
105052.49
104851.54
104655.58
104465.03
104280.2
104101.3
103928.46
103761.75
103601.17
103446.69
103298.25
103155.75
103019.07
102888.08
102762.63
102642.57
102527.74
102417.98
102313.11
102212.97
102117.39
102026.2
101939.25
101856.38
101777.41
101702.22
101630.63
101562.52
101497.74
101436.16
101377.65
101322.08
101269.35
101219.33
101171.93
101127.03
101084.55
101044.4
101006.49
100970.75
100937.12
100905.53
100875.9
100848.22
100822.55
100798.67
100776.06
100756.15
100740.68
100720.7
100692.65
100707.2
100755.33
107203.68
107719.07
107838.54
108156.86
108308.63
108489.72
108592.65
108668.48
108691.95
108676.26
108618.34
108524.01
108396.11
108239.5
108058.43
107857.43
107640.7
107412.15
107175.27
106933.15
106688.44
106443.37
106199.79
105959.22
105722.84
105491.61
105266.22
105047.21
104834.96
104629.7
104431.57
104240.64
104056.89
103880.27
103710.68
103547.98
103392.02
103242.64
103099.63
102962.83
102832.02
102707
102587.58
102473.56
102364.74
102260.93
102161.92
102067.55
101977.62
101891.97
101810.41
101732.79
101658.95
101588.73
101521.99
101458.58
101398.37
101341.23
101287.04
101235.68
101187.04
101141.02
101097.51
101056.43
101017.69
100981.21
100946.92
100914.77
100884.68
100856.59
100830.51
100806.48
100784.18
100763.35
100745.55
100731.43
100712.47
100689.28
100705.87
100740.82
108366.75
108905.33
109033.68
109328.16
109451.17
109576.31
109616.02
109613.25
109552.22
109446.32
109297.31
109113.09
108899.14
108661.87
108406.75
108138.93
107862.8
107582.18
107300.19
107019.42
106741.92
106469.29
106202.77
105943.26
105691.41
105447.66
105212.27
104985.39
104767.05
104557.2
104355.73
104162.5
103977.3
103799.95
103630.19
103467.81
103312.54
103164.16
103022.4
102887.03
102757.8
102634.48
102516.84
102404.66
102297.71
102195.79
102098.69
102006.21
101918.18
101834.4
101754.69
101678.9
101606.86
101538.41
101473.41
101411.71
101353.19
101297.71
101245.16
101195.42
101148.38
101103.93
101062
101022.48
100985.29
100950.37
100917.64
100887.05
100858.54
100832.05
100807.6
100785.18
100764.48
100745.46
100729.59
100716.57
100699.19
100680.95
100696.99
100720.3
109677.81
110198
110304.77
110536.78
110595.17
110625.35
110564.47
110449.85
110276.46
110059.44
109805.29
109523.75
109222.05
108907.13
108584.54
108258.98
107934.13
107612.89
107297.47
106989.5
106690.13
106400.17
106120.11
105850.23
105590.63
105341.3
105102.1
104872.84
104653.3
104443.19
104242.21
104050.07
103866.44
103691.01
103523.47
103363.5
103210.8
103065.09
102926.07
102793.47
102667.02
102546.48
102431.58
102322.11
102217.83
102118.52
102023.97
101933.99
101848.38
101766.97
101689.57
101616.02
101546.15
101479.82
101416.89
101357.2
101300.63
101247.06
101196.37
101148.45
101103.19
101060.5
101020.28
100982.45
100946.93
100913.66
100882.56
100853.59
100826.68
100801.8
100778.97
100758.13
100739
100721.76
100707.58
100695.51
100680.02
100666.33
100680.35
100694.32
111002.97
111518.82
111583.34
111701.5
111645.19
111531.27
111328.72
111072.37
110767.85
110431.64
110073.01
109701.68
109324.54
108947.3
108574.12
108208.13
107851.51
107505.75
107171.8
106850.19
106541.16
106244.72
105960.73
105688.94
105429.02
105180.59
104943.26
104716.61
104500.2
104293.63
104096.49
103908.36
103728.86
103557.61
103394.27
103238.47
103089.9
102948.23
102813.17
102684.43
102561.74
102444.83
102333.47
102227.41
102126.42
102030.3
101938.83
101851.81
101769.06
101690.41
101615.67
101544.68
101477.29
101413.35
101352.72
101295.27
101240.87
101189.39
101140.73
101094.78
101051.44
101010.61
100972.21
100936.15
100902.37
100870.79
100841.36
100814.03
100788.72
100765.44
100744.17
100724.82
100707.21
100691.63
100678.87
100667.65
100654.21
100644.33
100655.57
100662.28
112510.26
112840.69
112790.44
112697.17
112458.74
112155.72
111787.86
111384.6
110957.05
110519.12
110078.93
109643.35
109216.72
108802.16
108401.57
108016.09
107646.25
107292.15
106953.66
106630.41
106321.95
106027.76
105747.27
105479.89
105225.03
104982.11
104750.57
104529.86
104319.47
104118.9
103927.69
103745.39
103571.6
103405.91
103247.95
103097.37
102953.83
102817.02
102686.65
102562.42
102444.06
102331.32
102223.97
102121.75
102024.46
101931.88
101843.81
101760.06
101680.46
101604.82
101532.98
101464.79
101400.08
101338.73
101280.6
101225.55
101173.46
101124.22
101077.72
101033.86
100992.54
100953.67
100917.17
100882.96
100850.96
100821.12
100793.38
100767.68
100743.98
100722.25
100702.48
100684.58
100668.43
100654.36
100642.81
100632.43
100621.02
100614.1
100622.31
100624.09
113816.98
113776.56
113522.24
113173.83
112737.49
112259.92
111756.36
111246.53
110739.89
110244.52
109764.66
109303.15
108861.18
108439.15
108036.99
107654.26
107290.3
106944.31
106615.44
106302.83
106005.63
105723.03
105454.22
105198.42
104954.91
104723.03
104502.17
104291.76
104091.27
103900.19
103718.07
103544.46
103378.96
103221.19
103070.78
102927.4
102790.72
102660.44
102536.27
102417.95
102305.21
102197.82
102095.55
101998.18
101905.5
101817.33
101733.46
101653.71
101577.93
101505.94
101437.59
101372.73
101311.22
101252.92
101197.71
101145.46
101096.06
101049.4
101005.38
100963.89
100924.84
100888.16
100853.76
100821.56
100791.5
100763.51
100737.55
100713.55
100691.49
100671.32
100653.03
100636.52
100621.76
100609.03
100598.48
100588.86
100579.21
100574.66
100580.86
100578.09
114191.62
113866.31
113424.07
112904.73
112354.51
111797.19
111246.83
110712.59
110198.75
109707.75
109240.16
108795.89
108374.31
107974.48
107595.21
107235.29
106893.55
106568.88
106260.25
105966.67
105687.25
105421.17
105167.74
104926.3
104696.19
104476.84
104267.67
104068.18
103877.88
103696.34
103523.12
103357.85
103200.14
103049.66
102906.07
102769.07
102638.35
102513.68
102394.8
102281.47
102173.47
102070.58
101972.58
101879.27
101790.45
101705.95
101625.59
101549.2
101476.61
101407.68
101342.25
101280.19
101221.37
101165.64
101112.9
101063.02
101015.9
100971.43
100929.5
100890.04
100852.94
100818.12
100785.51
100755.03
100726.62
100700.21
100675.76
100653.2
100632.5
100613.64
100596.57
100581.21
100567.58
100555.84
100545.98
100537.26
100529.38
100525.31
100527.41
100525.13
112743.61
112492.49
112119.97
111657.23
111175.27
110685.67
110204.81
109737.79
109288.15
108857.2
108445.26
108052.08
107677.06
107319.51
106978.7
106653.86
106344.2
106048.96
105767.41
105498.84
105242.6
104998
104764.47
104541.52
104328.68
104125.49
103931.49
103746.28
103569.45
103400.63
103239.46
103085.6
102938.75
102798.6
102664.87
102537.3
102415.64
102299.63
102189.03
102083.6
101983.13
101887.42
101796.27
101709.5
101626.94
101548.41
101473.75
101402.82
101335.45
101271.52
101210.88
101153.4
101098.97
101047.45
100998.74
100952.73
100909.3
100868.37
100829.84
100793.62
100759.62
100727.76
100697.97
100670.18
100644.32
100620.33
100598.16
100577.76
100559.08
100542.1
100526.76
100513.03
100500.91
100490.45
100481.62
100474.09
100467.88
100464.15
100463.6
100462.41
107980.9
109064.94
109244.55
109317.16
109190.17
108989.96
108730.41
108443.38
108139.78
107830.35
107520.42
107214.15
106913.89
106621.3
106337.33
106062.56
105797.29
105541.62
105295.54
105058.92
104831.61
104613.39
104403.99
104203.09
104010.4
103825.63
103648.5
103478.75
103316.11
103160.34
103011.18
102868.4
102731.78
102601.08
102476.11
102356.68
102242.56
102133.53
102029.4
101929.99
101835.14
101744.66
101658.41
101576.22
101497.95
101423.45
101352.59
101285.22
101221.23
101160.48
101102.84
101048.21
100996.47
100947.51
100901.23
100857.52
100816.28
100777.43
100740.87
100706.52
100674.3
100644.12
100615.93
100589.64
100565.19
100542.52
100521.59
100502.32
100484.69
100468.65
100454.15
100441.17
100429.68
100419.69
100411.16
100404
100398.26
100394.13
100391.72
100390.65
110354.82
110396.54
110276.03
110031.07
109673.42
109247.01
108779.6
108290.21
107791.27
107289.23
106797.44
106315.9
105854.45
105409.47
104983.75
104591.1
104227.89
103901.93
103608.55
103346.11
103113.26
102906.59
102723.98
102562.46
102419.69
102292.2
102176.48
102070.65
101974.52
101891.66
101817.43
101748.64
101684.65
101624.53
101567.65
101513.52
101461.85
101412.41
101365.05
101319.66
101276.18
101234.54
101194.68
101156.56
101120.13
101085.33
101052.11
101020.43
100990.2
100961.38
100933.88
100907.68
100882.62
100858.73
100835.76
100813.9
100792.59
100772.48
100752.27
100733.76
100713.85
100697.08
100676.21
100661.96
100637.98
100628.28
100597.43
100596.48
100552.33
100567.71
100498.2
100544.84
100432.12
100531.63
100348.71
100533.65
100242.13
100556.63
100105.8
100612.23
97206.585
97403.291
97780.784
98187.221
98627.335
99100.694
99506.199
99853.681
100178.68
100470.4
100722.07
100941.6
101130.86
101292.04
101428.55
101542.04
101636.47
101710.95
101767.37
101807.21
101833.93
101847.49
101850.4
101842.96
101827.38
101804.15
101775.66
101743.53
101707.54
101669.54
101629.81
101588.67
101545.84
101502.36
101458.91
101415.9
101373.66
101332.43
101292.37
101253.57
101216.1
101179.98
101145.22
101111.8
101079.72
101048.95
101019.46
100991.22
100964.18
100938.31
100913.53
100889.83
100867.08
100845.32
100824.29
100804.21
100784.52
100765.87
100747.02
100729.66
100710.93
100694.97
100675.22
100661.34
100638.62
100628.67
100599.47
100597.33
100555.6
100569.03
100503.8
100546.12
100439.1
100533.26
100355.09
100536.08
100246.36
100562.56
100106.47
100620.72
104083.02
104116.67
104115.94
104089.38
104034.66
103957.99
103865.71
103761.35
103648.5
103531.58
103411.3
103290.43
103169.46
103050.1
102932.45
102819.05
102707.59
102604.62
102503.98
102412.61
102319.49
102237.34
102152.46
102078.65
102007.14
101942.26
101884.38
101828.87
101778.08
101717.01
101659.48
101605.31
101553.53
101504.19
101457.02
101411.84
101368.48
101326.81
101286.75
101248.22
101211.16
101175.55
101141.35
101108.54
101077.07
101046.92
101018.06
100990.45
100964.04
100938.79
100914.62
100891.52
100869.33
100848.12
100827.6
100808.01
100788.75
100770.51
100751.99
100734.96
100716.45
100700.71
100681.09
100667.29
100644.65
100634.56
100605.46
100602.95
100560.96
100573.91
100509.29
100549.87
100444.91
100535.79
100361.21
100537.66
100251.94
100564.23
100110.45
100623.58
101652.79
101654.96
101662.8
101677.74
101696.78
101716.3
101736.42
101757.99
101779.34
101800.96
101821.11
101840.22
101856.86
101870.95
101881.24
101887.96
101889.78
101887.78
101881.16
101870.92
101856.86
101839.73
101819.4
101794.14
101764.34
101730.82
101695.13
101657.22
101619.03
101580.97
101542.23
101503.53
101464.9
101426.5
101388.5
101351.05
101314.29
101278.34
101243.28
101209.2
101176.14
101144.16
101113.28
101083.5
101054.84
101027.29
101000.83
100975.45
100951.11
100927.79
100905.4
100883.95
100863.29
100843.49
100824.26
100805.85
100787.66
100770.42
100752.75
100736.52
100718.66
100703.57
100684.37
100671.11
100648.66
100639.05
100609.9
100607.9
100565.77
100579.05
100513.96
100555.09
100448.73
100540.83
100364.92
100542.56
100255.03
100568.7
100112.69
100627.59
102033
102040.53
102041.58
102040.22
102037.25
102032.1
102025.35
102017.92
102009.18
101999.59
101988.25
101976.73
101962.55
101947.91
101931.16
101912.62
101893.35
101870.2
101847.41
101820.17
101793.9
101762.94
101732.99
101699.98
101667.95
101633.96
101600.94
101566.4
101532.19
101497.75
101463.36
101429.13
101395.16
101361.55
101328.37
101295.7
101263.59
101232.12
101201.32
101171.26
101141.98
101113.52
101085.92
101059.2
101033.39
101008.48
100984.47
100961.37
100939.15
100917.78
100897.21
100877.44
100858.33
100839.94
100822.01
100804.77
100787.65
100771.35
100754.53
100739.03
100721.81
100707.25
100688.51
100675.59
100653.45
100643.99
100615.03
100613.02
100570.95
100583.98
100519.11
100559.71
100453.93
100545.03
100369.69
100546.16
100259.16
100572.22
100115.56
100630.83
101515.88
101521.01
101525.89
101532.74
101539.7
101546.72
101551.84
101558.03
101561.99
101566.24
101567.88
101569.59
101568.8
101568.08
101565.09
101561.7
101556.41
101550.4
101542.6
101533.97
101523.53
101512.39
101499.29
101485.11
101469.04
101451.73
101432.76
101412.63
101391.26
101368.96
101345.79
101321.91
101297.46
101272.58
101247.41
101222.09
101196.74
101171.48
101146.42
101121.66
101097.28
101073.36
101049.97
101027.16
101004.96
100983.41
100962.52
100942.3
100922.74
100903.84
100885.54
100867.85
100850.65
100834.01
100817.67
100801.88
100786.05
100770.9
100755.12
100740.5
100724.08
100710.15
100692.01
100679.49
100657.77
100648.51
100619.85
100617.82
100576.07
100588.8
100523.99
100564.33
100458.54
100549.28
100374.05
100550.16
100262.87
100575.76
100118.23
100633.91
101332.09
101338.79
101343.74
101349.4
101355.35
101361.03
101365.71
101370.59
101373.3
101377.4
101378.69
101381.92
101382.26
101383.84
101383.07
101382.25
101379.44
101376.53
101371.99
101366.83
101360.3
101352.83
101344.15
101334.42
101323.58
101311.7
101298.8
101284.91
101270.1
101254.43
101237.97
101220.8
101203.01
101184.69
101165.93
101146.83
101127.49
101107.99
101088.42
101068.88
101049.45
101030.19
101011.18
100992.48
100974.13
100956.17
100938.62
100921.51
100904.83
100888.6
100872.76
100857.33
100842.21
100827.46
100812.85
100798.59
100784.17
100770.24
100755.57
100741.87
100726.31
100713.03
100695.54
100683.4
100662.18
100653.02
100624.79
100622.59
100581.26
100593.51
100529.07
100568.79
100463.8
100553.35
100378.72
100553.9
100266.83
100579.07
100120.98
100636.7
101074.51
101081.28
101086.72
101093.25
101099.98
101106.8
101112.96