/*--------------------------------*- C++ -*----------------------------------*\
  =========                 |
  \\      /  F ield         | OpenFOAM: The Open Source CFD Toolbox
   \\    /   O peration     | Website:  https://openfoam.org
    \\  /    A nd           | Version:  6
     \\/     M anipulation  |
\*---------------------------------------------------------------------------*/
FoamFile
{
    version     2.0;
    format      ascii;
    class       surfaceScalarField;
    location    "1000";
    object      phi;
}
// * * * * * * * * * * * * * * * * * * * * * * * * * * * * * * * * * * * * * //

dimensions      [1 0 -1 0 0 0 0];

internalField   nonuniform List<scalar> 
31760
(
-0.0005799746
-0.038265389
0.038845363
-0.0012900503
-0.042401429
0.043111503
-0.0020165678
-0.043517224
0.044243741
-0.0027976835
-0.046049936
0.04683105
-0.0035990499
-0.047881053
0.048682419
-0.0044549658
-0.050320941
0.051176856
-0.0053396844
-0.052537166
0.053421885
-0.0062767802
-0.055080067
0.056017162
-0.0072513485
-0.057593396
0.058567964
-0.0082782227
-0.060321573
0.061348446
-0.009350248
-0.063111307
0.064183332
-0.010476471
-0.066072378
0.0671986
-0.011654067
-0.069143045
0.070320642
-0.01288901
-0.072373248
0.07360819
-0.014181307
-0.075741372
0.07703367
-0.015535202
-0.079272068
0.080625962
-0.016951956
-0.08296177
0.084378525
-0.018434854
-0.086824436
0.088307334
-0.019985936
-0.090864542
0.092415624
-0.021608266
-0.095092412
0.096714741
-0.023304114
-0.099515937
0.10121179
-0.02507656
-0.10414502
0.10591746
-0.026927602
-0.10898938
0.11084042
-0.02886013
-0.11405955
0.11599207
-0.030876473
-0.11936632
0.12138267
-0.032978707
-0.1249219
0.12702414
-0.035169158
-0.13073794
0.13292839
-0.037450106
-0.13682789
0.13910883
-0.03982316
-0.14320536
0.14557842
-0.042289682
-0.14988513
0.15235165
-0.044851359
-0.15688225
0.15944393
-0.047508954
-0.16421346
0.16687106
-0.050263545
-0.17189535
0.17464994
-0.053115006
-0.17994654
0.182798
-0.056063265
-0.18838636
0.19133461
-0.059107899
-0.1972348
0.20027943
-0.062247974
-0.2065131
0.20965318
-0.065481349
-0.21624442
0.21947779
-0.068806133
-0.2264522
0.22977699
-0.072219242
-0.23716156
0.24057467
-0.075717311
-0.24839891
0.25189698
-0.07929569
-0.26019228
0.26377066
-0.082949464
-0.27257056
0.27622434
-0.086672132
-0.28556524
0.28928791
-0.090456844
-0.29920796
0.30299267
-0.094295554
-0.31353331
0.31737202
-0.098178512
-0.32857676
0.33245972
-0.10209536
-0.34437616
0.34829301
-0.10603408
-0.36097076
0.36490949
-0.10998056
-0.37840254
0.38234901
-0.11391972
-0.39671454
0.4006537
-0.11783373
-0.41595283
0.41986684
-0.1217029
-0.43616539
0.44003456
-0.12550467
-0.45740278
0.46120454
-0.1292144
-0.4797176
0.48342733
-0.13280361
-0.50316582
0.50675503
-0.13624078
-0.52780595
0.53124312
-0.13948973
-0.55369959
0.55694854
-0.14251062
-0.58091
0.58393089
-0.14525811
-0.60950482
0.61225231
-0.1476814
-0.63955527
0.64197857
-0.14972335
-0.67113438
0.67317633
-0.1513212
-0.70432148
0.70591934
-0.1524011
-0.73919567
0.74027557
-0.15288733
-0.77584506
0.77633129
-0.15268144
-0.81435195
0.81414606
-0.15169813
-0.85481853
0.85383522
-0.14979428
-0.897307
0.89540315
-0.14690274
-0.94196761
0.93907607
-0.1427811
-0.98878096
0.98465932
-0.13745541
-1.0380654
1.0327397
-0.13046048
-1.089506
1.0825111
-0.12209533
-1.1440082
1.135643
-0.11133304
-1.2002023
1.18944
-0.099177555
-1.2608932
1.2487377
-0.083556727
-1.3210593
1.3054384
-0.06671519
-1.389351
1.3725095
-0.045166503
-1.4515611
1.4300124
-0.022095966
-1.5291442
1.5060737
-1.5943496
1.5656756
-0.00056080192
-0.037704588
-0.0012322443
-0.041729987
-0.0019212933
-0.042828176
-0.0026606879
-0.045310542
-0.0034226125
-0.047119128
-0.0042332288
-0.049510325
-0.0050743787
-0.051696016
-0.0059642582
-0.054190188
-0.0068922778
-0.056665376
-0.0078698879
-0.059343963
-0.0088922645
-0.062088931
-0.0099669184
-0.064997725
-0.011092186
-0.068017777
-0.012273615
-0.07119182
-0.013510966
-0.07450402
-0.014808683
-0.077974352
-0.016168019
-0.081602435
-0.017592463
-0.085399992
-0.019084025
-0.08937298
-0.020645663
-0.093530774
-0.022279756
-0.097881844
-0.023988907
-0.10243587
-0.025776047
-0.10720224
-0.027643302
-0.11219229
-0.029592985
-0.11741664
-0.031627724
-0.12288717
-0.033749557
-0.1286161
-0.035960521
-0.13461692
-0.038262048
-0.14090384
-0.040656113
-0.14749107
-0.043143828
-0.15439453
-0.045726167
-0.16163112
-0.048403742
-0.16921778
-0.051176459
-0.17717382
-0.054044753
-0.18551806
-0.057007662
-0.19427189
-0.060063861
-0.2034569
-0.063212063
-0.21309621
-0.066449912
-0.22321435
-0.069774441
-0.23383703
-0.073182361
-0.24499099
-0.076669453
-0.25670519
-0.080230539
-0.26900948
-0.083860074
-0.28193571
-0.087551289
-0.29551674
-0.09129673
-0.30978787
-0.095087437
-0.32478605
-0.098913677
-0.34054992
-0.10276406
-0.35712038
-0.10662629
-0.37454031
-0.11048581
-0.39285502
-0.11432678
-0.41211186
-0.11813113
-0.43236104
-0.12187843
-0.45365547
-0.12554581
-0.47605022
-0.12910759
-0.49960404
-0.13253473
-0.52437881
-0.13579531
-0.550439
-0.13885213
-0.57785318
-0.14166407
-0.60669288
-0.14418582
-0.63703352
-0.14636475
-0.66895545
-0.148144
-0.70254223
-0.14945716
-0.73788252
-0.15023266
-0.77506956
-0.1503878
-0.8141968
-0.14983391
-0.85537243
-0.14845932
-0.89868159
-0.14617125
-0.94425568
-0.1427976
-0.99215461
-0.13828215
-1.0425808
-0.13232323
-1.0954649
-0.12501213
-1.1513193
-0.11570875
-1.2095057
-0.10489964
-1.2717023
-0.091208177
-1.3347507
-0.076057225
-1.404502
-0.056939028
-1.4706793
-0.036315435
-1.5497678
-1.6198988
-0.00052953975
-0.037175049
-0.0011783989
-0.041081129
-0.0018288812
-0.042177694
-0.002533332
-0.044606092
-0.0032556588
-0.046396802
-0.004029277
-0.048736708
-0.0048301691
-0.050895124
-0.0056808222
-0.053339536
-0.0065674333
-0.055778765
-0.0075041767
-0.058407221
-0.0084841159
-0.061108991
-0.0095159844
-0.063965857
-0.010597808
-0.066935953
-0.011734809
-0.07005482
-0.0129279
-0.073310929
-0.014180348
-0.076721905
-0.015494457
-0.080288325
-0.016872719
-0.08402173
-0.018318141
-0.087927558
-0.019833051
-0.092015864
-0.021420288
-0.096294606
-0.023082652
-0.1007735
-0.024821926
-0.10546297
-0.026641473
-0.11037274
-0.028543455
-0.11551466
-0.03052997
-0.12090065
-0.032603136
-0.12654294
-0.034764815
-0.13245524
-0.037016994
-0.13865166
-0.039361027
-0.14514703
-0.041797717
-0.15195784
-0.044328548
-0.15910029
-0.046953406
-0.16659292
-0.04967304
-0.17445419
-0.052486773
-0.18270433
-0.055394051
-0.19136461
-0.058393674
-0.20045728
-0.061483863
-0.21000603
-0.064662531
-0.22003569
-0.067927313
-0.23057225
-0.071274127
-0.24164418
-0.074699518
-0.2532798
-0.078198759
-0.26551024
-0.08176661
-0.27836786
-0.085396736
-0.29188662
-0.089082028
-0.30610258
-0.092814732
-0.32105335
-0.096585786
-0.33677887
-0.10038522
-0.35332094
-0.10420148
-0.37072405
-0.10802175
-0.38903475
-0.11183167
-0.40830194
-0.11561479
-0.42857792
-0.11935306
-0.4499172
-0.12302604
-0.47237725
-0.12661041
-0.49601967
-0.13008042
-0.52090879
-0.13340688
-0.54711255
-0.13655689
-0.57470317
-0.13949368
-0.60375609
-0.14217557
-0.63435164
-0.14455649
-0.66657452
-0.14658397
-0.70051475
-0.1481999
-0.73626659
-0.14933866
-0.77393079
-0.14992422
-0.81361124
-0.14988088
-0.85541577
-0.14910697
-0.89945549
-0.14750873
-0.94585392
-0.14495451
-0.99470883
-0.14135327
-1.0461821
-0.13649169
-1.1003265
-0.13035146
-1.1574595
-0.12252188
-1.2173353
-0.11322259
-1.2810016
-0.10147769
-1.3464956
-0.088217958
-1.4177617
-0.071575542
-1.4873217
-0.053291273
-1.5680521
-1.6422488
-0.00050054471
-0.036674504
-0.0011315372
-0.040450137
-0.0017497773
-0.041559454
-0.0024250085
-0.043930862
-0.0031145211
-0.045707289
-0.0038569919
-0.047994238
-0.0046247163
-0.0501274
-0.0054427265
-0.052521527
-0.0062957551
-0.054925737
-0.0071989113
-0.057504065
-0.0081450741
-0.060162829
-0.0091430055
-0.062967927
-0.010190709
-0.065888249
-0.011293889
-0.068951641
-0.012452833
-0.072151984
-0.013671643
-0.075503095
-0.01495198
-0.079007989
-0.016297256
-0.082676454
-0.017709714
-0.0865151
-0.019192469
-0.090533109
-0.020747853
-0.094739222
-0.022378449
-0.099142908
-0.024087245
-0.10375417
-0.025876542
-0.10858345
-0.027748499
-0.1136427
-0.029705683
-0.11894347
-0.031749804
-0.12449881
-0.03388307
-0.13032198
-0.036106856
-0.13642787
-0.038422671
-0.14283122
-0.040831465
-0.14954905
-0.043333954
-0.1565978
-0.045930832
-0.16399604
-0.048621696
-0.17176333
-0.051406265
-0.17991976
-0.054284101
-0.18848678
-0.057253789
-0.19748759
-0.060313666
-0.20694615
-0.063461706
-0.21688765
-0.066695213
-0.22733874
-0.070011266
-0.23832812
-0.073406014
-0.24988505
-0.0768752
-0.26204105
-0.080414051
-0.27482901
-0.084016987
-0.28828368
-0.087677776
-0.30244179
-0.091389399
-0.31734173
-0.095143926
-0.33302434
-0.098932363
-0.3495325
-0.10274463
-0.36691179
-0.1065698
-0.38520958
-0.11039452
-0.40447722
-0.11420508
-0.42476736
-0.11798537
-0.44613691
-0.12171681
-0.46864581
-0.12537953
-0.49235695
-0.12895092
-0.51733741
-0.1324046
-0.54365887
-0.13571187
-0.5713959
-0.13884016
-0.6006278
-0.14175268
-0.63143911
-0.1444082
-0.66391901
-0.14676068
-0.69816227
-0.14875773
-0.73426954
-0.15034145
-0.77234707
-0.1514462
-0.8125065
-0.15199823
-0.85486374
-0.15191292
-0.89954081
-0.15110331
-0.94666353
-0.14945756
-0.99635459
-0.14687496
-1.0487647
-0.14320018
-1.1040013
-0.1383592
-1.1623005
-0.13206702
-1.2236275
-0.12441702
-1.2886516
-0.11467646
-1.3562362
-0.10346745
-1.4289707
-0.089364345
-1.5014248
-0.073700759
-1.5837156
-1.6614171
-0.00047396295
-0.036200541
-0.0010887227
-0.039835378
-0.0016795262
-0.04096865
-0.0023311118
-0.043279277
-0.0029937691
-0.045044632
-0.0037116919
-0.047276316
-0.0044534257
-0.049385666
-0.0052465952
-0.051728358
-0.0060745427
-0.054097789
-0.0069528557
-0.056625753
-0.0078747898
-0.059240894
-0.0088491429
-0.061993574
-0.0098739893
-0.064863403
-0.010954649
-0.067870981
-0.012092104
-0.071014529
-0.013290415
-0.074304785
-0.014551381
-0.077747023
-0.01587842
-0.081349415
-0.017273825
-0.085119694
-0.018740461
-0.089066474
-0.020281376
-0.093198307
-0.021899025
-0.09752526
-0.023596154
-0.10205704
-0.025374791
-0.10680481
-0.027237936
-0.11177956
-0.029187339
-0.11699407
-0.031225233
-0.12246092
-0.033353017
-0.12819419
-0.035572697
-0.13420819
-0.037884831
-0.14051909
-0.040290977
-0.1471429
-0.042791386
-0.15409739
-0.045386431
-0.16140099
-0.048076066
-0.16907369
-0.050859878
-0.17713595
-0.05373668
-0.18560998
-0.056705675
-0.1945186
-0.059765356
-0.20388647
-0.062913416
-0.21373958
-0.066147421
-0.22410474
-0.069464917
-0.23501063
-0.072862315
-0.24648765
-0.076335918
-0.25856745
-0.079881691
-0.27128323
-0.083494618
-0.28467075
-0.087169605
-0.29876681
-0.090900321
-0.31361101
-0.094680025
-0.32924464
-0.098501273
-0.34571126
-0.10235559
-0.36305746
-0.10623296
-0.38133222
-0.11012317
-0.400587
-0.11401367
-0.42087686
-0.11789081
-0.44225977
-0.12173938
-0.46479724
-0.12554163
-0.4885547
-0.1292778
-0.51360124
-0.13292594
-0.54001072
-0.1364609
-0.56786094
-0.13985436
-0.59723435
-0.14307412
-0.62821934
-0.14608463
-0.6609085
-0.14884534
-0.69540156
-0.15131086
-0.73180402
-0.1534302
-0.77022773
-0.15514553
-0.81079117
-0.15639201
-0.85361726
-0.15709737
-0.89883545
-0.15718151
-0.94657939
-0.15654593
-0.99699016
-0.15510199
-1.0502086
-0.15271906
-1.1063842
-0.14930937
-1.1657102
-0.14466033
-1.2282765
-0.1387881
-1.2945238
-0.13116597
-1.3638583
-0.12216659
-1.4379701
-0.1106783
-1.5129131
-0.097741085
-1.5966529
-1.6773135
-0.00045406973
-0.035746473
-0.0010444154
-0.039245033
-0.0016153943
-0.040397672
-0.002251271
-0.042643401
-0.0028956118
-0.044400292
-0.0035975896
-0.046574339
-0.0043226753
-0.048660581
-0.0051004807
-0.050950553
-0.0059134846
-0.053284785
-0.0067780355
-0.055761203
-0.0076869473
-0.058331982
-0.0086494
-0.061031122
-0.0096639196
-0.063848883
-0.0107358
-0.066799101
-0.011866227
-0.069884102
-0.013058788
-0.073112224
-0.014316244
-0.076489566
-0.015641382
-0.080024278
-0.017037274
-0.083723802
-0.018506823
-0.087596926
-0.020052383
-0.091652747
-0.021677341
-0.095900302
-0.023383633
-0.10035075
-0.025174284
-0.10501416
-0.027051247
-0.10990259
-0.029016645
-0.11502867
-0.031072537
-0.12040503
-0.033220375
-0.12604636
-0.035461539
-0.13196703
-0.03779713
-0.1381835
-0.040227994
-0.14471204
-0.042754218
-0.15157117
-0.045376284
-0.15877893
-0.048093811
-0.16635617
-0.050906296
-0.17432346
-0.053812922
-0.18270335
-0.056812538
-0.19151898
-0.059903655
-0.20079535
-0.063084373
-0.21055887
-0.066352739
-0.22083637
-0.069706217
-0.23165715
-0.073141995
-0.24305188
-0.07665727
-0.25505217
-0.080248099
-0.26769241
-0.083910857
-0.281008
-0.08764116
-0.2950365
-0.091434237
-0.30981793
-0.095284834
-0.32539404
-0.099186297
-0.3418098
-0.10313216
-0.3591116
-0.10711477
-0.3773496
-0.11112514
-0.39657664
-0.11515356
-0.41684844
-0.11918865
-0.43822468
-0.1232176
-0.46076828
-0.12722622
-0.48454608
-0.13119814
-0.50962933
-0.13511453
-0.53609433
-0.13895471
-0.56402077
-0.14269411
-0.59349495
-0.14630657
-0.62460688
-0.14976084
-0.65745424
-0.15302296
-0.69213944
-0.15605399
-0.728773
-0.15881009
-0.76747163
-0.16124165
-0.8083596
-0.16329391
-0.851565
-0.16490335
-0.89722601
-0.16599628
-0.94548646
-0.16649732
-0.99648912
-0.16631568
-1.0503902
-0.16535238
-1.1073475
-0.16351119
-1.1675514
-0.16063701
-1.2311507
-0.15669798
-1.2984629
-0.15131086
-1.3692454
-0.14469697
-1.444584
-0.13595724
-1.5216528
-0.12595117
-1.6066589
-1.6898471
-0.00044064606
-0.035305827
-0.0010125566
-0.038673123
-0.0015702554
-0.039839974
-0.002197537
-0.04201612
-0.0028313224
-0.043766506
-0.0035254675
-0.045880195
-0.0042429636
-0.047943085
-0.0050147371
-0.050178781
-0.0058233373
-0.052476185
-0.0066849045
-0.054899636
-0.0075930614
-0.057423825
-0.0085565231
-0.060067661
-0.009574246
-0.06283116
-0.010651462
-0.065721886
-0.011790223
-0.06874534
-0.012993858
-0.07190859
-0.014265024
-0.075218399
-0.015607354
-0.078681948
-0.017023129
-0.082308028
-0.018515846
-0.086104209
-0.02008815
-0.090080444
-0.021742607
-0.094245845
-0.023482288
-0.098611068
-0.025309043
-0.10318741
-0.027225129
-0.10798651
-0.029232903
-0.1130209
-0.03133377
-0.11830416
-0.033529336
-0.12385079
-0.035820452
-0.12967591
-0.038208144
-0.1357958
-0.04069304
-0.14222714
-0.043275427
-0.14898878
-0.045955037
-0.15609932
-0.048731881
-0.16357932
-0.051605073
-0.17145027
-0.054573955
-0.17973447
-0.057637505
-0.18845543
-0.060793982
-0.19763888
-0.064042599
-0.20731025
-0.067381032
-0.21749794
-0.070807678
-0.2282305
-0.074320462
-0.23953909
-0.077916755
-0.25145588
-0.081594378
-0.26401478
-0.085350418
-0.27725196
-0.089181641
-0.29120528
-0.093084483
-0.30591509
-0.097055031
-0.32142349
-0.10108925
-0.33777558
-0.10518172
-0.35501913
-0.10932691
-0.37320441
-0.1135181
-0.39238545
-0.11774805
-0.41261849
-0.12200816
-0.43396457
-0.12628844
-0.456488
-0.13057783
-0.48025669
-0.13486304
-0.50534411
-0.13912977
-0.5318276
-0.14336063
-0.55978991
-0.14753694
-0.58931864
-0.15163599
-0.62050783
-0.15563329
-0.65345694
-0.15950009
-0.68827264
-0.16320461
-0.72506847
-0.16671057
-0.76396566
-0.16997703
-0.80509315
-0.17295543
-0.8485866
-0.17559302
-0.89458843
-0.17783218
-0.9432473
-0.17960371
-0.99471759
-0.18083272
-1.0491612
-0.18143328
-1.1067469
-0.18132152
-1.1676632
-0.18037391
-1.2320983
-0.17853775
-1.300299
-0.17553184
-1.3722513
-0.17148678
-1.448629
-0.16566214
-1.5274775
-0.15876526
-1.6135558
-1.698895
-0.00043224337
-0.034873584
-0.0010013819
-0.038103986
-0.0015524636
-0.039288892
-0.0021782825
-0.041390302
-0.0028097985
-0.043134991
-0.0035046569
-0.045185337
-0.0042243677
-0.047223374
-0.005000602
-0.049402547
-0.0058162091
-0.051660578
-0.0066870205
-0.054028826
-0.007607692
-0.056503154
-0.0085862075
-0.059089146
-0.0096228071
-0.06179456
-0.010722381
-0.064622313
-0.011886851
-0.06758087
-0.013120306
-0.070675135
-0.01442543
-0.073913275
-0.015805407
-0.077301972
-0.017263632
-0.080849802
-0.018802651
-0.08456519
-0.020425742
-0.088457352
-0.022135335
-0.092536254
-0.023933947
-0.096812456
-0.025824121
-0.10129723
-0.027807694
-0.10600293
-0.029886275
-0.11094232
-0.032061519
-0.11612892
-0.034334482
-0.12157783
-0.036706314
-0.12730408
-0.039177426
-0.13332469
-0.041748177
-0.13965639
-0.044418602
-0.14631836
-0.047188637
-0.15332928
-0.050057616
-0.16071034
-0.053025335
-0.16848255
-0.056091051
-0.17666875
-0.059253298
-0.18529318
-0.062511813
-0.19438036
-0.065865106
-0.20395696
-0.069312292
-0.21405075
-0.072851728
-0.22469107
-0.076482564
-0.23590826
-0.08020342
-0.24773502
-0.084012762
-0.26020544
-0.087908906
-0.27335581
-0.091890016
-0.28722417
-0.095954634
-0.30185047
-0.10010032
-0.31727781
-0.10432416
-0.33355174
-0.1086236
-0.35071968
-0.11299495
-0.36883306
-0.11743415
-0.38794625
-0.12193632
-0.40811633
-0.12649552
-0.42940537
-0.13110547
-0.45187805
-0.13575744
-0.47560473
-0.14044281
-0.50065874
-0.14515044
-0.52711997
-0.149868
-0.55507235
-0.15458049
-0.58460616
-0.15927161
-0.6158167
-0.16392157
-0.64880698
-0.16850841
-0.6836858
-0.17300685
-0.72057004
-0.17738796
-0.75958454
-0.18161915
-0.80086196
-0.18566212
-0.84454363
-0.18947498
-0.89077557
-0.19300663
-0.93971565
-0.19620403
-0.99152019
-0.19900227
-1.046363
-0.20133122
-1.104418
-0.20312156
-1.1658728
-0.20427792
-1.2309419
-0.20473777
-1.2998392
-0.20429851
-1.3726906
-0.20302296
-1.4499046
-0.20030478
-1.5301956
-0.19672708
-1.6171335
-1.7042749
-0.00042987007
-0.034443714
-0.0010043425
-0.037529514
-0.0015573412
-0.038735894
-0.0021906523
-0.040756992
-0.0028300137
-0.042495629
-0.0035360996
-0.044479252
-0.004269877
-0.046489597
-0.0050627235
-0.048609701
-0.0058990259
-0.050824275
-0.0067935436
-0.053134308
-0.0077423393
-0.055554358
-0.0087529095
-0.058078576
-0.0098261562
-0.060721313
-0.010966794
-0.063481676
-0.01217744
-0.066370225
-0.013462092
-0.069390483
-0.014823615
-0.072551752
-0.016265539
-0.075860048
-0.017790738
-0.079324603
-0.019402513
-0.082953416
-0.021103567
-0.086756297
-0.022896491
-0.09074333
-0.024783481
-0.094925466
-0.02676658
-0.099314135
-0.02884793
-0.10392158
-0.031028713
-0.10876153
-0.033310048
-0.11384758
-0.035693002
-0.11919487
-0.038178029
-0.12481905
-0.040765756
-0.13073697
-0.043455734
-0.13696642
-0.046248378
-0.14352572
-0.049142954
-0.15043471
-0.052139433
-0.15771386
-0.055237321
-0.16538466
-0.058435613
-0.17347046
-0.061734502
-0.18199429
-0.065133014
-0.19098185
-0.068630653
-0.20045932
-0.072227205
-0.2104542
-0.075922613
-0.22099566
-0.079716191
-0.23211468
-0.083607784
-0.24384343
-0.087597453
-0.25621577
-0.091685323
-0.26926794
-0.095870902
-0.28303859
-0.10015409
-0.29756729
-0.10453449
-0.3128974
-0.10901177
-0.32907446
-0.11358493
-0.34614652
-0.11825298
-0.36416501
-0.12301446
-0.38318477
-0.12786703
-0.40326376
-0.13280815
-0.42446425
-0.13783389
-0.44685231
-0.14294044
-0.47049818
-0.14812169
-0.49547748
-0.15337137
-0.52187029
-0.15868121
-0.54976251
-0.1640416
-0.57924576
-0.16944081
-0.61041749
-0.17486566
-0.64338213
-0.18030049
-0.67825097
-0.18572663
-0.71514389
-0.19112347
-0.75418771
-0.19646618
-0.79551926
-0.20172746
-0.83928234
-0.20687175
-0.88563129
-0.21186498
-0.93472242
-0.21665962
-0.98672555
-0.22120812
-1.0418145
-0.22545664
-1.1001695
-0.22934242
-1.161987
-0.23279944
-1.2274849
-0.23576983
-1.2968688
-0.23810584
-1.3703546
-0.23982557
-1.4481849
-0.24043762
-1.5295836
-0.24040564
-1.6171655
-1.7057563
-0.00043425291
-0.034009462
-0.0010229609
-0.036940807
-0.0015874443
-0.038171411
-0.00223847
-0.040105967
-0.002897227
-0.041836873
-0.0036264881
-0.043749992
-0.0043877581
-0.045728327
-0.005211474
-0.047785986
-0.0060839498
-0.049951799
-0.0070188418
-0.052199417
-0.0080136494
-0.05455955
-0.0090753416
-0.057016885
-0.010205751
-0.059590904
-0.011409382
-0.062278045
-0.012689572
-0.065090035
-0.014049773
-0.068030282
-0.015493611
-0.071107914
-0.017024284
-0.074329375
-0.018645159
-0.077703728
-0.020358908
-0.081239668
-0.022168043
-0.084947162
-0.024075213
-0.088836161
-0.026082437
-0.092918241
-0.028191538
-0.097205034
-0.030403536
-0.10170958
-0.032719949
-0.10644512
-0.035141545
-0.11142599
-0.037668761
-0.11666766
-0.040301517
-0.1221863
-0.04304029
-0.12799819
-0.045884817
-0.13412189
-0.048834859
-0.14057567
-0.051890027
-0.14737954
-0.055050404
-0.15455349
-0.058315225
-0.16211984
-0.061684951
-0.17010074
-0.065159148
-0.1785201
-0.068738035
-0.18740296
-0.072422508
-0.19677484
-0.076212685
-0.20666402
-0.08010925
-0.21709909
-0.084113802
-0.22811013
-0.088227196
-0.23973004
-0.092451045
-0.25199192
-0.096786546
-0.26493244
-0.10123598
-0.27858916
-0.10580052
-0.29300275
-0.11048239
-0.30821553
-0.11528304
-0.32427382
-0.12020407
-0.34122549
-0.12524712
-0.35912196
-0.13041312
-0.37801876
-0.13570318
-0.39797371
-0.14111731
-0.41905011
-0.14665602
-0.4413136
-0.15231802
-0.46483618
-0.15810197
-0.48969353
-0.16400562
-0.51596664
-0.17002544
-0.54374269
-0.17615674
-0.57311446
-0.18239407
-0.60418016
-0.18872966
-0.63704654
-0.19515415
-0.67182648
-0.2016571
-0.70864094
-0.20822492
-0.74761988
-0.21484217
-0.78890202
-0.22148887
-0.83263563
-0.22814554
-0.87897462
-0.23478194
-0.92808602
-0.24136994
-0.98013754
-0.24787246
-1.035312
-0.25424769
-1.0937942
-0.26044933
-1.1557854
-0.26643337
-1.2215009
-0.27214599
-1.2911562
-0.27749873
-1.3650019
-0.2824695
-1.4432141
-0.2866663
-1.5253868
-0.29045413
-1.6133777
-1.7030621
-0.00044690109
-0.033562562
-0.0010600987
-0.03632761
-0.0016472424
-0.037584267
-0.0023274035
-0.039425806
-0.0030186164
-0.04114566
-0.0037846568
-0.042983952
-0.0045886841
-0.044924299
-0.0054595125
-0.046915158
-0.0063859563
-0.049025355
-0.0073802519
-0.051205122
-0.0084417216
-0.05349808
-0.009576591
-0.055882016
-0.010787691
-0.058379804
-0.012079458
-0.060986278
-0.013455302
-0.063714191
-0.014919156
-0.066566429
-0.016474561
-0.069552509
-0.018124595
-0.072679342
-0.019872329
-0.075955994
-0.021720413
-0.079391585
-0.023671482
-0.082996092
-0.025727173
-0.08678047
-0.027889313
-0.090756102
-0.030158976
-0.094935371
-0.032537439
-0.09933112
-0.035025214
-0.10395735
-0.037622451
-0.10882875
-0.040329285
-0.11396083
-0.043145901
-0.11936968
-0.046071622
-0.12507247
-0.049106765
-0.13108675
-0.052250599
-0.13743184
-0.055503526
-0.14412661
-0.058865188
-0.15119183
-0.062336167
-0.15864886
-0.065916558
-0.16652034
-0.069607653
-0.174829
-0.073410332
-0.18360028
-0.077326078
-0.1928591
-0.08135683
-0.20263327
-0.085504984
-0.21295094
-0.089772572
-0.22384254
-0.094163246
-0.23533936
-0.098679442
-0.24747573
-0.10332519
-0.26028669
-0.10810379
-0.27381057
-0.11301957
-0.28808697
-0.1180761
-0.303159
-0.12327779
-0.31907213
-0.12862892
-0.33587436
-0.13413355
-0.35361732
-0.13979575
-0.37235656
-0.14561952
-0.39214993
-0.15160884
-0.4130608
-0.15776674
-0.4351557
-0.16409671
-0.45850621
-0.17060163
-0.48318861
-0.17728313
-0.50928514
-0.18414329
-0.53688253
-0.19118285
-0.5660749
-0.19840108
-0.59696193
-0.20579755
-0.62965007
-0.21336988
-0.66425416
-0.22111428
-0.70089654
-0.22902576
-0.7397084
-0.23709788
-0.78082989
-0.2453222
-0.82441132
-0.2536859
-0.87061093
-0.2621753
-0.91959661
-0.27076876
-0.97154408
-0.2794466
-1.0266341
-0.2881822
-1.0850586
-0.29694614
-1.1470215
-0.30570843
-1.2127386
-0.31442997
-1.2824346
-0.32305915
-1.3563727
-0.33156913
-1.4347041
-0.33964125
-1.5173147
-0.34755471
-1.6054642
-1.6958687
-0.00046754345
-0.033095018
-0.0011156177
-0.035679536
-0.0017369686
-0.036962916
-0.0024587898
-0.038703986
-0.0031970154
-0.040407434
-0.004015164
-0.042165804
-0.0048793601
-0.044060103
-0.0058159448
-0.045978574
-0.0068168162
-0.048024484
-0.0078926025
-0.050129336
-0.0090444402
-0.052346242
-0.010278046
-0.05464841
-0.011596992
-0.057060857
-0.013005609
-0.059577662
-0.014507782
-0.062212017
-0.016107072
-0.06496714
-0.017807043
-0.067852538
-0.019610589
-0.070875796
-0.021520443
-0.07404614
-0.023538919
-0.077373109
-0.025667855
-0.080867156
-0.027908706
-0.084539619
-0.030262731
-0.088402077
-0.032730387
-0.092467716
-0.035311992
-0.096749515
-0.038007627
-0.10126171
-0.040817193
-0.10601918
-0.043740352
-0.11103767
-0.046776889
-0.11633314
-0.049926504
-0.12192286
-0.053188717
-0.12782453
-0.056563918
-0.13405664
-0.060052307
-0.14063822
-0.063654283
-0.14758985
-0.06737114
-0.15493201
-0.0712043
-0.16268718
-0.075155664
-0.17087764
-0.079227805
-0.17952814
-0.083423144
-0.18866376
-0.087745598
-0.19831082
-0.092198768
-0.20849777
-0.096787404
-0.2192539
-0.10151557
-0.2306112
-0.1063891
-0.2426022
-0.11141327
-0.25526252
-0.11659409
-0.26862975
-0.12193777
-0.28274328
-0.12745073
-0.29764604
-0.1331399
-0.31338296
-0.13901216
-0.3300021
-0.1450744
-0.34755508
-0.15133428
-0.36609668
-0.15779874
-0.38568548
-0.1644753
-0.40638423
-0.17137127
-0.42825973
-0.17849386
-0.45138363
-0.18585017
-0.4758323
-0.19344743
-0.50168789
-0.20129175
-0.52903821
-0.20939018
-0.55797648
-0.21774843
-0.58860367
-0.22637185
-0.62102664
-0.23526556
-0.65536045
-0.24443379
-0.69172831
-0.25388015
-0.73026204
-0.26360681
-0.77110323
-0.27361545
-0.81440268
-0.28390586
-0.86032052
-0.29447415
-0.90902832
-0.30531512
-0.96070311
-0.31641945
-1.0155298
-0.32777728
-1.0737008
-0.33937257
-1.1354262
-0.35119129
-1.2009198
-0.36321509
-1.2704108
-0.37542224
-1.3441655
-0.38778758
-1.4223388
-0.4000693
-1.5050329
-0.41246261
-1.5930709
-1.6838237
-0.00049848881
-0.03259653
-0.0011942253
-0.034983801
-0.0018642222
-0.03629292
-0.0026426064
-0.037925602
-0.0034451683
-0.039604872
-0.0043337222
-0.04127725
-0.0052785415
-0.043115284
-0.0063030525
-0.044954064
-0.0074023766
-0.04692516
-0.0085856398
-0.048946073
-0.0098557219
-0.05107616
-0.011217682
-0.053286451
-0.012675959
-0.055602581
-0.014234529
-0.058019092
-0.01589742
-0.060549125
-0.017668044
-0.063196517
-0.019549289
-0.065971292
-0.02154417
-0.068880915
-0.023654599
-0.071935712
-0.025882268
-0.07514544
-0.028228119
-0.078521304
-0.030692985
-0.082074754
-0.033277158
-0.085817904
-0.03598061
-0.089764264
-0.038802908
-0.093927217
-0.041743612
-0.098321008
-0.044802075
-0.10296072
-0.047977991
-0.10786175
-0.051270558
-0.11304057
-0.054679837
-0.11851358
-0.058206208
-0.12429816
-0.061849959
-0.13041289
-0.065612159
-0.13687602
-0.069494373
-0.14370764
-0.073498866
-0.15092751
-0.077628635
-0.15855742
-0.08188643
-0.16661984
-0.086276873
-0.1751377
-0.09080433
-0.1841363
-0.095473872
-0.19364128
-0.10029158
-0.20368006
-0.10526353
-0.21428196
-0.11039675
-0.22547797
-0.11569872
-0.23730023
-0.12117713
-0.2497841
-0.12684058
-0.2629663
-0.1326975
-0.27688637
-0.13875714
-0.2915864
-0.14502924
-0.30711086
-0.15152334
-0.323508
-0.15824991
-0.34082851
-0.16521938
-0.35912722
-0.17244258
-0.37846228
-0.17993061
-0.39889621
-0.18769498
-0.42049535
-0.19574731
-0.4433313
-0.20409925
-0.46748035
-0.21276293
-0.49302421
-0.22175055
-0.52005059
-0.23107423
-0.54865281
-0.24074667
-0.57893123
-0.25078001
-0.6109933
-0.26118685
-0.64495361
-0.27197929
-0.68093587
-0.28316999
-0.71907135
-0.29477094
-0.75950227
-0.30679425
-0.80237937
-0.31925037
-0.8478644
-0.3321482
-0.8961305
-0.34549989
-0.94735142
-0.35930647
-1.0017232
-0.37356959
-1.0594377
-0.38829502
-1.1207007
-0.40348734
-1.1857275
-0.41914067
-1.2547575
-0.43525947
-1.3280467
-0.4518236
-1.4057747
-0.46868349
-1.4881731
-0.48595859
-1.5757958
-1.6665296
-0.00054038499
-0.032056145
-0.0012980135
-0.034226172
-0.0020328711
-0.035558062
-0.0028848992
-0.037073574
-0.0037717221
-0.038718049
-0.0047518484
-0.040297124
-0.0058011511
-0.042065981
-0.0069394328
-0.043815782
-0.008165288
-0.045699304
-0.0094862494
-0.047625112
-0.010906823
-0.049655586
-0.01243152
-0.051761754
-0.014065181
-0.05396892
-0.015811452
-0.056272821
-0.017674135
-0.058686442
-0.019656025
-0.061214627
-0.02175977
-0.063867548
-0.023986918
-0.066653767
-0.026338814
-0.069583815
-0.028816206
-0.072668049
-0.031419163
-0.075918346
-0.034147627
-0.07934629
-0.037000582
-0.082964949
-0.039977555
-0.086787291
-0.043077338
-0.090827434
-0.046299185
-0.095099161
-0.049642006
-0.099617898
-0.053105416
-0.10439834
-0.056689533
-0.10945646
-0.060394442
-0.11480867
-0.064221045
-0.12047156
-0.06817083
-0.1264631
-0.072246195
-0.13280066
-0.076450193
-0.13950364
-0.080786196
-0.14659151
-0.085258536
-0.15408508
-0.089872977
-0.1620054
-0.094634763
-0.17037592
-0.099550997
-0.17922007
-0.10462868
-0.18856359
-0.10987579
-0.19843295
-0.11530096
-0.20885679
-0.12091354
-0.21986539
-0.12672299
-0.23149078
-0.13273978
-0.24376732
-0.1389747
-0.25673138
-0.14543921
-0.27042186
-0.15214556
-0.28488005
-0.15910576
-0.30015065
-0.16633328
-0.31628048
-0.17384117
-0.33332062
-0.18164391
-0.35132449
-0.18975603
-0.37035016
-0.19819251
-0.39045972
-0.20696891
-0.41171896
-0.21610169
-0.43419852
-0.22560758
-0.45797445
-0.23550392
-0.48312787
-0.24580882
-0.50974569
-0.2565405
-0.53792113
-0.26771846
-0.56775327
-0.27936213
-0.59934963
-0.29149195
-0.63282379
-0.30412889
-0.66829893
-0.31729411
-0.70590613
-0.33101059
-0.74578578
-0.34530046
-0.7880895
-0.36018672
-0.83297813
-0.37569333
-0.88062389
-0.39184009
-0.93120466
-0.40864746
-0.98491583
-0.42613746
-1.0419477
-0.44432503
-1.1025132
-0.4632307
-1.1668219
-0.48287267
-1.2351155
-0.50327828
-1.3076411
-0.52443787
-1.3846151
-0.54627283
-1.4663381
-0.56886186
-1.5532068
-1.6435276
-0.000593943
-0.031462202
-0.0014290456
-0.03339107
-0.0022476412
-0.034739467
-0.003193201
-0.036128015
-0.0041880071
-0.037723243
-0.0052852712
-0.039199861
-0.0064676733
-0.040883579
-0.0077501317
-0.042533324
-0.0091355935
-0.044313842
-0.01062983
-0.046130876
-0.012238707
-0.04804671
-0.013965991
-0.05003447
-0.015816458
-0.052118453
-0.017793114
-0.054296165
-0.019899035
-0.056580521
-0.022136128
-0.058977535
-0.02450581
-0.061497865
-0.027008646
-0.064150932
-0.029644717
-0.066947743
-0.032413279
-0.069899488
-0.035313531
-0.073018094
-0.038343738
-0.076316084
-0.041502754
-0.079805932
-0.044788774
-0.083501272
-0.048200715
-0.087415492
-0.05173714
-0.091562737
-0.055397762
-0.095957276
-0.059182476
-0.10061363
-0.063091468
-0.10554747
-0.067126654
-0.11077348
-0.071289581
-0.11630863
-0.075583926
-0.12216876
-0.080013016
-0.12837157
-0.084581851
-0.1349348
-0.089295825
-0.14187754
-0.094161801
-0.1492191