/*--------------------------------*- C++ -*----------------------------------*\
  =========                 |
  \\      /  F ield         | OpenFOAM: The Open Source CFD Toolbox
   \\    /   O peration     | Website:  https://openfoam.org
    \\  /    A nd           | Version:  6
     \\/     M anipulation  |
\*---------------------------------------------------------------------------*/
FoamFile
{
    version     2.0;
    format      ascii;
    class       volScalarField;
    location    "1000";
    object      rho;
}
// * * * * * * * * * * * * * * * * * * * * * * * * * * * * * * * * * * * * * //

dimensions      [1 -3 0 0 0 0 0];

internalField   nonuniform List<scalar> 
16000
(
1.1570005
1.1621259
1.1605828
1.1618503
1.1614406
1.1621463
1.162127
1.1626262
1.1627863
1.1631989
1.1634551
1.1638336
1.1641456
1.1645164
1.164863
1.1652384
1.1656081
1.165993
1.1663791
1.166774
1.1671719
1.167575
1.1679807
1.168389
1.1687983
1.1692078
1.1696163
1.1700225
1.1704252
1.1708231
1.171215
1.1715994
1.1719752
1.1723408
1.1726952
1.1730371
1.1733653
1.1736788
1.1739764
1.1742574
1.174521
1.1747664
1.1749931
1.1752007
1.1753888
1.1755572
1.1757059
1.175835
1.1759444
1.1760345
1.1761055
1.1761578
1.1761919
1.1762081
1.1762071
1.1761894
1.1761556
1.1761062
1.1760418
1.175963
1.1758702
1.1757642
1.1756448
1.1755139
1.1753684
1.1752147
1.1750403
1.174868
1.1746543
1.1744776
1.1741929
1.1740579
1.173619
1.1736753
1.1728036
1.1734105
1.1714259
1.1735617
1.1692407
1.1739971
1.1575187
1.1626524
1.1610423
1.1623735
1.1619473
1.1627007
1.1626818
1.1632162
1.1633877
1.1638284
1.1641024
1.1645054
1.1648382
1.1652319
1.1656002
1.1659976
1.1663888
1.1667946
1.1672011
1.1676155
1.1680321
1.1684527
1.1688746
1.1692976
1.16972
1.1701409
1.1705586
1.1709721
1.1713797
1.1717802
1.172172
1.1725538
1.1729242
1.1732819
1.1736256
1.173954
1.1742661
1.1745609
1.1748375
1.1750952
1.1753333
1.1755514
1.1757492
1.1759265
1.1760832
1.1762194
1.1763352
1.1764311
1.1765073
1.1765644
1.1766029
1.1766234
1.1766266
1.1766129
1.1765832
1.1765382
1.1764785
1.1764047
1.1763175
1.1762174
1.176105
1.1759808
1.1758451
1.1756986
1.1755405
1.1753728
1.1751911
1.1750031
1.174792
1.1745887
1.1743296
1.1741355
1.1737686
1.1736902
1.1730196
1.1733423
1.1717371
1.1733934
1.1695287
1.1739205
1.1582025
1.1633363
1.1616889
1.1630824
1.1626483
1.1634437
1.1634335
1.1639994
1.1641882
1.1646551
1.1649508
1.1653775
1.1657334
1.1661497
1.1665409
1.1669601
1.1673731
1.1677995
1.168226
1.168659
1.1690931
1.1695297
1.169966
1.1704015
1.1708345
1.1712636
1.1716873
1.1721041
1.1725124
1.1729108
1.1732976
1.1736714
1.1740309
1.1743746
1.1747013
1.1750098
1.1752993
1.1755689
1.1758178
1.1760455
1.1762516
1.176436
1.1765985
1.1767394
1.1768587
1.176957
1.1770347
1.1770923
1.1771306
1.1771502
1.1771521
1.1771368
1.1771054
1.1770586
1.1769971
1.1769218
1.1768335
1.1767328
1.1766205
1.176497
1.1763628
1.1762186
1.1760645
1.1759011
1.175728
1.1755459
1.1753529
1.1751515
1.1749346
1.1747144
1.1744626
1.1742337
1.1739083
1.1737352
1.1731942
1.1733244
1.17199
1.1732551
1.1697812
1.1737916
1.1590736
1.1641932
1.1625305
1.1639879
1.1635484
1.164389
1.1643899
1.1649902
1.1651994
1.1656951
1.1660153
1.1664683
1.1668498
1.167291
1.1677072
1.1681501
1.1685863
1.1690344
1.1694817
1.1699337
1.1703853
1.1708372
1.1712868
1.1717332
1.1721744
1.172609
1.1730352
1.1734514
1.1738558
1.1742468
1.1746228
1.1749824
1.175324
1.1756465
1.1759486
1.1762294
1.176488
1.1767238
1.1769364
1.1771255
1.177291
1.1774331
1.177552
1.1776481
1.1777221
1.1777748
1.1778068
1.1778191
1.1778127
1.1777885
1.1777476
1.1776911
1.1776198
1.1775349
1.1774372
1.1773276
1.1772069
1.1770759
1.1769354
1.1767857
1.1766275
1.1764611
1.1762869
1.1761052
1.1759158
1.1757188
1.1755132
1.1752995
1.1750745
1.174842
1.17459
1.1743409
1.1740375
1.1738091
1.1733453
1.1733406
1.1722213
1.1731743
1.1700479
1.1738062
1.1601286
1.1652154
1.1635661
1.1650906
1.1646514
1.1655397
1.1655574
1.1661942
1.1664285
1.166955
1.1673036
1.1677846
1.1681946
1.1686624
1.1691054
1.1695729
1.1700333
1.1705034
1.1709714
1.1714418
1.1719097
1.1723752
1.1728358
1.1732901
1.173736
1.1741718
1.1745956
1.1750056
1.1753999
1.175777
1.176135
1.1764726
1.1767884
1.1770812
1.17735
1.1775941
1.1778129
1.178006
1.1781733
1.178315
1.1784313
1.1785227
1.1785899
1.1786338
1.1786553
1.1786555
1.1786355
1.1785966
1.1785401
1.1784671
1.1783791
1.178277
1.1781623
1.1780359
1.1778989
1.1777522
1.1775967
1.1774333
1.1772625
1.1770849
1.176901
1.1767112
1.1765156
1.1763145
1.1761078
1.1758953
1.1756763
1.1754503
1.1752156
1.1749728
1.1747164
1.1744541
1.17416
1.1738949
1.1734858
1.173369
1.1724312
1.1731365
1.1703011
1.1738309
1.1613969
1.166451
1.164827
1.1664195
1.1659842
1.166921
1.1669591
1.1676332
1.1678961
1.1684545
1.1688344
1.1693449
1.1697854
1.1702809
1.170752
1.1712449
1.1717299
1.1722221
1.1727101
1.1731977
1.1736801
1.1741569
1.1746252
1.1750835
1.1755294
1.1759611
1.1763764
1.1767734
1.1771502
1.1775051
1.1778365
1.1781429
1.1784233
1.1786765
1.178902
1.1790991
1.1792679
1.1794081
1.1795203
1.1796049
1.1796626
1.1796945
1.1797017
1.1796853
1.1796468
1.1795877
1.1795095
1.1794136
1.1793017
1.1791753
1.1790357
1.1788844
1.1787227
1.1785518
1.1783729
1.1781868
1.1779944
1.1777967
1.1775942
1.1773874
1.1771768
1.1769625
1.1767448
1.1765237
1.1762992
1.1760709
1.1758382
1.1756001
1.1753555
1.1751036
1.1748416
1.1745707
1.1742802
1.1739929
1.1736217
1.1734164
1.1726325
1.1731308
1.1705608
1.1738905
1.1628822
1.1679466
1.1663154
1.1679779
1.1675511
1.1685377
1.1686013
1.1693142
1.1696102
1.1702022
1.170617
1.1711587
1.1716324
1.1721571
1.1726578
1.1731768
1.1736867
1.1742003
1.1747072
1.1752101
1.1757042
1.1761885
1.1766601
1.177117
1.1775567
1.1779771
1.178376
1.1787513
1.1791011
1.1794238
1.1797179
1.1799823
1.1802159
1.1804182
1.1805888
1.1807278
1.1808352
1.1809118
1.1809583
1.1809759
1.1809657
1.1809292
1.1808681
1.180784
1.1806788
1.1805542
1.1804122
1.1802545
1.1800829
1.1798992
1.1797049
1.1795016
1.1792906
1.1790733
1.1788506
1.1786238
1.1783935
1.1781605
1.1779256
1.1776889
1.177451
1.177212
1.1769719
1.1767308
1.1764884
1.1762444
1.1759979
1.1757482
1.1754938
1.1752337
1.1749657
1.1746887
1.1743986
1.1740987
1.1737565
1.1734893
1.1728296
1.1731431
1.1708241
1.1739867
1.1645772
1.1696718
1.1680318
1.1697682
1.1693568
1.1703964
1.1704923
1.1712468
1.1715817
1.1722102
1.1726642
1.1732398
1.1737494
1.1743051
1.1748368
1.1753825
1.1759169
1.1764508
1.1769746
1.1774896
1.1779912
1.178478
1.1789466
1.1793948
1.1798201
1.1802199
1.1805921
1.1809348
1.181246
1.1815243
1.1817685
1.1819779
1.1821518
1.1822901
1.1823931
1.1824612
1.1824954
1.1824967
1.1824668
1.1824071
1.1823195
1.1822061
1.182069
1.1819103
1.1817321
1.1815367
1.1813263
1.1811028
1.1808682
1.1806245
1.1803732
1.180116
1.1798543
1.1795894
1.1793223
1.1790541
1.1787855
1.1785171
1.1782496
1.1779832
1.1777182
1.1774546
1.1771925
1.1769316
1.1766718
1.1764125
1.1761529
1.175892
1.1756285
1.175361
1.1750876
1.1748066
1.1745158
1.1742101
1.1738866
1.1735765
1.1730263
1.1731744
1.1711068
1.174111
1.1664937
1.1716308
1.1699894
1.1718047
1.1714161
1.1725122
1.1726479
1.1734471
1.1738273
1.1744952
1.174993
1.175605
1.1761533
1.1767414
1.1773048
1.1778767
1.1784344
1.1789861
1.179523
1.1800453
1.1805484
1.1810301
1.1814871
1.1819168
1.1823164
1.1826837
1.1830164
1.1833126
1.1835709
1.1837902
1.1839696
1.184109
1.1842083
1.1842682
1.1842895
1.1842734
1.1842217
1.1841361
1.1840188
1.1838721
1.1836984
1.1835002
1.1832802
1.1830409
1.1827849
1.1825146
1.1822323
1.1819403
1.1816407
1.1813354
1.1810261
1.1807144
1.1804017
1.1800892
1.1797779
1.1794687
1.1791623
1.1788592
1.1785599
1.1782645
1.1779732
1.1776859
1.1774025
1.1771227
1.1768463
1.1765726
1.1763007
1.1760296
1.1757579
1.1754841
1.1752062
1.1749228
1.1746313
1.1743253
1.1740142
1.1736778
1.173221
1.173224
1.1714101
1.1742448
1.1686525
1.1738409
1.1722049
1.1741047
1.1737473
1.1749037
1.1750875
1.1759348
1.1763667
1.1770773
1.1776232
1.1782739
1.178863
1.1794842
1.180079
1.1806756
1.1812534
1.1818186
1.1823627
1.1828848
1.1833803
1.1838465
1.18428
1.1846779
1.1850377
1.185357
1.1856339
1.1858669
1.1860551
1.1861979
1.1862953
1.1863477
1.1863561
1.1863218
1.1862467
1.1861327
1.1859824
1.1857985
1.1855836
1.1853408
1.1850732
1.1847837
1.1844754
1.1841511
1.1838136
1.1834657
1.1831098
1.1827481
1.1823828
1.1820158
1.1816488
1.1812832
1.1809204
1.1805614
1.1802072
1.1798583
1.1795155
1.1791791
1.1788494
1.1785265
1.1782103
1.1779007
1.1775974
1.1773001
1.1770083
1.1767214
1.1764384
1.1761583
1.1758797
1.1756008
1.1753199
1.1750355
1.1747442
1.1744419
1.1741389
1.1737906
1.1734122
1.1732917
1.1717292
1.1743822
1.1710911
1.176321
1.1746971
1.1766875
1.1763705
1.1775913
1.1778323
1.1787313
1.1792219
1.1799786
1.1805766
1.1812682
1.1818991
1.1825531
1.1831772
1.1837949
1.1843875
1.1849588
1.1855008
1.1860118
1.1864869
1.1869232
1.1873171
1.1876659
1.1879673
1.1882192
1.1884204
1.18857
1.1886678
1.1887143
1.1887102
1.1886572
1.1885571
1.1884125
1.188226
1.1880007
1.1877399
1.1874471
1.1871258
1.1867796
1.186412
1.1860264
1.1856261
1.1852143
1.1847938
1.1843675
1.1839378
1.183507
1.183077
1.1826498
1.1822267
1.1818092
1.1813983
1.180995
1.1806
1.1802139
1.1798369
1.1794694
1.1791115
1.1787632
1.1784241
1.1780941
1.1777728
1.1774597
1.1771542
1.1768557
1.1765632
1.1762756
1.1759915
1.1757091
1.1754266
1.1751427
1.1748532
1.1745574
1.1742601
1.1739116
1.173596
1.1733736
1.1720504
1.1745064
1.173807
1.1790835
1.1774814
1.1795712
1.1793069
1.1805975
1.1809068
1.1818621
1.1824189
1.183225
1.1838788
1.1846122
1.1852846
1.1859688
1.1866176
1.1872495
1.1878476
1.1884137
1.18894
1.189424
1.1898609
1.1902475
1.1905807
1.190858
1.1910776
1.1912385
1.19134
1.1913826
1.1913671
1.191295
1.1911688
1.1909909
1.1907648
1.1904938
1.190182
1.1898332
1.1894517
1.1890416
1.1886072
1.1881523
1.187681
1.1871969
1.1867035
1.1862039
1.185701
1.1851977
1.1846961
1.1841984
1.1837065
1.1832218
1.1827458
1.1822795
1.1818239
1.1813795
1.180947
1.1805266
1.1801186
1.179723
1.1793397
1.1789685
1.1786092
1.1782612
1.1779241
1.1775973
1.1772802
1.176972
1.1766719
1.1763785
1.1760906
1.1758063
1.1755241
1.1752422
1.1749566
1.1746693
1.1743767
1.1740378
1.1737704
1.1734643
1.1723735
1.1746301
1.1768246
1.1821613
1.1805912
1.1827889
1.1825907
1.1839557
1.1843446
1.1853602
1.1859896
1.1868477
1.1875587
1.1883329
1.1890432
1.1897516
1.1904162
1.1910507
1.1916398
1.1921834
1.1926741
1.1931089
1.1934831
1.1937942
1.1940393
1.1942171
1.1943267
1.1943683
1.1943427
1.1942517
1.1940979
1.1938842
1.1936146
1.1932931
1.1929242
1.1925128
1.1920636
1.1915818
1.1910721
1.1905393
1.1899879
1.1894224
1.1888467
1.1882645
1.1876794
1.1870943
1.1865121
1.1859351
1.1853656
1.1848052
1.1842556
1.183718
1.1831935
1.1826828
1.1821867
1.1817055
1.1812395
1.1807888
1.1803534
1.1799331
1.1795278
1.179137
1.1787603
1.1783971
1.1780469
1.1777089
1.1773825
1.1770669
1.1767611
1.1764639
1.1761741
1.1758899
1.1756098
1.1753315
1.1750521
1.1747748
1.1744877
1.1741671
1.1739377
1.1735639
1.1726906
1.1747484
1.1801722
1.1855837
1.1840581
1.1863735
1.1862573
1.1877015
1.188182
1.1892614
1.1899685
1.1908797
1.1916467
1.192457
1.1931973
1.1939185
1.1945837
1.1952023
1.1957603
1.1962563
1.1966835
1.1970387
1.1973184
1.1975205
1.1976438
1.1976882
1.1976547
1.197545
1.1973622
1.1971098
1.1967922
1.1964144
1.1959817
1.1954997
1.1949744
1.1944115
1.1938169
1.1931962
1.1925546
1.1918974
1.1912293
1.1905545
1.1898771
1.1892006
1.1885282
1.1878626
1.1872064
1.1865615
1.1859297
1.1853125
1.1847111
1.1841263
1.1835588
1.1830093
1.1824778
1.1819648
1.18147
1.1809935
1.1805349
1.180094
1.1796704
1.1792635
1.1788728
1.1784975
1.1781371
1.1777906
1.1774575
1.1771368
1.1768275
1.1765287
1.176239
1.1759568
1.1756806
1.1754078
1.175137
1.1748707
1.1745912
1.1742962
1.1740948
1.1736726
1.1730004
1.1748569
1.183881
1.1893845
1.1879193
1.1903625
1.1903467
1.1918742
1.1924611
1.1936089
1.1943956
1.1953567
1.1961738
1.1970094
1.1977641
1.1984784
1.1991199
1.1996943
1.2001892
1.2006024
1.2009282
1.2011644
1.2013088
1.2013612
1.2013225
1.2011949
1.2009815
1.2006869
1.2003161
1.1998751
1.1993703
1.1988086
1.1981969
1.1975422
1.1968514
1.1961312
1.1953879
1.1946274
1.1938553
1.1930766
1.1922959
1.1915174
1.1907445
1.1899805
1.1892281
1.1884896
1.187767
1.1870618
1.1863753
1.1857086
1.1850624
1.1844372
1.1838333
1.183251
1.1826902
1.1821508
1.1816325
1.1811351
1.180658
1.1802008
1.1797629
1.1793437
1.1789424
1.1785583
1.1781907
1.1778387
1.1775015
1.1771782
1.1768679
1.1765696
1.176282
1.1760038
1.1757334
1.1754681
1.175208
1.1749533
1.1746843
1.1744188
1.1742338
1.1737862
1.1732981
1.1749469
1.1879971
1.1936095
1.1922236
1.1948009
1.1949049
1.1965186
1.1972241
1.1984467
1.1993114
1.200311
1.2011634
1.2020044
1.2027477
1.2034241
1.2040055
1.204495
1.2048822
1.2051653
1.2053408
1.2054083
1.2053686
1.205224
1.2049786
1.2046376
1.2042072
1.2036948
1.203108
1.2024553
1.201745
1.2009856
1.2001853
1.199352
1.1984933
1.1976162
1.1967271
1.1958318
1.1949357
1.1940434
1.1931589
1.1922858
1.1914272
1.1905855
1.189763
1.1889612
1.1881816
1.1874253
1.1866929
1.1859851
1.1853021
1.184644
1.1840109
1.1834025
1.1828186
1.1822588
1.1817225
1.1812093
1.1807185
1.1802494
1.1798014
1.1793737
1.1789655
1.1785761
1.1782044
1.1778497
1.1775112
1.1771878
1.1768788
1.1765832
1.1762998
1.1760276
1.1757647
1.175509
1.1752613
1.1750188
1.1747642
1.1745309
1.1743544
1.1739025
1.1735814
1.1750143
1.1925708
1.198308
1.1970337
1.1997567
1.200017
1.2017259
1.2025318
1.2038016
1.2047415
1.2057652
1.2066274
1.2074417
1.2081328
1.2087245
1.2091931
1.209541
1.2097609
1.2098533
1.2098181
1.2096587
1.2093795
1.2089872
1.2084895
1.2078954
1.2072146
1.2064571
1.2056334
1.2047537
1.2038279
1.2028656
1.2018756
1.2008664
1.1998453
1.1988191
1.1977938
1.1967748
1.1957665
1.1947729
1.1937973
1.1928424
1.1919105
1.1910034
1.1901225
1.1892688
1.188443
1.1876457
1.1868771
1.1861372
1.1854259
1.184743
1.1840881
1.1834606
1.18286
1.1822857
1.1817371
1.1812132
1.1807135
1.180237
1.1797831
1.1793508
1.1789392
1.1785476
1.178175
1.1778205
1.1774833
1.1771624
1.1768571
1.1765662
1.176289
1.1760245
1.1757708
1.1755265
1.1752926
1.1750629
1.1748264
1.1746254
1.1744503
1.1740129
1.1738428
1.1750585
1.1976698
1.2035377
1.2024318
1.2052978
1.2057344
1.2075052
1.2084378
1.2097571
1.2107309
1.2117423
1.2125662
1.2132974
1.2138726
1.2143099
1.2145921
1.2147228
1.2147002
1.2145289
1.2142144
1.213765
1.2131905
1.2125021
1.2117121
1.210833
1.2098777
1.2088588
1.2077885
1.2066781
1.2055383
1.2043789
1.2032085
1.2020351
1.2008654
1.1997053
1.1985599
1.1974334
1.1963294
1.1952507
1.1941998
1.1931784
1.1921878
1.191229
1.1903028
1.1894094
1.188549
1.1877215
1.1869266
1.1861639
1.185433
1.1847332
1.1840638
1.1834241
1.1828132
1.1822304
1.1816747
1.1811453
1.1806413
1.1801617
1.1797058
1.1792726
1.1788611
1.1784706
1.1780999
1.1777484
1.177415
1.177099
1.1767994
1.1765153
1.1762461
1.1759907
1.1757477
1.1755164
1.175297
1.1750813
1.1748663
1.1746941
1.1745152
1.1741114
1.1740703
1.1750744
1.2035357
1.2094909
1.2085862
1.2115362
1.2121231
1.2139431
1.2149703
1.2163082
1.2172782
1.218213
1.218925
1.2194887
1.2198571
1.220046
1.2200473
1.2198694
1.2195181
1.2190047
1.2183415
1.2175433
1.2166253
1.2156038
1.2144947
1.2133138
1.2120757
1.2107946
1.209483
1.2081525
1.2068133
1.2054741
1.2041428
1.2028259
1.2015289
1.2002563
1.1990118
1.1977984
1.1966184
1.1954736
1.1943651
1.1932937
1.1922601
1.1912642
1.1903062
1.1893856
1.1885021
1.187655
1.1868437
1.1860674
1.1853252
1.1846162
1.1839395
1.183294
1.1826789
1.182093
1.1815354
1.1810052
1.1805012
1.1800226
1.1795685
1.1791377
1.1787295
1.1783429
1.1779769
1.1776308
1.1773036
1.1769945
1.1767026
1.1764272
1.1761676
1.1759227
1.1756915
1.1754742
1.1752697
1.1750695
1.1748775
1.1747283
1.1745466
1.1741953
1.1742522
1.1750587
1.2101232
1.216106
1.215374
1.2183652
1.2192711
1.2212136
1.2222349
1.2234857
1.2243494
1.2250951
1.2255774
1.2258537
1.2258947
1.2257191
1.2253304
1.2247452
1.223979
1.2230513
1.2219821
1.2207921
1.2195018
1.2181306
1.2166971
1.2152182
1.213709
1.2121832
1.2106524
1.2091269
1.207615
1.2061241
1.2046599
1.2032272
1.2018297
1.2004703
1.1991512
1.1978738
1.1966393
1.1954481
1.1943004
1.1931962
1.1921351
1.1911166
1.1901399
1.1892042
1.1883087
1.1874522
1.1866338
1.1858522
1.1851065
1.1843955
1.1837179
1.1830728
1.1824588
1.181875
1.1813203
1.1807935
1.1802936
1.1798195
1.1793704
1.1789453
1.1785431
1.178163
1.1778041
1.1774656
1.1771466
1.1768462
1.1765638
1.1762985
1.1760498
1.1758166
1.1755983
1.1753954
1.175206
1.1750225
1.1748539
1.1747259
1.1745528
1.1742516
1.174375
1.1750062
1.2173926
1.2233911
1.2231062
1.2263239
1.2271871
1.2290245
1.230051
1.2311003
1.2317398
1.2321615
1.2322696
1.2321155
1.2316922
1.231028
1.2301416
1.2290604
1.2278106
1.2264197
1.224914
1.2233183
1.2216557
1.2199468
1.21821
1.2164609
1.2147132
1.2129782
1.2112652
1.2095818
1.2079341
1.2063269
1.2047637
1.2032471
1.201779
1.2003605
1.1989922
1.1976744
1.1964068
1.1951888
1.19402
1.1928992
1.1918255
1.1907977
1.1898147
1.1888751
1.1879776
1.187121
1.1863038
1.1855248
1.1847825
1.1840758
1.1834033
1.1827638
1.182156
1.1815788
1.1810309
1.1805113
1.1800189
1.1795526
1.1791115
1.1786946
1.1783009
1.1779296
1.1775798
1.1772507
1.1769415
1.1766514
1.1763797
1.1761258
1.1758889
1.1756683
1.1754635
1.1752752
1.1751008
1.1749343
1.1747893
1.1746827
1.174521
1.1742582
1.1744333
1.1749265
1.2258111
1.2318843
1.2318298
1.2349247
1.2359314
1.2375473
1.238346
1.2390139
1.2392126
1.2391106
1.2386535
1.2379017
1.2368718
1.2356061
1.2341379
1.232505
1.2307413
1.228879
1.2269468
1.22497
1.2229705
1.2209666
1.2189737
1.2170043
1.2150682
1.2131734
1.2113257
1.2095297
1.2077885
1.2061042
1.204478
1.2029106
1.2014019
1.1999517
1.198559
1.1972231
1.1959426
1.1947162
1.1935425
1.19242
1.191347
1.1903221
1.1893436
1.18841
1.1875195
1.1866708
1.1858622
1.1850924
1.1843597
1.1836629
1.1830005
1.1823712
1.1817737
1.1812069
1.1806694
1.1801602
1.1796783
1.1792224
1.1787918
1.1783853
1.1780022
1.1776415
1.1773023
1.1769841
1.1766859
1.1764071
1.1761471
1.1759053
1.1756809
1.1754733
1.1752824
1.1751084
1.1749482
1.1747985
1.1746746
1.1745831
1.1744356
1.1742286
1.1744219
1.1747941
1.2357219
1.2414121
1.2416408
1.2444705
1.2452745
1.2464163
1.2467143
1.2467361
1.2462496
1.24541
1.2442098
1.2427226
1.240989
1.2390629
1.2369884
1.234808
1.2325575
1.2302681
1.2279658
1.2256718
1.2234029
1.2211725
1.2189908
1.2168653
1.2148016
1.2128033
1.2108729
1.2090114
1.2072194
1.2054966
1.2038422
1.2022551
1.2007338
1.1992767
1.197882
1.1965478
1.1952722
1.1940533
1.192889
1.1917775
1.1907168
1.189705
1.1887403
1.1878209
1.1869451
1.1861111
1.1853173
1.1845622
1.1838442
1.1831618
1.1825137
1.1818985
1.1813149
1.1807617
1.1802376
1.1797415
1.1792724
1.1788292
1.1784109
1.1780168
1.1776457
1.177297
1.1769698
1.1766635
1.1763772
1.1761105
1.1758627
1.1756333
1.1754216
1.1752271
1.1750499
1.1748899
1.1747436
1.1746105
1.174505
1.1744243
1.174294
1.174143
1.1743334
1.1745959
1.2468851
1.251808
1.252017
1.2542706
1.2546071
1.2549598
1.2544557
1.2535629
1.2521643
1.250417
1.248359
1.2460764
1.2436255
1.2410643
1.2384378
1.2357845
1.2331348
1.2305125
1.2279358
1.2254183
1.2229695
1.2205963
1.2183027
1.2160914
1.2139633
1.2119183
1.2099556
1.2080738
1.2062711
1.2045452
1.202894
1.201315
1.1998057
1.1983636
1.1969861
1.195671
1.1944157
1.1932178
1.1920752
1.1909857
1.189947
1.1889571
1.1880142
1.1871162
1.1862613
1.1854479
1.1846742
1.1839386
1.1832396
1.1825757
1.1819455
1.1813477
1.1807809
1.180244
1.1797357
1.1792549
1.1788007
1.178372
1.1779678
1.1775873
1.1772297
1.1768941
1.1765797
1.176286
1.1760123
1.175758
1.1755225
1.1753055
1.1751062
1.1749245
1.1747603
1.1746132
1.1744802
1.1743629
1.1742728
1.1742007
1.1740897
1.1739883
1.1741609
1.1743339
1.2579069
1.262359
1.2624409
1.2637046
1.263168
1.2623262
1.2606791
1.2586241
1.2561576
1.2534363
1.2505263
1.247511
1.2444447
1.241375
1.2383356
1.2353523
1.232443
1.2296202
1.2268919
1.2242625
1.2217342
1.2193075
1.2169812
1.2147536
1.2126221
1.2105839
1.2086358
1.2067746
1.2049969
1.2032994
1.2016788
1.2001319
1.1986557
1.1972472
1.1959035
1.1946218
1.1933995
1.192234
1.1911231
1.1900643
1.1890556
1.1880948
1.1871798
1.1863089
1.1854802
1.1846919
1.1839423
1.18323
1.1825534
1.181911
1.1813014
1.1807234
1.1801757
1.179657
1.1791664
1.1787026
1.1782646
1.1778516
1.1774626
1.1770968
1.1767533
1.1764314
1.1761304
1.1758496
1.1755885
1.1753465
1.1751231
1.174918
1.1747305
1.1745606
1.1744082
1.1742726
1.1741516
1.174048
1.17397
1.1739046
1.1738131
1.1737509
1.1738979
1.1740018
1.2698986
1.2730601
1.2724128
1.271821
1.2698418
1.267428
1.2644427
1.2611859
1.2577201
1.2541701
1.2505965
1.2470575
1.2435874
1.2402122
1.2369477
1.2338033
1.2307837
1.2278903
1.225122
1.2224764
1.2199499
1.2175387
1.2152382
1.213044
1.2109514
1.2089558
1.2070527
1.2052379
1.2035072
1.2018568
1.2002829
1.198782
1.1973508
1.1959861
1.1946848
1.1934443
1.1922617
1.1911346
1.1900606
1.1890374
1.1880628
1.1871347
1.1862512
1.1854104
1.1846105
1.1838499
1.1831269
1.1824399
1.1817876
1.1811684
1.1805812
1.1800245
1.1794972
1.1789981
1.1785262
1.1780804
1.1776597
1.1772632
1.1768901
1.1765395
1.1762107
1.1759028
1.1756153
1.1753476
1.175099
1.1748691
1.1746575
1.1744636
1.1742872
1.174128
1.1739861
1.1738604
1.1737498
1.1736577
1.1735885
1.1735287
1.1734554
1.1734225
1.1735396
1.1735939
1.2812718
1.2805662
1.2783977
1.2756095
1.2720541
1.268198
1.2641163
1.259989
1.2558814
1.2518633
1.247967
1.2442166
1.2406212
1.2371844
1.233906
1.2307831
1.2278107
1.2249827
1.2222926
1.2197336
1.2172992
1.214983
1.2127784
1.2106793
1.20868
1.2067753
1.2049603
1.2032304
1.2015814
1.2000093
1.1985104
1.1970812
1.1957185
1.1944192
1.1931804
1.1919993
1.1908734
1.1898001
1.1887772
1.1878025
1.1868739
1.1859896
1.1851477
1.1843463
1.1835839
1.1828589
1.1821697
1.1815149
1.1808931
1.180303
1.1797434
1.1792129
1.1787106
1.1782353
1.177786
1.1773617
1.1769614
1.1765844
1.1762297
1.1758966
1.1755844
1.1752924
1.1750199
1.1747663
1.1745312
1.1743141
1.1741144
1.1739319
1.1737661
1.173617
1.1734843
1.1733672
1.1732652
1.1731815
1.1731175
1.1730608
1.1730011
1.1729893
1.1730849
1.1730956
1.284765
1.2814261
1.2777943
1.2735907
1.2691338
1.2646229
1.2601626
1.2558297
1.2516561
1.2476631
1.2438552
1.2402328
1.2367916
1.2335251
1.2304236
1.2274779
1.2246787
1.2220173
1.2194855
1.2170755
1.2147801
1.2125929
1.2105086
1.2085219
1.2066274
1.2048205
1.2030967
1.2014518
1.199882
1.1983837
1.1969535
1.1955884
1.1942853
1.1930415
1.1918544
1.1907213
1.1896401
1.1886087
1.1876252
1.1866877
1.1857942
1.184943
1.1841324
1.1833608
1.1826265
1.1819282
1.1812643
1.1806335
1.1800345
1.1794661
1.178927
1.1784162
1.1779324
1.1774748
1.1770423
1.176634
1.1762489
1.1758862
1.1755452
1.1752251
1.1749252
1.1746447
1.1743831
1.1741398
1.1739143
1.173706
1.1735147
1.1733398
1.1731811
1.1730383
1.1729113
1.1727993
1.1727023
1.1726222
1.172559
1.1725052
1.1724576
1.1724456
1.1724948
1.1725025
1.2734687
1.270279
1.2673984
1.2634624
1.2595159
1.2554908
1.2515574
1.2477364
1.24406
1.2405362
1.2371677
1.2339523
1.2308848
1.22796
1.2251715
1.2225131
1.2199783
1.2175607
1.2152543
1.2130534
1.2109525
1.2089462
1.2070295
1.2051988
1.2034501
1.2017798
1.2001843
1.1986603
1.1972047
1.1958143
1.1944864
1.1932184
1.1920076
1.1908516
1.1897483
1.1886954
1.1876912
1.1867334
1.1858202
1.1849497
1.18412
1.1833297
1.1825771
1.1818607
1.1811791
1.1805309
1.1799149
1.1793298
1.1787743
1.1782474
1.177748
1.1772749
1.1768271
1.1764038
1.1760039
1.1756267
1.1752711
1.1749364
1.174622
1.174327
1.1740507
1.1737926
1.1735519
1.1733283
1.173121
1.1729297
1.1727539
1.1725933
1.1724474
1.1723161
1.1721991
1.1720959
1.1720066
1.171932
1.1718715
1.1718221
1.1717838
1.1717682
1.1717828
1.171791
1.2329655
1.242766
1.244115
1.2446835
1.2436029
1.2419406
1.2397941
1.2374318
1.2349374
1.2324001
1.229861
1.2273536
1.2248958
1.2225005
1.2201749
1.2179235
1.2157483
1.2136502
1.211629
1.2096836
1.2078131
1.2060156
1.2042891
1.202631
1.2010392
1.1995116
1.1980459
1.1966401
1.1952923
1.1940004
1.1927626
1.191577
1.1904419
1.1893555
1.1883162
1.1873224
1.1863725
1.1854644
1.1845967
1.1837681
1.182977
1.1822222
1.1815024
1.1808163
1.1801627
1.1795405
1.1789485
1.1783856
1.1778507
1.177343
1.1768612
1.1764045
1.175972
1.1755628
1.175176
1.1748107
1.1744662
1.1741417
1.1738365
1.1735499
1.1732813
1.1730299
1.1727952
1.1725766
1.1723736
1.1721857
1.1720125
1.1718535
1.1717083
1.1715767
1.1714584
1.1713529
1.1712603
1.1711805
1.1711132
1.1710578
1.1710144
1.1709851
1.1709711
1.170969
1.2453681
1.2455461
1.2457457
1.2458641
1.2451962
1.2436684
1.2412271
1.2380733
1.2344262
1.2304414
1.226445
1.2223674
1.2183608
1.2144182
1.2106256
1.207127
1.2038968
1.2010069
1.1984299
1.196129
1.1941157
1.1923275
1.19077
1.1893981
1.1882014
1.1871255
1.1861523
1.1852548
1.1844473
1.1837614
1.1831471
1.1825766
1.182046
1.181548
1.1810773
1.1806299
1.1802034
1.1797963
1.1794075
1.1790358
1.1786808
1.1783423
1.1780194
1.177712
1.1774198
1.1771422
1.1768787
1.1766289
1.1763921
1.176168
1.1759557
1.1757549
1.1755644
1.1753846
1.1752127
1.1750511
1.1748939
1.1747483
1.1746005
1.1744697
1.1743232
1.1742089
1.1740513
1.1739613
1.1737708
1.1737245
1.1734626
1.1735004
1.1731082
1.1733007
1.1726369
1.1731361
1.172033
1.1730438
1.1712184
1.1730631
1.1700636
1.1732357
1.1683901
1.1737298
1.1032467
1.1078171
1.114312
1.1217521
1.1299043
1.1381104
1.1449676
1.1505879
1.1555076
1.1597782
1.1634207
1.1665884
1.1693399
1.1717265
1.1738077
1.1755875
1.1771451
1.1784195
1.1794964
1.1803294
1.1810188
1.1815033
1.1818679
1.1820699
1.1821741
1.182159
1.182079
1.1819305
1.1817325
1.1814994
1.1812342
1.180944
1.1806283
1.1802996
1.1799659
1.1796322
1.1793025
1.1789796
1.1786657
1.1783617
1.1780683
1.1777862
1.1775153
1.1772558
1.1770077
1.1767708
1.1765448
1.1763296
1.1761248
1.17593
1.1757447
1.1755688
1.1754011
1.1752421
1.1750893
1.1749451
1.1748038
1.1746725
1.174538
1.1744184
1.1742836
1.174177
1.1740307
1.173944
1.1737666
1.1737173
1.173473
1.1734975
1.1731315
1.1733027
1.1726844
1.1731375
1.1720964
1.1730486
1.1712779
1.1730757
1.1701006
1.1732812
1.1683967
1.1737972
1.2035305
1.2040861
1.2061103
1.2088003
1.2099699
1.2093865
1.2081502
1.2066264
1.2049463
1.2032233
1.2014965
1.1998109
1.198174
1.1966091
1.1951177
1.1937038
1.1923802
1.1911706
1.1900908
1.1890858
1.1881338
1.1872693
1.1864334
1.1856959
1.1850202
1.1844038
1.183884
1.1833819
1.1829437
1.1823907
1.1818779
1.1814032
1.1809565
1.1805369
1.1801402
1.1797638
1.1794054
1.1790633
1.1787362
1.1784229
1.1781233
1.1778368
1.1775628
1.1773013
1.177052
1.1768145
1.1765885
1.1763738
1.1761698
1.1759763
1.1757924
1.1756182
1.1754522
1.175295
1.175144
1.1750015
1.1748617
1.1747318
1.1745984
1.1744794
1.1743454
1.1742384
1.1740928
1.174004
1.173828
1.1737734
1.1735324
1.1735482
1.1731846
1.173342
1.1727406
1.1731622
1.1721581
1.1730568
1.1713416
1.1730706
1.1701621
1.1732767
1.1684409
1.1738076
1.1661851
1.1660592
1.1681877
1.1731134
1.176856
1.1779736
1.1785208
1.1789642
1.1793709
1.1798736
1.1803411
1.1807988
1.1812147
1.1816028
1.1818501
1.1822067
1.1822102
1.1825633
1.1824745
1.1827119
1.1825446
1.1826804
1.1825086
1.182484
1.1822452
1.1820771
1.1817672
1.1815268
1.1812413
1.1809579
1.1806648
1.1803678
1.1800679
1.179767
1.1794674
1.1791711
1.1788796
1.1785943
1.1783161
1.1780461
1.177785
1.1775332
1.177291
1.1770585
1.1768356
1.1766226
1.1764192
1.1762253
1.1760407
1.175865
1.1756977
1.1755388
1.1753869
1.1752428
1.1751037
1.1749722
1.1748423
1.1747215
1.1745961
1.1744846
1.1743567
1.1742558
1.1741143
1.1740306
1.1738567
1.1738068
1.1735658
1.1735864
1.1732213
1.1733828
1.1727754
1.1732043
1.172183
1.1730978
1.1713713
1.1731113
1.170186
1.1733103
1.1684605
1.1738357
1.1736624
1.1750872
1.1785022
1.1832044
1.1851987
1.185676
1.1855126
1.1853935
1.1852729
1.1851716
1.1850293
1.1849002
1.1847377
1.1845823
1.1844042
1.1842166
1.1840242
1.1837987
1.1835816
1.1833064
1.18308
1.1827473
1.1824796
1.1821526
1.1818743
1.1815632
1.1812901
1.1809879
1.1806978
1.1804074
1.1801197
1.1798356
1.1795558
1.1792808
1.179011
1.1787466
1.1784881
1.1782358
1.1779898
1.1777507
1.1775189
1.1772946
1.1770781
1.1768696
1.1766692
1.176477
1.1762931
1.1761173
1.1759494
1.1757893
1.1756365
1.1754909
1.1753514
1.1752185
1.1750898
1.1749676
1.1748462
1.1747328
1.1746142
1.1745084
1.1743857
1.1742886
1.1741512
1.1740694
1.1738987
1.1738484
1.1736105
1.1736289
1.1732669
1.1734217
1.1728229
1.1732393
1.1722348
1.1731273
1.1714168
1.1731335
1.1702277
1.1733307
1.1684898
1.1738548
1.1673993
1.1687449
1.1724274
1.1772147
1.1797822
1.1803859
1.1802956
1.1803749
1.1804317
1.1805141
1.180534
1.1805725
1.1805769
1.1805933
1.1805826
1.1805762
1.1805481
1.1805207
1.1804733
1.1804288
1.1803574
1.1802988
1.1802103
1.1801213
1.1800062
1.1798845
1.1797409
1.1795913
1.1794289
1.1792581
1.1790792
1.1788938
1.1787032
1.1785086
1.1783113
1.1781126
1.1779138
1.1777158
1.1775195
1.1773261
1.1771364
1.1769511
1.1767705
1.1765953
1.1764258
1.1762622
1.1761047
1.1759535
1.1758082
1.1756691
1.1755355
1.1754076
1.1752844
1.1751663
1.1750511
1.174941
1.1748308
1.174727
1.1746173
1.1745188
1.1744031
1.1743113
1.1741792
1.1741005
1.1739339
1.1738847
1.1736504
1.1736672
1.1733092
1.1734598
1.1728637
1.1732747
1.1722718
1.1731587
1.1714556
1.1731616
1.1702614
1.1733527
1.1685159
1.1738735
1.1665618
1.1682462
1.1723586
1.1770255
1.1790345
1.1794247
1.1793767
1.1794017
1.1793779
1.1794153
1.1794022
1.1794321
1.1794202
1.1794337
1.1794183
1.1794097
1.1793796
1.1793531
1.1793112
1.1792649
1.1792088
1.1791424
1.1790686
1.1789855
1.1788959
1.1787979
1.178694
1.178582
1.1784635
1.1783387
1.178208
1.1780724
1.1779323
1.1777885
1.1776418
1.1774928
1.1773424
1.1771913
1.1770399
1.1768894
1.1767405
1.1765936
1.1764493
1.1763081
1.1761704
1.1760366
1.1759068
1.1757813
1.17566
1.175543
1.1754298
1.1753207
1.1752147
1.1751123
1.1750114
1.1749141
1.1748155
1.1747218
1.1746214
1.1745305
1.174422
1.1743353
1.1742089
1.1741328
1.173971
1.1739217
1.173692
1.1737059
1.1733534
1.1734969
1.1729086
1.1733088
1.1723194
1.1731882
1.1714985
1.1731869
1.1702992
1.1733723
1.1685433
1.1738896
1.1641322
1.1660796
1.1705909