/*--------------------------------*- C++ -*----------------------------------*\
  =========                 |
  \\      /  F ield         | OpenFOAM: The Open Source CFD Toolbox
   \\    /   O peration     | Website:  https://openfoam.org
    \\  /    A nd           | Version:  6
     \\/     M anipulation  |
\*---------------------------------------------------------------------------*/
FoamFile
{
    version     2.0;
    format      ascii;
    class       volScalarField;
    location    "1000";
    object      T;
}
// * * * * * * * * * * * * * * * * * * * * * * * * * * * * * * * * * * * * * //

dimensions      [0 0 0 1 0 0 0];

internalField   nonuniform List<scalar> 
16000
(
297.80406
296.66862
297.07278
296.91636
297.05667
297.0283
297.09642
297.10761
297.1531
297.17863
297.21699
297.24871
297.28532
297.32009
297.3569
297.3935
297.43111
297.469
297.50747
297.54627
297.58543
297.62482
297.66436
297.70396
297.7435
297.78288
297.82197
297.86065
297.8988
297.93627
297.97293
298.00864
298.04327
298.07669
298.10875
298.13934
298.16834
298.19563
298.22111
298.24469
298.26629
298.28583
298.30326
298.31854
298.33163
298.3425
298.35117
298.35762
298.36187
298.36396
298.36391
298.36178
298.35761
298.35149
298.34347
298.33362
298.32202
298.30875
298.29391
298.27761
298.25992
298.24097
298.22081
298.19967
298.17748
298.15483
298.13113
298.10811
298.08314
298.06165
298.0343
298.01869
297.98444
297.98532
297.93046
297.97794
297.87666
298.01962
297.83901
298.0733
297.82932
296.70463
297.12556
296.96629
297.11176
297.08352
297.15464
297.16756
297.21532
297.24309
297.28352
297.31758
297.35628
297.39335
297.43228
297.4711
297.51079
297.55077
297.59123
297.63196
297.67294
297.71404
297.75516
297.79619
297.837
297.87746
297.91744
297.95681
297.9954
298.03309
298.06972
298.10515
298.13924
298.17184
298.20284
298.2321
298.25952
298.28499
298.30841
298.32973
298.34886
298.36577
298.38041
298.39277
298.40284
298.41063
298.41615
298.41943
298.42052
298.41946
298.41631
298.41113
298.40401
298.39502
298.38424
298.37175
298.35763
298.34197
298.32488
298.30645
298.28678
298.26596
298.24407
298.22127
298.1976
298.17339
298.14852
298.12381
298.09829
298.07444
298.04821
298.02795
297.99883
297.98906
297.94682
297.97243
297.89628
298.00623
297.86069
298.04999
297.87595
296.76692
297.19714
297.03643
297.18608
297.15963
297.23317
297.24874
297.29862
297.32913
297.37175
297.40846
297.44945
297.48904
297.53027
297.57145
297.61338
297.65555
297.69808
297.74078
297.78358
297.82635
297.86897
297.9113
297.9532
297.99452
298.03511
298.07481
298.11347
298.15092
298.18702
298.22161
298.25455
298.2857
298.31493
298.34213
298.3672
298.39005
298.41061
298.42883
298.44466
298.45808
298.46909
298.4777
298.48393
298.48782
298.48941
298.48876
298.48594
298.48103
298.47411
298.46526
298.45457
298.44215
298.42809
298.41247
298.39539
298.37694
298.35722
298.33633
298.31437
298.29143
298.26758
298.24295
298.21764
298.19183
298.16562
298.13941
298.11298
298.08741
298.06114
298.03812
298.01119
297.99568
297.96066
297.97211
297.91323
297.99887
297.87839
298.04788
297.94259
296.85406
297.28803
297.12705
297.28057
297.25649
297.33247
297.35107
297.40324
297.43676
297.48177
297.52133
297.56477
297.60703
297.6507
297.69435
297.73858
297.78298
297.82757
297.87219
297.91672
297.96102
298.00495
298.04834
298.09102
298.13285
298.17364
298.21322
298.25142
298.28808
298.32303
298.35612
298.38721
298.41616
298.44287
298.46722
298.48914
298.50856
298.52543
298.53974
298.55146
298.56062
298.56724
298.57136
298.57303
298.57234
298.56936
298.56418
298.55689
298.5476
298.53642
298.52344
298.50877
298.49253
298.47483
298.45577
298.43543
298.41391
298.39132
298.36776
298.34332
298.31807
298.29212
298.26553
298.23843
298.21095
298.18325
298.15557
298.12796
298.10097
298.07409
298.04916
298.02299
298.00359
297.97343
297.97408
297.92743
297.99491
297.89392
298.04503
298.02891
296.96792
297.39887
297.23905
297.39592
297.37521
297.4535
297.47575
297.53033
297.56727
297.61487
297.65757
297.70369
297.74882
297.79509
297.84134
297.88797
297.93463
297.98129
298.02777
298.07392
298.11958
298.16457
298.20872
298.25184
298.29373
298.33422
298.37312
298.41024
298.44541
298.47848
298.50928
298.53768
298.56357
298.58685
298.60743
298.62527
298.64032
298.65259
298.66206
298.66879
298.67281
298.67419
298.67301
298.66938
298.66339
298.65516
298.64481
298.63247
298.61826
298.60231
298.58475
298.56569
298.54526
298.52358
298.50076
298.47689
298.45207
298.42639
298.39996
298.37286
298.34518
298.31698
298.28835
298.25938
298.23019
298.20093
298.1718
298.14294
298.11467
298.08693
298.06061
298.03447
298.01257
297.98537
297.97838
297.94058
297.99341
297.90829
298.04756
298.13653
297.10608
297.53116
297.37397
297.53363
297.51721
297.59774
297.62416
297.6813
297.72198
297.77239
297.81845
297.86746
297.9156
297.96461
298.01352
298.06258
298.11148
298.16012
298.20832
298.25588
298.30262
298.34833
298.3928
298.43584
298.47723
298.51677
298.55426
298.58951
298.62235
298.65263
298.68019
298.70493
298.72675
298.74558
298.76137
298.7741
298.78379
298.79045
298.79414
298.79495
298.79295
298.78827
298.78103
298.77137
298.75942
298.74534
298.72927
298.71138
298.6918
298.67069
298.64819
298.62442
298.59952
298.57362
298.54682
298.51924
298.49095
298.46205
298.43264
298.40279
298.37258
298.34208
298.31134
298.28045
298.24952
298.21868
298.18811
298.15797
298.1285
298.0998
298.07234
298.04582
298.02212
297.99686
297.98491
297.95305
297.99379
297.92123
298.05233
298.26716
297.25902
297.68611
297.53313
297.695
297.68377
297.76647
297.79758
297.85747
297.90222
297.95569
298.00533
298.05742
298.10872
298.16059
298.21221
298.26369
298.31476
298.36524
298.41492
298.46358
298.511
298.55694
298.60117
298.64347
298.6836
298.72136
298.75654
298.78895
298.81843
298.84484
298.86805
298.88799
298.90458
298.9178
298.92765
298.93416
298.93738
298.93739
298.93431
298.92825
298.91937
298.90781
298.89376
298.87738
298.85886
298.83838
298.81611
298.79223
298.76691
298.74032
298.71259
298.68389
298.65432
298.62403
298.59313
298.56171
298.52986
298.49766
298.46521
298.43257
298.3998
298.36697
298.33412
298.30133
298.26866
298.23626
298.20428
298.17288
298.14228
298.11261
298.08419
298.05715
298.03221
298.0078
297.99194
297.96536
297.9957
297.93373
298.05845
298.42158
297.434
297.86391
297.71688
297.88056
297.87555
297.96052
297.99693
298.05988
298.10909
298.16596
298.21945
298.27486
298.32948
298.3843
298.43864
298.49249
298.54556
298.59763
298.64844
298.69774
298.74528
298.79078
298.834
298.87468
298.91259
298.94752
298.97925
299.00763
299.0325
299.05376
299.07131
299.08513
299.09519
299.10152
299.10419
299.10326
299.09888
299.09117
299.08031
299.06647
299.04985
299.03067
299.00913
298.98544
298.95983
298.9325
298.90365
298.87347
298.84215
298.80985
298.77674
298.74296
298.70863
298.67389
298.63883
298.60355
298.56814
298.53265
298.49716
298.46175
298.42646
298.39133
298.35641
298.32175
298.28741
298.25351
298.22017
298.18757
298.1559
298.12531
298.09606
298.06841
298.04265
298.0188
298.00027
297.9775
297.99867
297.9462
298.06468
298.60015
297.63443
298.06556
297.92634
298.09155
298.09384
298.18134
298.22366
298.29012
298.34418
298.40482
298.46243
298.5214
298.57945
298.63727
298.69426
298.7503
298.80508
298.85831
298.90972
298.95899
299.00585
299.05
299.09117
299.12909
299.16354
299.1943
299.22119
299.24408
299.26286
299.27746
299.28786
299.29408
299.29617
299.29423
299.28838
299.27879
299.26564
299.24915
299.22955
299.20707
299.18196
299.15448
299.12488
299.09341
299.0603
299.0258
298.99011
298.95343
298.91597
298.87788
298.83933
298.80045
298.76137
298.7222
298.68304
298.64396
298.60505
298.56634
298.52792
298.48982
298.45209
298.41476
298.37786
298.34142
298.3055
298.27017
298.23557
298.20186
298.16921
298.13778
298.10782
298.07958
298.05325
298.02958
298.00925
297.98954
298.00252
297.95846
298.07186
298.80253
297.86136
298.29268
298.16322
298.32977
298.34045
298.43083
298.47967
298.55011
298.60943
298.67421
298.73616
298.79886
298.86036
298.92111
298.98053
299.03841
299.09439
299.14814
299.19933
299.24762
299.29269
299.33424
299.37199
299.40567
299.43508
299.46003
299.48039
299.49606
299.50701
299.51323
299.5148
299.51179
299.50437
299.4927
299.47699
299.4575
299.43448
299.40822
299.37901
299.34713
299.3129
299.27661
299.23853
299.19894
299.1581
299.11625
299.07362
299.03041
298.9868
298.94296
298.89904
298.85517
298.81145
298.76799
298.72486
298.68214
298.63988
298.59812
298.5569
298.51627
298.47624
298.43685
298.39811
298.36003
298.32265
298.28603
298.25029
298.21558
298.18205
298.14989
298.11931
298.09055
298.06386
298.04017
298.01877
298.00135
298.00708
297.97053
298.07808
299.02515
298.11673
298.54708
298.42941
298.59722
298.61741
298.71113
298.76711
298.84206
298.907
298.97627
299.04272
299.10921
299.17405
299.23747
299.29888
299.35798
299.41436
299.46763
299.51743
299.5634
299.60518
299.64248
299.67502
299.70259
299.72499
299.74213
299.75392
299.76036
299.76151
299.75746
299.74836
299.73443
299.71591
299.69306
299.6662
299.63566
299.60177
299.56489
299.52535
299.48352
299.43971
299.39426
299.34747
299.29963
299.251
299.20182
299.15231
299.10267
299.05307
299.00366
298.95458
298.90593
298.8578
298.81029
298.76344
298.7173
298.67193
298.62733
298.58354
298.54058
298.49847
298.45721
298.4168
298.37725
298.33858
298.30083
298.2641
298.22852
298.19425
298.16147
298.1304
298.10121
298.0743
298.05045
298.02854
298.01278
298.01211
297.98247
298.08435
299.27269
298.40236
298.83073
298.72703
298.89622
298.92706
299.02475
299.08847
299.16851
299.23941
299.31343
299.38441
299.45458
299.52242
299.58796
299.65057
299.70988
299.76543
299.81678
299.86353
299.90531
299.94178
299.97267
299.99775
300.01686
300.0299
300.03684
300.03774
300.03269
300.02188
300.00552
299.98389
299.95732
299.92617
299.89081
299.85163
299.80907
299.76351
299.71537
299.66504
299.6129
299.55932
299.50462
299.44912
299.3931
299.33682
299.28051
299.22437
299.16858
299.1133
299.05864
299.00472
298.95163
298.89944
298.84819
298.79794
298.74871
298.70053
298.65339
298.6073
298.56228
298.51832
298.47542
298.43357
298.39277
298.35301
298.31431
298.27677
298.24048
298.20562
298.17237
298.14091
298.11142
298.08439
298.06031
298.03828
298.02369
298.01739
297.99337
298.08932
299.54902
298.72094
299.14634
299.05891
299.22977
299.27239
299.3748
299.44683
299.53248
299.60954
299.6884
299.76369
299.83711
299.90721
299.97388
300.03642
300.09439
300.14728
300.19463
300.23605
300.27116
300.2997
300.32144
300.33625
300.34409
300.34499
300.33905
300.32648
300.30752
300.28251
300.25181
300.21584
300.17506
300.12992
300.08092
300.02853
299.97324
299.91551
299.85579
299.79449
299.73201
299.66871
299.60494
299.54097
299.47709
299.41353
299.35049
299.28814
299.22665
299.16613
299.10668
299.04837
298.99128
298.93545
298.8809
298.82765
298.77571
298.72508
298.67574
298.62769
298.58091
298.5354
298.49113
298.44809
298.40627
298.36564
298.32622
298.28806
298.25125
298.21597
298.18238
298.15067
298.12102
298.09396
298.06963
298.04777
298.03389
298.02294
298.00371
298.09342
299.85658
299.07583
299.49727
299.4285
299.60148
299.65696
299.76492
299.84569
299.93731
300.02052
300.10398
300.18295
300.25869
300.32976
300.39592
300.4564
300.51073
300.55836
300.59886
300.63186
300.6571
300.67438
300.68362
300.68486
300.6782
300.66385
300.64213
300.6134
300.5781
300.53674
300.48983
300.43795
300.38165
300.32152
300.25812
300.192
300.12367
300.05364
299.98237
299.91028
299.83774
299.76512
299.69272
299.6208
299.54961
299.47933
299.41015
299.3422
299.2756
299.21042
299.14674
299.08461
299.02405
298.96508
298.90771
298.85192
298.79771
298.74505
298.6939
298.64425
298.59606
298.54932
298.50398
298.46004
298.41745
298.3762
298.33629
298.29773
298.26062
298.22509
298.19133
298.1595
298.12983
298.1028
298.0783
298.05684
298.04302
298.02837
298.01331
298.09642
300.19808
299.47068
299.88727
299.83965
300.01535
300.08469
300.19918
300.28896
300.3866
300.47549
300.5628
300.64418
300.72057
300.79048
300.85357
300.90905
300.95644
300.99523
301.02508
301.04573
301.05708
301.05911
301.05196
301.03586
301.01119
300.97837
300.93793
300.89048
300.83663
300.77707
300.71248
300.64354
300.57091
300.49526
300.41719
300.33728
300.25608
300.17407
300.0917
300.00937
299.92742
299.84617
299.76588
299.68676
299.60902
299.53281
299.45824
299.38542
299.31442
299.24528
299.17804
299.1127
299.04928
298.98775
298.92809
298.87027
298.81426
298.76002
298.70748
298.65662
298.6074
298.55976
298.51368
298.46913
298.42606
298.38445
298.34428
298.30557
298.26836
298.23278
298.199
298.16721
298.13767
298.11072
298.08615
298.06525
298.05124
298.03382
298.02259
298.09773
300.57676
299.91021
300.3211
300.29707
300.47626
300.56027
300.68226
300.78066
300.88393
300.9773
301.06682
301.1484
301.22265
301.28811
301.34436
301.39067
301.42663
301.45187
301.46623
301.46969
301.4624
301.44462
301.4168
301.37945
301.33324
301.27886
301.2171
301.14876
301.07467
300.99565
300.9125
300.82599
300.73685
300.64576
300.55335
300.46019
300.36678
300.27358
300.18098
300.08934
299.99894
299.91004
299.82284
299.7375
299.65417
299.57293
299.49386
299.41702
299.34243
299.27009
299.20001
299.13216
299.06651
299.00303
298.94165
298.88234
298.82503
298.76967
298.71619
298.66453
298.61464
298.56647
298.51998
298.47512
298.43185
298.39015
298.34998
298.31134
298.27426
298.23884
298.20523
298.17361
298.14432
298.11752
298.09302
298.07268
298.0582
298.03924
298.03108
298.09703
300.99574
300.40035
300.80488
300.80695
300.99065
301.08987
301.2203
301.32441
301.43212
301.52782
301.61666
301.69481
301.76264
301.81879
301.86287
301.89435
301.91301
301.91879
301.91185
301.89254
301.86136
301.81899
301.76621
301.7039
301.63303
301.55458
301.46956
301.37895
301.28374
301.18482
301.08308
300.9793
300.87422
300.76849
300.6627
300.55737
300.45292
300.34976
300.2482
300.14851
300.05091
299.95557
299.86264
299.77221
299.68436
299.59912
299.51653
299.43658
299.35926
299.28454
299.21238
299.14272
299.07551
299.01069
298.94818
298.88791
298.82981
298.7738
298.71981
298.66776
298.6176
298.56925
298.52268
298.47782
298.43464
298.39311
298.35319
298.31486
298.27814
298.24309
298.20982
298.17854
298.14958
298.12301
298.09878
298.07892
298.06356
298.04419
298.03848
298.09453
301.4573
300.94936
301.34632
301.37678
301.56473
301.67844
301.813
301.92446
302.03339
302.12751
302.21074
302.27976
302.33478
302.37471
302.39944
302.40877
302.40293
302.38233
302.34761
302.29961
302.23933
302.16788
302.08644
301.99626
301.89856
301.79456
301.68543
301.57228
301.45613
301.33793
301.21851
301.09865
300.97899
300.86011
300.74252
300.62662
300.51276
300.40124
300.29227
300.18604
300.08268
299.98229
299.88493
299.79063
299.69942
299.61127
299.52616
299.44404
299.36487
299.28858
299.2151
299.14434
299.07623
299.01068
298.94761
298.88691
298.82851
298.77232
298.71825
298.66621
298.61615
298.56798
298.52165
298.4771
298.43429
298.39318
298.35374
298.31595
298.27981
298.24533
298.21261
298.18182
298.15328
298.127
298.10323
298.08378
298.06723
298.04827
298.04436
298.09051
301.97566
301.57155
301.95459
302.01579
302.20366
302.32976
302.46947
302.58261
302.68708
302.77291
302.84284
302.89427
302.92757
302.9422
302.93856
302.91709
302.87868
302.82437
302.75545
302.67334
302.57956
302.47564
302.36315
302.24357
302.11833
301.98878
301.85613
301.72149
301.58584
301.45005
301.31486
301.18091
301.04875
300.91882
300.79149
300.66704
300.54571
300.42768
300.31306
300.20195
300.09438
299.99039
299.88995
299.79305
299.69963
299.60965
299.52302
299.43967
299.3595
299.28244
299.20837
299.13719
299.06881
299.00312
298.94002
298.87941
298.82118
298.76524
298.7115
298.65986
298.61025
298.56259
298.51682
298.47287
298.43069
298.39025
298.35152
298.31448
298.27911
298.24541
298.21344
298.18333
298.1553
298.12938
298.10612
298.08701
298.06956
298.05151
298.04873
298.08477
302.55657
302.26568
302.63013
302.71729
302.90641
303.05365
303.189
303.29588
303.38667
303.45362
303.49917
303.52158
303.52182
303.50024
303.45808
303.39668
303.31776
303.22315
303.11481
302.99471
302.86483
302.72701
302.58304
302.43451
302.2829
302.12951
301.97546
301.82175
301.6692
301.51852
301.37028
301.22495
301.0829
300.94442
300.80974
300.679
300.55232
300.42975
300.31131
300.19701
300.0868
299.98064
299.87845
299.78016
299.68568
299.59489
299.50769
299.42398
299.34363
299.26652
299.19255
299.12159
299.05353
298.98824
298.92562
298.86555
298.80794
298.75266
298.69963
298.64875
298.59992
298.55309
298.50816
298.46508
298.4238
298.38427
298.34645
298.31034
298.27593
298.24319
298.21215
298.18293
298.15559
298.13014
298.10734
298.08845
298.07082
298.05389
298.05106
298.0774
303.20781
303.03396
303.37266
303.50844
303.71228
303.84039
303.96287
304.05066
304.11461
304.14855
304.15556
304.13519
304.08955
304.02026
303.92972
303.82032
303.69469
303.55538
303.40491
303.24564
303.07975
302.90922
302.73579
302.56099
302.38611
302.21227
302.04037
301.87116
301.70526
301.54312
301.38511
301.2315
301.08248
300.93817
300.79865
300.66394
300.53403
300.40887
300.28841
300.17254
300.06119
299.95423
299.85154
299.753
299.65847
299.56783
299.48094
299.39766
299.31786
299.2414
299.16815
299.09797
299.03076
298.96637
298.90468
298.84559
298.78898
298.73474
298.68277
298.63296
298.58523
298.5395
298.49569
298.45374
298.41359
298.37518
298.33849
298.3035
298.27019
298.23855
298.20862
298.18045
298.15403
298.12931
298.1071
298.08828
298.07016
298.05388
298.05228
298.06924
303.93776
303.9012
304.24927
304.38601
304.56599
304.67918
304.77326
304.82369
304.84248
304.8254
304.77709
304.69904
304.59494
304.46791
304.32154
304.15922
303.98422
303.79956
303.60796
303.41185
303.21329
303.01407
302.81566
302.61928
302.42592
302.23634
302.05115
301.8708
301.69562
301.52583
301.36157
301.20292
301.04989
300.90245
300.76055
300.62409
300.49296
300.36704
300.2462
300.13028
300.01913
299.9126
299.81052
299.71275
299.61912
299.52947
299.44365
299.36152
299.28291
299.20769
299.13571
299.06684
299.00093
298.93788
298.87754
298.8198
298.76455
298.71167
298.66106
298.61263
298.56627
298.52191
298.47946
298.43887
298.40006
298.36299
298.32761
298.29391
298.26186
298.23146
298.20273
298.17573
298.15039
298.12669
298.10538
298.08672
298.06801
298.05185
298.05168
298.06052
304.77039
304.89093
305.19223
305.32456
305.47246
305.54421
305.58396
305.57313
305.5242
305.43656
305.31672
305.16849
304.99711
304.807
304.60259
304.38774
304.1659
303.94001
303.71256
303.48557
303.26071
303.03927
302.82228
302.61049
302.40447
302.2046
302.01115
301.82427
301.644
301.47036
301.30329
301.14268
300.98841
300.84033
300.69828
300.56208
300.43155
300.30649
300.18672
300.07206
299.9623
299.85727
299.75678
299.66065
299.56871
299.48079
299.39672
299.31633
299.23948
299.16602
299.09579
299.02865
298.96448
298.90314
298.8445
298.78845
298.73486
298.68364
298.63468
298.58787
298.54313
298.50036
298.45951
298.42048
298.38322
298.34767
298.3138
298.28155
298.25092
298.22189
298.19449
298.16874
298.14455
298.12201
298.10177
298.08362
298.06516
298.04942
298.04848
298.05074
305.69875
305.95108
306.19529
306.29237
306.37398
306.37435
306.33098
306.23365
306.09638
305.92268
305.72102
305.49717
305.25732
305.00645
304.74899
304.48852
304.22797
303.96963
303.7153
303.46631
303.22364
302.98799
302.75982
302.53939
302.32685
302.12223
301.92548
301.73648
301.55508
301.38109
301.21431
301.05451
300.90147
300.75494
300.61469
300.48049
300.3521
300.22929
300.11185
299.99956
299.8922
299.78958
299.6915
299.59777
299.5082
299.42262
299.34086
299.26276
299.18815
299.11689
299.04882
298.98381
298.92172
298.86243
298.8058
298.75173
298.70009
298.65079
298.60371
298.55876
298.51586
298.47491
298.43584
298.39857
298.36305
298.32921
298.297
298.26639
298.23735
298.20985
298.18391
298.15952
298.13661
298.11533
298.09616
298.07863
298.06088
298.04602
298.04366
298.041
306.69148
307.03762
307.19337
307.2159
307.19353
307.08761
306.93252
306.72779
306.48917
306.22375
305.94083
305.64683
305.3475
305.04712
304.7491
304.45591
304.16937
303.89074
303.62086
303.36025
303.10917
302.8677
302.63581
302.41335
302.20011
301.99585
301.80029
301.61312
301.43405
301.26277
301.09896
300.94233
300.79258
300.64944
300.51262
300.38186
300.25689
300.13749
300.0234
299.9144
299.81027
299.71082
299.61582
299.52511
299.43848
299.35577
299.2768
299.20141
299.12945
299.06076
298.99521
298.93265
298.87296
298.816
298.76166
298.70983
298.66038
298.61322
298.56825
298.52537
298.4845
298.44555
298.40845
298.37313
298.33951
298.30754
298.27717
298.24836
298.22106
298.19526
298.17094
298.14808
298.12662
298.10672
298.0887
298.07199
298.05535
298.0418
298.03774
298.03118
307.92132
308.0754
308.09215
307.98543
307.81475
307.57243
307.28905
306.97268
306.63812
306.29329
305.94581
305.60058
305.26139
304.93068
304.61015
304.30078
304.00311
303.71734
303.44345
303.18124
302.93043
302.69065
302.46152
302.24262
302.03351
301.83378
301.64301
301.4608
301.28677
301.12054
300.96176
300.8101
300.66523
300.52686
300.3947
300.26846
300.1479
300.03276
299.9228
299.8178
299.71755
299.62184
299.53047
299.44325
299.36002
299.28058
299.20479
299.13248
299.06351
298.99772
298.93498
298.87516
298.81813
298.76377
298.71196
298.66259
298.61556
298.57077
298.52811
298.4875
298.44886
298.41209
298.37714
298.34393
298.31239
298.28246
298.2541
298.22726
298.20188
298.17795
298.15544
298.13431
298.11451
298.09619
298.07952
298.06388
298.04861
298.0364
298.03098
298.02239
308.74354
308.81659
308.65468
308.38146
308.05256
307.68138
307.29091
306.89153
306.49337
306.10186
305.72115
305.35347
305.00012
304.66167
304.33823
304.02954
303.73518
303.45461
303.18724
302.93245
302.68964
302.45822
302.2376
302.02721
301.82652
301.63503
301.4523
301.27788
301.11137
300.9524
300.8006
300.65565
300.51722
300.38502
300.25877
300.1382
300.02306
299.91312
299.80815
299.70793
299.61227
299.52096
299.43382
299.35067
299.27135
299.19569
299.12354
299.05474
298.98916
298.92665
298.8671
298.81036
298.75632
298.70487
298.65589
298.60928
298.56494
298.52278
298.48269
298.44459
298.40841
298.37407
298.34148
298.31059
298.28133
298.25365
298.22749
298.2028
298.17954
298.15768
298.13719
298.11801
298.10012
298.08365
298.06861
298.05444
298.04094
298.03042
298.02445
298.01342
308.94374
308.87352
308.5517
308.15153
307.7261
307.29104
306.85976
306.439
306.03311
305.64393
305.27233
304.91826
304.58136
304.26087
303.95597
303.66584
303.38964
303.12659
302.87595
302.637
302.40909
302.19163
301.98408
301.78595
301.59678
301.41613
301.2436
301.07879
300.92136
300.77095
300.62726
300.48997
300.3588
300.23348
300.11375
299.99935
299.89006
299.78567
299.68598
299.59081
299.49997
299.41327
299.33056
299.25166
299.17642
299.10469
299.03633
298.97118
298.90913
298.85005
298.7938
298.74028
298.68936
298.64095
298.59494
298.55122
298.5097
298.47029
298.43291
298.39746
298.36388
298.33208
298.302
298.27357
298.24674
298.22143
298.19761
298.17522
298.15422
298.13458
298.11626
298.09921
298.08342
298.06895
298.05576
298.04352
298.03221
298.02315
298.01684
298.00808
307.76647
307.85599
307.52627
307.20775
306.83637
306.46158
306.08655
305.72064
305.36589
305.02416
304.69586
304.38104
304.07944
303.79068
303.51436
303.25002
302.9972
302.7554
302.52417
302.30303
302.09155
301.88927
301.69581
301.51081
301.33393
301.16481
301.00313
300.84856
300.70081
300.55956
300.42456
300.29554
300.17226
300.05447
299.94195
299.8345
299.73192
299.63397
299.54047
299.45123
299.36607
299.28483
299.20736
299.1335
299.06311
298.99605
298.93219
298.8714
298.81356
298.75855
298.70626
298.65658
298.6094
298.56462
298.52214
298.48188
298.44373
298.40762
298.37347
298.34118
298.3107
298.28195
298.25486
298.22936
298.20541
298.18294
298.16191
298.14226
298.12396
298.10696
298.09124
298.07674
298.06347
298.05143
298.04057
298.03077
298.02205
298.01494
298.00955
298.0039
304.51038
305.11588
305.27489
305.3279
305.23088
305.07313
304.8689
304.64078
304.3984
304.14969
303.89942
303.65094
303.40649
303.16757
302.93514
302.70983
302.492
302.28182
302.07934
301.88453
301.69728
301.51745
301.34483
301.17919
301.02027
300.86786
300.72171
300.58161
300.44733
300.31868
300.19545
300.07744
299.96447
299.85635
299.75293
299.65403
299.55949
299.46914
299.38284
299.30042
299.22175
299.14669
299.07511
299.00688
298.94187
298.87998
298.82107
298.76505
298.7118
298.66123
298.61321
298.56767
298.52451
298.48363
298.44494
298.40837
298.37383
298.34123
298.31051
298.2816
298.25442
298.2289
298.20499
298.18262
298.16175
298.14231
298.12426
298.10756
298.09216
298.07802
298.06511
298.0534
298.04287
298.03351
298.02528
298.01815
298.01213
298.00731
298.00372
298.00109
308.03324
308.10683
307.72286
307.00933
306.17629
305.36062
304.65163
304.05287
303.5453
303.10872
302.70124
302.34025
302.01661
301.72202
301.44366
301.18507
300.94251
300.72178
300.51607
300.33023
300.15785
300.0044
299.86295
299.73587
299.61945
299.51725
299.42334
299.33896
299.2605
299.19026
299.12716
299.06892
299.01463
298.96347
298.91491
298.86854
298.82406
298.78123
298.73991
298.70002
298.66147
298.62418
298.58815
298.55331
298.51961
298.48703
298.45553
298.42506
298.39559
298.36708
298.33948
298.31273
298.28678
298.26158
298.23708
298.21323
298.18989
298.16715
298.1447
298.12294
298.10102
298.08021
298.05829
298.03875
298.01599
297.99874
297.97383
297.96104
297.9297
297.92602
297.88894
297.89957
297.84655
297.88315
297.80608
297.88334
297.78363
297.9069
297.80552
297.94476
306.22418
305.57962
304.98274
304.22471
303.38863
302.65109
302.07279
301.64949
301.34494
301.11148
300.92219
300.76049
300.61644
300.48318
300.35539
300.23676
300.11867
300.01411
299.90674
299.81262
299.71632
299.63341
299.54979
299.47655
299.40406
299.33943
299.27595
299.21859
299.16251
299.10947
299.0594
299.01149
298.96503
298.91992
298.87615
298.83366
298.79241
298.75238
298.71353
298.6759
298.63943
298.60409
298.56988
298.53677
298.50472
298.47369
298.44366
298.41459
298.38643
298.35917
298.33274
298.3071
298.28219
298.25797
298.23436
298.21136
298.18879
298.16676
298.14494
298.12375
298.10236
298.08199
298.06051
298.04123
298.01886
298.00168
297.97715
297.9643
297.93355
297.92939
297.89326
297.90301
297.85105
297.88671
297.80978
297.88734
297.78673
297.91285
297.80581
297.95273
300.62037
300.58034
300.07495
299.33168
298.88403
298.8067
298.84562
298.92111
299.01107
299.1002
299.18088
299.24987
299.30661
299.35022
299.38057
299.40397
299.41045
299.41275
299.38959
299.37477
299.34151
299.31833
299.27972
299.24889
299.20953
299.17448
299.13562
299.09958
299.06093
299.02113
298.98146
298.942
298.90246
298.86323
298.82456
298.78658
298.74939
298.71304
298.67758
298.6431
298.60953
298.57688
298.54522
298.51443
298.48456
298.45558
298.42747
298.40019
298.37372
298.34803
298.32307
298.29881
298.27517
298.25216
298.22965
298.20769
298.18603
298.16492
298.14382
298.12345
298.10256
298.08296
298.06172
298.04324
298.0208
298.00458
297.9795
297.96783
297.93568
297.93371
297.89508
297.90776
297.85242
297.89199
297.81151
297.89324
297.78752
297.91896
297.80629
297.95856
302.98015
303.02073
302.49641
301.27234
300.36908
300.14222
300.0622
300.01295
299.97247
299.908
299.84867
299.78883
299.73228
299.67537
299.64249
299.57224
299.57687
299.48167
299.48459
299.39439
299.39523
299.31043
299.29242
299.22551
299.1986
299.1423
299.11378
299.06407
299.02418
298.9837
298.94363
298.90466
298.86661
298.82945
298.79311
298.75758
298.72284
298.68888
298.65573
298.62339
298.59182
298.56106
298.5311
298.50196
298.47364
298.44611
298.41936
298.39337
298.3681
298.34355
298.31966
298.29639
298.27368
298.25154
298.22982
298.20859
298.18759
298.16708
298.1465
298.12662
298.10609
298.08688
298.06584
298.04767
298.02525
298.00929
297.98406
297.97267
297.94054
297.93847
297.89995
297.91242
297.85715
297.89642
297.81492
297.89752
297.79058
297.92366
297.80793
297.96325
302.18121
301.83987
300.97253
299.77193
299.25811
299.12178
299.1429
299.15106
299.15562
299.15298
299.15537
299.1539
299.15306
299.14916
299.14471
299.13743
299.12919
299.11793
299.1056
299.0949
299.07472
299.06759
299.04748
299.03248
299.00829
298.98673
298.95901
298.9332
298.90548
298.8773
298.84859
298.81944
298.78999
298.76036
298.73071
298.70113
298.67175
298.64265
298.61394
298.58564
298.5578
298.53048
298.50371
298.47751
298.4519
298.4269
298.40248
298.37866
298.3554
298.33271
298.31053
298.28885
298.2676
298.2468
298.22631
298.20621
298.18621
298.16663
298.14684
298.12772
298.10777
298.08918
298.0685
298.05086
298.02856
298.01312
297.98773
297.9769
297.94415
297.94307
297.90347
297.91706
297.85897
297.90137
297.81744
297.90247
297.7922
297.92887
297.80893
297.96796
302.25971
301.92962
300.99986
299.79661
299.16368
299.03047
299.0683
299.06645
299.06353
299.05536
299.05502
299.05014
299.04653
299.04007
299.03377
299.02519
299.01652
299.00555
298.99435
298.98
298.96711
298.94894
298.93245
298.91309
298.89474
298.87436
298.85451
298.83296
298.81095
298.7883
298.76511
298.74147
298.71748
298.69323
298.66879
298.64425
298.61966
298.59512
298.57071
298.54645
298.5224
298.49861
298.47514
298.45202
298.42929
298.40695
298.38502
298.36349
298.34238
298.32166
298.30131
298.28131
298.26161
298.24223
298.22302
298.2041
298.18515
298.16651
298.14755
298.12917
298.10984
298.09181
298.07155
298.05433
298.03225
298.01714
297.99175
297.98123
297.94846
297.94759
297.90767
297.92155
297.8634
297.90599
297.82046
297.90699
297.79457
297.93374
297.81017
297.97232
301.92894
301.51656
300.47757
299.30266
298.80935
298.72718
298.7529
298.76088
298.77467
298.77705
298.78389
298.78563
298.7894
298.79046
298.7919
298.79145
298.79052
298.78845
298.78546
298.78176
298.7765
298.77111
298.76402
298.75618
298.74669
298.73627
298.72439
298.7116
298.69772
298.68293
298.66727
298.65081
298.63363
298.61582
298.59748
298.57869
298.55954
298.54011
298.52053
298.50081
298.48102
298.46125
298.44154
298.42194
298.40249
298.38323
298.36416
298.34529
298.32664
298.30821
298.28997
298.27191
298.25399
298.23623
298.21851
298.20091
298.18316
298.1656
298.14759
298.13004
298.11142
298.09402
298.07425
298.05749
298.03569
298.02093
297.99562
297.98538
297.95246
297.95197
297.91063
297.92603
297.86676
297.91052
297.82335
297.91149
297.79663
297.93852
297.81133
297.97652
301.7888