/*--------------------------------*- C++ -*----------------------------------*\
  =========                 |
  \\      /  F ield         | OpenFOAM: The Open Source CFD Toolbox
   \\    /   O peration     | Website:  https://openfoam.org
    \\  /    A nd           | Version:  6
     \\/     M anipulation  |
\*---------------------------------------------------------------------------*/
FoamFile
{
    version     2.0;
    format      ascii;
    class       volVectorField;
    location    "1000";
    object      U;
}
// * * * * * * * * * * * * * * * * * * * * * * * * * * * * * * * * * * * * * //

dimensions      [0 1 -1 0 0 0 0];

internalField   nonuniform List<vector> 
16000
(
(150.14547 1.2898872e-15 -17.293952)
(158.24327 -1.1515524e-15 -11.282877)
(155.15996 4.4529784e-18 -16.328191)
(156.58318 4.0275796e-18 -12.257645)
(155.39272 0 -15.245426)
(155.79732 -9.2000282e-16 -12.930938)
(155.21483 8.7076583e-16 -14.483154)
(155.25383 0 -13.273337)
(154.89542 -1.8989851e-19 -13.98161)
(154.78455 1.7960202e-19 -13.373388)
(154.5119 3.402164e-19 -13.638365)
(154.33368 -6.5989715e-16 -13.321553)
(154.0909 6.2557183e-16 -13.371289)
(153.88083 4.9263676e-18 -13.17958)
(153.64485 5.6263003e-16 -13.128796)
(153.41805 -5.3394219e-16 -12.981755)
(153.18016 -1.0145254e-15 -12.882498)
(152.94333 9.6258655e-16 -12.744283)
(152.70113 0 -12.61793)
(152.45779 8.6929249e-16 -12.473558)
(152.21165 -8.2641536e-16 -12.32798)
(151.9644 -7.8663463e-16 -12.171451)
(151.71598 -7.2468502e-19 -12.009194)
(151.46736 -3.4326709e-19 -11.838203)
(151.21904 6.6636156e-16 -11.660037)
(150.97184 0 -11.473868)
(150.72648 6.1453979e-16 -11.280228)
(150.48378 -5.7532109e-16 -11.079022)
(150.24457 -5.4363601e-19 -10.870578)
(150.00972 -5.1800742e-19 -10.655113)
(149.7801 -5.058719e-16 -10.433006)
(149.55659 4.8153838e-16 -10.204663)
(149.34009 -1.4373136e-17 -9.9705896)
(149.13146 -1.2850746e-17 -9.7313481)
(148.93155 8.3637553e-16 -9.4875794)
(148.74119 -1.5962289e-15 -9.2399847)
(148.56116 7.6101009e-16 -8.989327)
(148.39219 1.1355879e-17 -8.7364204)
(148.23495 1.0838853e-17 -8.4821213)
(148.09005 0 -8.2273195)
(147.95804 -1.2338261e-18 -7.972926)
(147.83936 1.1782753e-18 -7.7198604)
(147.73442 -5.7536253e-16 -7.4690398)
(147.64349 5.5165897e-16 -7.2213642)
(147.56681 5.2513039e-16 -6.9777047)
(147.5045 -5.0270512e-16 -6.7388909)
(147.45662 -9.3819611e-19 -6.5056998)
(147.42315 0 -6.278844)
(147.40399 4.3916735e-16 -6.0589645)
(147.39897 -4.1991348e-16 -5.8466207)
(147.40785 0 -5.6422865)
(147.43033 0 -5.4463418)
(147.46603 2.2979317e-17 -5.2590819)
(147.5145 -1.3738282e-18 -5.0807106)
(147.5753 2.1051477e-17 -4.9113279)
(147.64796 0 -4.7509456)
(147.73197 0 -4.5994935)
(147.82668 0 -4.4568257)
(147.93142 0 -4.3227119)
(148.04544 -3.607867e-17 -4.1968756)
(148.16813 -3.2552318e-17 -4.0789413)
(148.29859 0 -3.9685833)
(148.43643 2.9941112e-17 -3.865227)
(148.58013 0 -3.7686934)
(148.73022 -3.1021209e-17 -3.6779172)
(148.88265 -4.2686438e-16 -3.5935141)
(149.04152 4.0694821e-16 -3.512796)
(149.19444 -3.054809e-18 -3.4393609)
(149.35875 3.7591361e-16 -3.3649485)
(149.49657 -3.815184e-16 -3.3036817)
(149.67071 0 -3.2274548)
(149.76289 -3.3524509e-16 -3.1861932)
(149.97919 6.4599142e-16 -3.0818571)
(149.95306 -3.1177451e-16 -3.1028429)
(150.30313 4.6939892e-18 -2.8949467)
(149.96314 0 -3.1396485)
(150.62521 -1.4025729e-16 -2.5260266)
(149.6277 1.7200013e-17 -3.5233822)
(150.83906 1.3153133e-16 -1.6226076)
(149.15386 -3.2077433e-17 -4.7150627)
(149.78623 -1.3000722e-15 -18.965993)
(157.89848 1.1626782e-15 -12.688502)
(154.63521 -4.3942954e-18 -17.968014)
(156.14243 1.0545279e-15 -13.667159)
(154.87244 -1.0048735e-15 -16.81143)
(155.31406 7.334074e-18 -14.351652)
(154.68812 0 -15.980832)
(154.73533 0 -14.690052)
(154.35213 7.8220553e-16 -15.421939)
(154.23625 -7.6323591e-16 -14.768984)
(153.94718 7.0114179e-16 -15.029164)
(153.75864 -6.7449907e-16 -14.683154)
(153.50259 0 -14.715074)
(153.2807 6.0198502e-16 -14.498559)
(153.03257 -5.7540376e-16 -14.424227)
(152.79397 0 -14.251969)
(152.54467 0 -14.126122)
(152.29672 0 -13.960664)
(152.04402 -9.2169139e-16 -13.805406)
(151.79068 8.8945844e-16 -13.631395)
(151.53532 0 -13.454722)
(151.2796 8.045328e-16 -13.266187)
(151.02366 -7.5294103e-16 -13.070687)
(150.76852 -7.2813741e-16 -12.865485)
(150.51482 3.2139919e-17 -12.652047)
(150.26345 6.3869258e-16 -12.429697)
(150.01526 6.4769805e-16 -12.198985)
(149.77116 -1.2052957e-15 -11.959937)
(149.53206 1.1391852e-15 -11.712962)
(149.29889 -5.2556641e-16 -11.458393)
(149.0726 5.1722013e-16 -11.196728)
(148.85411 -9.856789e-16 -10.928503)
(148.64434 9.5427037e-16 -10.654359)
(148.44417 -8.8183512e-16 -10.375004)
(148.25443 4.2703557e-16 -10.091227)
(148.07592 0 -9.8038786)
(147.90937 2.4301345e-17 -9.513873)
(147.75544 -1.1578877e-17 -9.2221718)
(147.6147 -7.1860988e-16 -8.9297755)
(147.48766 7.1727377e-16 -8.6377099)
(147.37471 0 -8.3470152)
(147.27618 -6.152379e-16 -8.0587276)
(147.19229 3.6608098e-17 -7.7738707)
(147.12318 1.1217035e-15 -7.4934367)
(147.06888 -5.3559778e-16 -7.218376)
(147.02936 -5.1166813e-16 -6.9495828)
(147.0045 5.1931584e-16 -6.6878849)
(146.9941 -4.0863188e-16 -6.4340314)
(146.9979 8.3676153e-16 -6.188687)
(147.01557 -4.265317e-16 -5.9524219)
(147.04675 0 -5.7257095)
(147.09099 0 -5.5089206)
(147.14781 -2.3289867e-17 -5.3023236)
(147.21668 -7.1293547e-16 -5.1060979)
(147.29704 6.6074933e-16 -4.9203149)
(147.38837 6.1176712e-16 -4.744938)
(147.49012 -6.6853594e-20 -4.5798472)
(147.60165 -6.7258585e-16 -4.4248459)
(147.72224 0 -4.2796542)
(147.85119 3.4248864e-17 -4.143924)
(147.98783 -3.282394e-17 -4.0172374)
(148.13141 -6.2873176e-17 -3.8991558)
(148.28133 -4.51747e-16 -3.7891274)
(148.43662 9.5967718e-20 -3.6867113)
(148.59693 4.1525929e-16 -3.59113)
(148.7602 0 -3.502227)
(148.92711 -4.0747518e-16 -3.418531)
(149.09183 3.9116456e-16 -3.341182)
(149.26019 -4.6941065e-17 -3.266138)
(149.41464 3.8316652e-16 -3.1996731)
(149.58211 -6.9312538e-16 -3.1273691)
(149.70558 3.7493324e-16 -3.0763672)
(149.88764 3.2041879e-16 -2.9879944)
(149.93464 -1.2307228e-19 -2.9806668)
(150.19792 -3.2016037e-16 -2.8097382)
(150.00175 2.6854358e-16 -2.9858202)
(150.49643 -2.7159142e-16 -2.4755548)
(149.72402 -1.6730051e-17 -3.3285322)
(150.69597 1.6053008e-17 -1.6194828)
(149.30263 3.1264649e-17 -4.4261263)
(149.26696 1.3149233e-15 -20.668126)
(157.36544 -8.582783e-21 -14.153502)
(153.96957 -1.1456498e-15 -19.610492)
(155.55034 1.0612112e-15 -15.146131)
(154.20917 7.9341184e-18 -18.380061)
(154.67395 9.4931988e-16 -15.833086)
(154.01178 -1.8124199e-15 -17.486793)
(154.05865 1.3010847e-17 -16.154186)
(153.65422 8.1060581e-16 -16.8759)
(153.52842 1.1984343e-17 -16.199713)
(153.22393 -7.3869485e-16 -16.435705)
(153.02234 6.888914e-16 -16.069902)
(152.75279 0 -16.073288)
(152.51749 0 -15.83442)
(152.25669 -5.8824163e-16 -15.730136)
(152.00538 5.5809706e-16 -15.531603)
(151.74427 0 -15.374535)
(151.48485 1.5746593e-17 -15.179116)
(151.22161 -1.4941235e-17 -14.990876)
(150.95844 8.8116995e-16 -14.783721)
(150.6943 4.4582429e-19 -14.571941)
(150.43084 -7.961881e-16 -14.347515)
(150.16841 7.6995884e-16 -14.114696)
(149.9081 -7.437698e-16 -13.871224)
(149.6507 -7.3024652e-16 -13.618406)
(149.39721 6.9471611e-16 -13.355796)
(149.14859 2.0093593e-17 -13.083978)
(148.90583 3.8208976e-17 -12.80314)
(148.66995 3.6389016e-17 -12.513807)
(148.44195 -5.7156429e-16 -12.216472)
(148.22281 4.9478722e-16 -11.911785)
(148.0135 5.3461694e-16 -11.600455)
(147.81493 -4.7931503e-16 -11.283295)
(147.62799 -4.570505e-16 -10.961191)
(147.45347 8.7126029e-16 -10.635111)
(147.29209 -8.3071084e-16 -10.306084)
(147.1445 -3.7146437e-16 -9.975194)
(147.01125 7.5540326e-16 -9.6435661)
(146.89279 0 -9.3123548)
(146.78945 -6.8754054e-16 -8.9827243)
(146.70147 6.1487892e-16 -8.6558392)
(146.62898 0 -8.3328426)
(146.57202 -3.732021e-17 -8.014847)
(146.53052 0 -7.7029136)
(146.5043 6.8083495e-17 -7.3980447)
(146.49313 0 -7.1011661)
(146.49668 -3.100679e-17 -6.8131204)
(146.51457 4.9336624e-20 -6.5346549)
(146.54634 1.1318461e-16 -6.2664173)
(146.5915 0 -6.0089483)
(146.64951 0 -5.7626799)
(146.71982 0 -5.5279329)
(146.80182 0 -5.3049176)
(146.89488 0 -5.0937401)
(146.99834 8.6208665e-17 -4.894413)
(147.11161 4.1195103e-17 -4.7068377)
(147.23411 6.3044842e-16 -4.5308117)
(147.36517 -6.0314385e-16 -4.3660643)
(147.5041 -7.2129994e-17 -4.2122463)
(147.65017 0 -4.0689324)
(147.80272 6.6024657e-17 -3.9356389)
(147.96107 5.6880135e-16 -3.8118396)
(148.12458 -5.4465254e-16 -3.6969454)
(148.2925 0 -3.5903719)
(148.46421 -5.5516176e-17 -3.4914166)
(148.63845 -1.0634375e-16 -3.3995529)
(148.81464 4.0751566e-16 -3.3138149)
(148.98971 -3.907084e-16 -3.2341355)
(149.16456 4.6815178e-17 -3.1585421)
(149.33095 -3.5919148e-16 -3.0890765)
(149.49884 9.9278651e-20 -3.0192305)
(149.64135 2.8953744e-16 -2.9609668)
(149.80765 0 -2.8849078)
(149.89371 0 -2.8562816)
(150.10944 1.8321056e-17 -2.7200107)
(150.00796 1.7645669e-17 -2.8287398)
(150.38475 2.965546e-17 -2.4159707)
(149.78015 -1.145199e-16 -3.1133762)
(150.58166 1.1409188e-16 -1.602958)
(149.33569 -6.0402025e-17 -4.1976105)
(148.59311 3.1794654e-17 -22.41016)
(156.65412 9.4758475e-18 -15.646672)
(153.15181 1.1836571e-15 -21.287084)
(154.80581 4.6870292e-19 -16.654633)
(153.39138 -1.0344448e-15 -19.97594)
(153.87852 -9.7489459e-16 -17.341866)
(153.17873 9.2329786e-16 -19.014504)
(153.2237 -1.3629939e-17 -17.641666)
(152.79706 8.3987549e-16 -18.347211)
(152.65985 -7.5806897e-16 -17.648349)
(152.33912 -7.42064e-16 -17.855239)
(152.12334 1.3842823e-15 -17.468541)
(151.83961 -6.666833e-16 -17.439467)
(151.59021 1.978536e-17 -17.175904)
(151.31632 0 -17.038189)
(151.05207 0 -16.810312)
(150.77914 -5.4132628e-16 -16.618586)
(150.50849 4.9787224e-16 -16.389739)
(150.23521 0 -16.164949)
(149.96303 9.5767337e-16 -15.920971)
(149.69122 -9.0998313e-16 -15.670374)
(149.42149 4.4935093e-20 -15.406274)
(149.15436 0 -15.132361)
(148.89104 -4.7503793e-17 -14.84684)
(148.63247 -7.2267728e-16 -14.550918)
(148.37975 6.4438719e-16 -14.244394)
(148.13396 -6.9550359e-16 -13.92793)
(147.89619 5.8400737e-16 -13.60191)
(147.66751 -3.7050799e-17 -13.267014)
(147.44899 -3.5345672e-17 -12.923928)
(147.24164 -5.0465557e-16 -12.573492)
(147.04644 4.8053617e-16 -12.216617)
(146.86427 0 -11.854319)
(146.69596 0 -11.487689)
(146.54222 0 -11.117892)
(146.40369 -5.2894759e-17 -10.746149)
(146.28087 -5.0346915e-17 -10.373726)
(146.17414 8.1671563e-16 -10.001913)
(146.08377 -9.1511135e-17 -9.6320127)
(146.00991 -6.5502977e-16 -9.2653201)
(145.95258 4.1634826e-17 -8.9031063)
(145.91169 6.35863e-16 -8.5466002)
(145.88703 -5.3066953e-16 -8.1969763)
(145.87831 -5.7876357e-16 -7.8553355)
(145.88512 -6.902697e-17 -7.5226969)
(145.90701 9.8815654e-16 -7.1999828)
(145.94342 -3.7720852e-16 -6.8880129)
(145.99377 -5.9996557e-17 -6.5874953)
(146.05742 4.0112401e-16 -6.2990235)
(146.1337 -5.4716507e-16 -6.023072)
(146.22193 -4.179249e-16 -5.7599974)
(146.32141 3.9915523e-16 -5.5100384)
(146.43144 0 -5.2733189)
(146.55131 7.2823924e-16 -5.0498516)
(146.68028 -7.827657e-16 -4.839555)
(146.81769 0 -4.6422483)
(146.96291 6.3530891e-16 -4.4576443)
(147.11532 -9.8683501e-16 -4.2853771)
(147.27421 5.0798694e-16 -4.1250187)
(147.43887 5.5497811e-16 -3.9760647)
(147.60866 -1.3282195e-16 -3.837954)
(147.78294 -5.0761878e-16 -3.710084)
(147.96111 -4.8541715e-16 -3.5918034)
(148.14253 5.806031e-16 -3.4824379)
(148.32656 -4.4432912e-16 -3.381261)
(148.51226 1.0641025e-16 -3.2875851)
(148.69872 4.0707033e-16 -3.2005718)
(148.88392 -3.8959972e-16 -3.1196866)
(149.06701 5.5974364e-16 -3.043703)
(149.24341 0 -2.9729133)
(149.41585 0 -2.9041939)
(149.57154 0 -2.8422803)
(149.73288 0 -2.772794)
(149.84568 1.5085714e-16 -2.730587)
(150.02883 -2.893085e-16 -2.6208111)
(149.9988 3.4741879e-16 -2.6763267)
(150.29211 -3.6654929e-16 -2.3449784)
(149.81333 4.9737497e-16 -2.9031548)
(150.48421 -3.7330305e-16 -1.5717299)
(149.36251 -9.8335973e-20 -3.9289022)
(147.76772 1.3770276e-15 -24.184825)
(155.74728 5.2482672e-19 -17.169255)
(152.17574 -1.2217015e-15 -22.987402)
(153.89918 0 -18.198486)
(152.41249 -1.6465281e-17 -21.58919)
(152.91653 -3.1050115e-17 -18.882172)
(152.18044 0 -20.555811)
(152.219 -8.617103e-16 -19.153269)
(151.77061 8.423291e-16 -19.829167)
(151.61885 -8.2298902e-16 -19.112457)
(151.28158 7.5604144e-16 -19.281319)
(151.04967 -3.8947882e-20 -18.874042)
(150.75117 0 -18.8064)
(150.48656 6.2511951e-16 -18.515792)
(150.19915 -6.1205747e-16 -18.33977)
(149.92156 0 -18.078866)
(149.63682 5.5206413e-16 -17.847936)
(149.35522 -5.5689384e-16 -17.581364)
(149.07254 4.9822433e-16 -17.315455)
(148.79235 4.4412925e-16 -17.030083)
(148.51427 -8.7155392e-16 -16.736033)
(148.24005 -2.6713453e-17 -16.427608)
(147.97045 5.0908643e-17 -16.107977)
(147.70678 -9.7257535e-20 -15.775839)
(147.45015 0 -15.432348)
(147.20176 -8.7984712e-20 -15.077586)
(146.96279 0 -14.712347)
(146.73443 3.9700241e-17 -14.337247)
(146.5178 0 -13.953167)
(146.31398 3.5910989e-17 -13.561031)
(146.124 0 -13.161907)
(145.94879 0 -12.756946)
(145.78917 6.2154406e-17 -12.347396)
(145.64586 0 -11.934575)
(145.51946 -4.5088478e-16 -11.519866)
(145.41041 4.8315453e-16 -11.10469)
(145.31903 0 -10.690497)
(145.24549 -4.8730847e-17 -10.278737)
(145.18984 -6.5089783e-16 -9.8708473)
(145.15195 6.2038208e-16 -9.4682325)
(145.1316 -6.7598524e-16 -9.0722432)
(145.12843 7.2511597e-16 -8.6841614)
(145.14196 -7.6828984e-16 -8.3051853)
(145.17162 5.8615931e-16 -7.9364145)
(145.21678 -1.3985737e-16 -7.5788409)
(145.27672 6.6631314e-17 -7.2333389)
(145.35067 -1.2713805e-16 -6.9006597)
(145.43783 1.2142304e-16 -6.5814277)
(145.53738 -4.6319794e-16 -6.2761392)
(145.64849 9.9457549e-16 -5.9851622)
(145.77033 -5.79948e-20 -5.7087403)
(145.90209 -5.0343284e-16 -5.446995)
(146.04296 1.9226511e-16 -5.1999327)
(146.19217 0 -4.9674502)
(146.34894 0 -4.7493442)
(146.51255 0 -4.5453303)
(146.68235 -6.3896603e-16 -4.3550239)
(146.85773 4.5788678e-16 -4.177956)
(147.03802 1.4573762e-16 -4.0136047)
(147.22254 -1.3928311e-16 -3.8613843)
(147.41067 1.3303107e-16 -3.7206525)
(147.60184 -7.6280487e-16 -3.5907327)
(147.79547 9.7200101e-16 -3.4709074)
(147.99102 -1.0451063e-15 -3.3604318)
(148.18791 9.9898508e-16 -3.2585303)
(148.38537 -2.1237019e-16 -3.1644245)
(148.58248 -6.0882097e-16 -3.0772811)
(148.77766 0 -2.9963601)
(148.96947 -1.8556126e-16 -2.9206824)
(149.15489 1.7753296e-16 -2.8498036)
(149.33351 0 -2.7820637)
(149.49897 0 -2.7186751)
(149.6601 -1.5558811e-16 -2.6533501)
(149.79003 -2.9794395e-16 -2.6016491)
(149.95396 -2.8525386e-16 -2.5124467)
(149.97534 6.8380572e-17 -2.5254286)
(150.20776 -6.5545851e-17 -2.2606897)
(149.82644 2.5167613e-16 -2.6945695)
(150.39492 -6.0159106e-17 -1.5315122)
(149.35428 2.2732061e-16 -3.678265)
(146.77926 1.3754223e-15 -25.989867)
(154.65979 -1.2556093e-15 -18.723354)
(151.02712 1.8807647e-17 -24.712213)
(152.81613 0 -19.776739)
(151.25888 1.6725308e-17 -23.217651)
(151.77469 1.0423825e-15 -20.450679)
(151.0039 -9.2729566e-16 -22.106574)
(151.03205 -5.6610201e-17 -20.683148)
(150.56248 0 -21.315789)
(150.3936 -8.1288701e-16 -20.584163)
(150.03965 7.1830089e-17 -20.706037)
(149.79015 2.238759e-17 -20.276834)
(149.47656 6.4912548e-16 -20.164277)
(149.19614 0 -19.842956)
(148.89517 6.2382447e-16 -19.623268)
(148.60435 -1.1469928e-15 -19.324615)
(148.30832 1.1242999e-15 -19.049301)
(148.01663 -5.0042845e-16 -18.739844)
(147.72584 0 -18.42757)
(147.43934 3.0092991e-17 -18.095492)
(147.15716 -9.1642203e-16 -17.752705)
(146.88112 1.7418217e-15 -17.394681)
(146.6122 -1.7077942e-15 -17.024163)
(146.35185 8.8566416e-16 -16.640352)
(146.10131 -7.4912925e-16 -16.244434)
(145.86191 7.1215669e-16 -15.836805)
(145.63493 0 -15.418452)
(145.42158 -6.0466441e-16 -14.990276)
(145.22302 6.1367131e-16 -14.553411)
(145.04033 7.3113188e-17 -14.109061)
(144.87446 6.9596566e-17 -13.658563)
(144.72625 -5.9580517e-16 -13.203341)
(144.59641 9.4530218e-16 -12.744902)
(144.48546 1.2979988e-19 -12.284807)
(144.39381 -9.1441504e-16 -11.824665)
(144.32168 5.4442119e-16 -11.366095)
(144.26911 0 -10.910716)
(144.236 3.952471e-16 -10.46012)
(144.22209 -4.7077394e-16 -10.01585)
(144.22696 0 -9.5793814)
(144.25007 -6.8395671e-16 -9.1521033)
(144.29076 8.1659123e-17 -8.7353027)
(144.34826 5.4354449e-16 -8.3301511)
(144.42171 0 -7.9376944)
(144.51021 1.4110458e-16 -7.5588444)
(144.6128 6.7314841e-16 -7.1943749)
(144.72848 -5.1351227e-16 -6.8449188)
(144.85625 1.2108053e-19 -6.5109686)
(144.99513 -4.6700102e-16 -6.1928795)
(145.14413 8.9095376e-16 -5.8908729)
(145.30231 -8.3762795e-20 -5.6050431)
(145.46876 -1.0135159e-16 -5.3353634)
(145.6426 -1.9331833e-16 -5.0816955)
(145.82302 1.8456939e-16 -4.8437971)
(146.00921 1.7610968e-16 -4.6213308)
(146.20045 6.719478e-16 -4.4138846)
(146.39606 -6.4147663e-16 -4.2209657)
(146.59547 0 -4.0420047)
(146.79807 0 -3.8763745)
(147.00321 1.3945355e-16 -3.7234073)
(147.21034 5.3258041e-16 -3.5823811)
(147.41893 -2.5439829e-16 -3.4525476)
(147.62849 -4.85541e-16 -3.3331266)
(147.83852 -2.3175227e-16 -3.2233126)
(148.04855 2.2146451e-16 -3.122279)
(148.25794 4.2294345e-16 -3.0291858)
(148.46584 8.078795e-16 -2.9431706)
(148.67094 -3.8594212e-16 -2.8633923)
(148.87165 3.6858424e-16 -2.7889283)
(149.06558 -7.0447832e-16 -2.7190336)
(149.25111 -3.3650571e-16 -2.6525537)
(149.42464 3.217059e-16 -2.5892024)
(149.58847 1.5371411e-16 -2.5264818)
(149.73061 1.4696358e-16 -2.4691457)
(149.88175 -2.8105461e-16 -2.3941298)
(149.93903 1.3444197e-16 -2.3753502)
(150.12836 1.2861824e-16 -2.1672355)
(149.82929 -4.9286093e-16 -2.4891683)
(150.3133 2.9449304e-16 -1.4808678)
(149.332 0 -3.4185016)
(145.61033 2.2161648e-17 -27.826388)
(153.46292 -1.2377203e-15 -20.308573)
(149.69551 3.7734151e-17 -26.449683)
(151.5449 1.1473783e-15 -21.380286)
(149.91993 -1.0898832e-15 -24.848779)
(150.44129 1.0601898e-15 -22.037693)
(149.63803 -6.088286e-17 -23.655472)
(149.65115 2.8774352e-17 -22.220709)
(149.16114 0 -22.796069)
(148.97231 8.2730525e-16 -22.052038)
(148.6015 -8.8168942e-16 -22.117887)
(148.33293 0 -21.664573)
(148.00393 7.4907114e-16 -21.500504)
(147.70721 -6.6846828e-16 -21.143904)
(147.39276 6.3472157e-16 -20.87467)
(147.08911 -6.3969919e-16 -20.53266)
(146.78267 5.004155e-16 -20.207068)
(146.48225 -1.0860345e-15 -19.848701)
(146.18521 5.1562421e-16 -19.484028)
(145.89484 -4.9014985e-16 -19.09912)
(145.61157 5.237566e-16 -18.701557)
(145.3373 -5.5391131e-17 -18.287949)
(145.07326 -5.2651327e-17 -17.86074)
(144.82102 -4.9926162e-17 -17.419659)
(144.58197 0 -16.966014)
(144.35752 4.514471e-17 -16.500572)
(144.149 6.8795187e-16 -16.024585)
(143.95765 -7.3580263e-16 -15.539292)
(143.78458 5.4463809e-16 -15.046139)
(143.63078 -1.4785701e-16 -14.546656)
(143.49709 -6.3381616e-16 -14.042489)
(143.38418 -1.5293015e-19 -13.53536)
(143.29251 -5.1052845e-16 -13.02705)
(143.22238 4.8586581e-16 -12.519369)
(143.1739 1.1577685e-16 -12.014141)
(143.14695 -1.1000819e-16 -11.513165)
(143.14127 0 -11.018202)
(143.15639 -3.9941683e-16 -10.530939)
(143.19169 4.7541931e-16 -10.052979)
(143.2464 -7.2467564e-16 -9.5858124)
(143.31963 8.6308587e-16 -9.1308085)
(143.41037 -1.6430616e-16 -8.6891952)
(143.51754 7.8318163e-16 -8.2620543)
(143.64001 -1.3436633e-15 -7.8503141)
(143.77658 -1.4226721e-16 -7.4547454)
(143.92606 4.0689243e-16 -7.0759631)
(144.08725 0 -6.7144282)
(144.25899 1.2337915e-16 -6.3704526)
(144.44012 0 -6.0442066)
(144.62957 -2.2402508e-16 -5.7357269)
(144.82628 0 -5.4449259)
(145.02929 -4.0714741e-16 -5.1716021)
(145.23769 1.9418482e-16 -4.9154501)
(145.45063 -3.7022708e-16 -4.6760714)
(145.66735 -1.7648417e-16 -4.4529842)
(145.88712 0 -4.2456368)
(146.10928 0 -4.0534234)
(146.33332 0 -3.8756695)
(146.55869 -5.8441891e-16 -3.7116489)
(146.78481 2.7903138e-16 -3.5606086)
(147.0112 1.6635732e-19 -3.4217541)
(147.23739 5.0762907e-16 -3.29427)
(147.46296 0 -3.1773206)
(147.68752 6.929562e-16 -3.0700492)
(147.91066 -6.6131654e-16 -2.9715844)
(148.13187 -2.1017531e-16 -2.881041)
(148.35042 -2.0055588e-16 -2.7975219)
(148.56518 7.6610186e-16 -2.7201286)
(148.77462 -3.6560885e-16 -2.647933)
(148.97661 -5.2320538e-16 -2.5800684)
(149.1691 2.1948102e-19 -2.5154993)
(149.34951 2.1268409e-19 -2.4534323)
(149.51718 1.5170769e-15 -2.3927402)
(149.66778 -5.7945796e-16 -2.3328223)
(149.8124 5.5315677e-16 -2.2670135)
(149.89594 0 -2.2251871)
(150.05072 5.0455256e-16 -2.064739)
(149.8222 -4.827963e-16 -2.2875531)
(150.23281 0 -1.4207009)
(149.29581 2.1401419e-16 -3.1674808)
(144.25182 1.4157887e-15 -29.692183)
(152.07838 -2.5980177e-15 -21.915979)
(148.17593 -3.9471272e-17 -28.191262)
(150.07818 -7.033617e-19 -23.00458)
(148.38806 1.1073178e-15 -26.475574)
(148.9072 -1.0460838e-15 -23.63663)
(148.07321 2.0117509e-15 -25.194965)
(148.06579 -9.3695772e-16 -23.757417)
(147.55552 0 -24.26118)
(147.34347 0 -23.505594)
(146.95523 9.9635314e-17 -23.506082)
(146.66596 -7.5579023e-16 -23.024787)
(146.32113 7.6107233e-16 -22.80198)
(146.00775 0 -22.404036)
(145.68019 0 -22.078445)
(145.36454 6.1206983e-16 -21.686164)
(145.04915 -5.0810366e-16 -21.303335)
(144.74212 0 -20.888883)
(144.44161 5.2377037e-16 -20.464743)
(144.15086 -4.9715663e-16 -20.019891)
(143.8707 -5.8972394e-17 -19.560637)
(143.60315 5.602841e-17 -19.08469)
(143.34965 5.3239707e-17 -18.594353)
(143.11188 0 -18.089923)
(142.89135 0 -17.572934)
(142.6895 0 -17.044587)
(142.50765 0 -16.506484)
(142.34697 0 -15.960256)
(142.20847 7.0839195e-16 -15.407719)
(142.09295 -5.2401328e-16 -14.850767)
(142.00101 0 -14.291384)
(141.93305 6.0961695e-16 -13.7316)
(141.88921 8.8224296e-20 -13.173467)
(141.86944 6.3077038e-20 -12.61903)
(141.87344 -9.3341234e-16 -12.070291)
(141.9007 4.4428616e-16 -11.529186)
(141.95052 5.2872727e-16 -10.99756)
(142.02203 -4.025693e-16 -10.477133)
(142.11419 -3.8323742e-16 -9.9694951)
(142.22583 -3.6484585e-16 -9.4760774)
(142.35567 -1.7350263e-16 -8.9981475)
(142.50237 6.6185719e-16 -8.5367994)
(142.66452 -1.5769153e-16 -8.0929486)
(142.8407 -4.5030654e-16 -7.6673343)
(143.02948 1.4302366e-16 -7.2605204)
(143.22944 6.8118048e-16 -6.8729024)
(143.43923 -2.5967801e-16 -6.5047158)
(143.65752 2.4734078e-16 -6.1560458)
(143.88308 -2.3559907e-16 -5.8268389)
(144.11473 2.2444864e-16 -5.5169149)
(144.3514 0 -5.2259789)
(144.59209 -1.4783002e-19 -4.9536346)
(144.83589 -1.943063e-16 -4.6993958)
(145.082 1.8520201e-16 -4.462698)
(145.32966 -3.5325569e-16 -4.2429097)
(145.57822 0 -4.0393412)
(145.82708 -3.2094513e-16 -3.8512695)
(146.07576 3.0572762e-16 -3.677916)
(146.32383 -1.1665131e-15 -3.5184702)
(146.57081 5.5625423e-16 -3.3720941)
(146.81626 5.3004854e-16 -3.2379314)
(147.05983 -2.5276695e-16 -3.1151079)
(147.30116 4.8179015e-16 -3.0027419)
(147.53995 -9.1882529e-16 -2.8999363)
(147.77588 -4.3789514e-16 -2.8057853)
(148.00855 8.3526894e-16 -2.7193718)
(148.23738 1.0019139e-19 -2.6397703)
(148.46139 3.7961322e-16 -2.5660471)
(148.67916 3.6188084e-16 -2.4972577)
(148.88872 0 -2.4324726)
(149.08794 9.8650742e-16 -2.3706538)
(149.27445 -1.8817396e-15 -2.3109195)
(149.44652 1.0587135e-19 -2.252319)
(149.60295 8.5530054e-16 -2.1925026)
(149.74411 -1.359444e-15 -2.1325481)
(149.84647 2.2447394e-19 -2.0747285)
(149.9749 2.4739257e-16 -1.9527513)
(149.80813 -4.7204108e-16 -2.0896635)
(150.15421 1.1258848e-15 -1.355315)
(149.26024 -2.0784295e-16 -2.9177738)
(142.695 0 -31.584636)
(150.49461 -1.3217627e-15 -23.544355)
(146.45539 1.2641171e-15 -29.936548)
(148.40206 3.7158566e-17 -24.647854)
(146.64946 1.1611565e-15 -28.094178)
(147.15753 -3.2466749e-17 -25.242649)
(146.29453 -1.0062159e-15 -26.718836)
(146.26059 8.9328842e-16 -25.285004)
(145.73003 -9.0173402e-16 -25.70223)
(145.49149 -9.082056e-16 -24.933489)
(145.08519 -3.911249e-19 -24.858607)
(144.77389 7.6702966e-16 -24.343241)
(144.41307 1.3907488e-19 -24.053425)
(144.08323 -6.9002775e-16 -23.606225)
(143.74352 6.5404077e-16 -23.216167)
(143.41757 7.7721345e-17 -22.765127)
(143.0957 6.6292206e-16 -22.31678)
(142.78537 -5.5880691e-16 -21.837721)
(142.48555 -5.3077819e-16 -21.345866)
(142.19947 4.4053225e-16 -20.832883)
(141.92833 -4.7848583e-16 -20.304108)
(141.67426 4.5415604e-16 -19.75833)
(141.43891 -4.3159648e-16 -19.197886)
(141.22401 3.0714479e-16 -18.623694)
(141.03109 0 -18.037639)
(140.86157 7.4020123e-16 -17.441422)
(140.71665 -7.0314934e-16 -16.837074)
(140.59733 -6.6851415e-16 -16.226678)
(140.50437 -1.7185144e-19 -15.612462)
(140.43827 6.0392038e-16 -14.996705)
(140.39927 5.7429632e-16 -14.381734)
(140.38735 -5.4599742e-16 -13.769875)
(140.40221 1.2998555e-16 -13.163419)
(140.44331 -4.9387683e-16 -12.564591)
(140.50987 8.2222288e-16 -11.975511)
(140.60088 -4.4690763e-16 -11.398175)
(140.71514 -7.4417246e-16 -10.834421)
(140.85129 4.0460176e-16 -10.285913)
(141.00786 0 -9.754129)
(141.18324 -1.8337362e-16 -9.2403453)
(141.37578 -6.9746551e-16 -8.7456351)
(141.58379 6.641059e-16 -8.2708665)
(141.80556 7.8999676e-16 -7.8167073)
(142.03942 -7.5255391e-16 -7.3836317)
(142.28373 -2.8628606e-16 -6.9719298)
(142.53693 6.8252963e-16 -6.5817209)
(142.79751 2.597366e-16 -6.2129671)
(143.06408 2.4762765e-16 -5.865488)
(143.33534 2.3576324e-16 -5.5389755)
(143.61012 -1.7401508e-19 -5.2330096)
(143.88734 -6.4186328e-16 -4.9470731)
(144.16603 6.1113224e-16 -4.6805647)
(144.44533 3.8799097e-16 -4.432813)
(144.72448 -7.3983046e-16 -4.2030873)
(145.00284 3.5223959e-16 -3.9906093)
(145.27982 -6.7119819e-16 -3.7945609)
(145.55491 1.5988516e-15 -3.6141026)
(145.82772 -3.0486139e-16 -3.4483664)
(146.09791 -2.903458e-16 -3.2964674)
(146.36513 -2.7654372e-16 -3.1574945)
(146.62903 0 -3.0305398)
(146.88933 -7.5327231e-16 -2.914684)
(147.1458 -4.7820217e-16 -2.8090111)
(147.39819 1.3674909e-15 -2.712596)
(147.64629 4.3414441e-16 -2.6245108)
(147.88981 -4.1362023e-16 -2.5438195)
(148.12829 -1.5760723e-15 -2.4695791)
(148.36091 -3.7512705e-16 -2.4008369)
(148.58641 3.5769142e-16 -2.3366369)
(148.80295 0 -2.2760092)
(149.00839 9.729667e-16 -2.2179114)
(149.20032 -6.1800333e-16 -2.1614758)
(149.37679 8.8280253e-16 -2.1054512)
(149.53727 -8.4070593e-16 -2.0476488)
(149.67735 1.8663291e-19 -1.9914527)
(149.79246 5.0865789e-16 -1.9244206)
(149.90054 2.4216607e-16 -1.8324111)
(149.78861 0 -1.8969552)
(150.07596 -2.1969209e-16 -1.2864089)
(149.22168 0 -2.6733658)
(140.92407 -1.4806942e-15 -33.502173)
(148.69372 -4.1987007e-17 -25.19131)
(144.5165 -4.0206658e-17 -31.680064)
(146.49777 -3.7690618e-17 -26.305818)
(144.68602 -3.568802e-17 -29.697346)
(145.17333 -1.0812036e-15 -26.847797)
(144.28318 1.0861641e-15 -28.217948)
(144.21665 6.0396285e-17 -26.791905)
(143.66575 9.735885e-16 -27.107197)
(143.39774 -7.5861962e-16 -26.320889)
(142.97299 -1.0270374e-16 -26.159866)
(142.63892 8.2741276e-16 -25.601883)
(142.26259 -7.8340784e-16 -25.235511)
(141.91742 0 -24.729098)
(141.56764 0 -24.264933)
(141.23443 -7.0732679e-16 -23.744916)
(140.91012 4.4696799e-16 -23.221281)
(140.60157 0 -22.667673)
(140.30859 -6.0403133e-16 -22.098626)
(140.03438 1.0182618e-15 -21.508281)
(139.78049 2.7136857e-19 -20.901348)
(139.54914 -8.0259609e-16 -20.277689)
(139.34206 4.3539439e-16 -19.639876)
(139.16099 -7.2393788e-16 -18.989511)
(139.00737 8.8343243e-16 -18.328962)
(138.88243 -9.3379973e-17 -17.660497)
(138.78712 0 -16.986646)
(138.72212 0 -16.309981)
(138.68776 4.7921965e-16 -15.633158)
(138.68407 7.8317629e-20 -14.958836)
(138.71079 1.4454481e-16 -14.289651)
(138.76731 -1.0970718e-15 -13.628168)
(138.85276 5.2173834e-16 -12.976842)
(138.96599 -4.9564359e-16 -12.337986)
(139.10563 5.8924604e-16 -11.713734)
(139.2701 -4.4807774e-16 -11.106022)
(139.45764 6.390711e-16 -10.516567)
(139.6664 0 -9.9468525)
(139.89441 0 -9.3981264)
(140.13966 3.668125e-16 -8.8713954)
(140.40016 -1.7464251e-16 -8.367434)
(140.67388 -8.3024876e-16 -7.8867901)
(140.9589 -1.5788236e-16 -7.4297984)
(141.25334 1.0529926e-15 -6.9965973)
(141.55542 2.8635669e-16 -6.5871438)
(141.86348 -1.0902481e-15 -6.2012331)
(142.17597 0 -5.8385168)
(142.49147 -7.4077434e-16 -5.4985226)
(142.80871 4.7044248e-16 -5.1806704)
(143.12655 2.2399461e-16 -4.8842912)
(143.44397 4.2615286e-16 -4.6086416)
(143.76008 -8.1204078e-16 -4.3529183)
(144.07414 7.7304389e-16 -4.116271)
(144.38548 -1.1047075e-15 -3.8978129)
(144.69356 3.5064271e-16 -3.6966308)
(144.99792 3.3388167e-16 -3.5117926)
(145.29816 0 -3.342359)
(145.59401 0 -3.1873871)
(145.88524 5.7645995e-16 -3.0459286)
(146.17161 5.4883477e-16 -2.9170211)
(146.45289 -5.2299245e-16 -2.7997172)
(146.72892 4.9745567e-16 -2.6930689)
(146.99953 -4.7387915e-16 -2.5961388)
(147.26458 4.5097241e-16 -2.5079889)
(147.52394 -1.2887182e-15 -2.4276822)
(147.77743 -8.1764235e-16 -2.3542776)
(148.0247 1.1677679e-15 -2.2868269)
(148.26512 3.7043332e-16 -2.2243737)
(148.49755 0 -2.1659578)
(148.72032 6.7098508e-16 -2.1105856)
(148.93132 -6.3874587e-16 -2.0572423)
(149.12805 0 -2.0050421)
(149.30864 -5.7835006e-16 -1.9524323)
(149.47187 -5.5030691e-16 -1.8981651)
(149.61232 0 -1.8446392)
(149.73524 0 -1.7742395)
(149.82849 0 -1.7048617)
(149.76519 -4.513079e-16 -1.7106225)
(150.00219 0 -1.2148238)
(149.1921 -7.7526343e-16 -2.4313874)
(138.91959 -4.7074071e-17 -35.442508)
(146.65545 0 -26.853257)
(142.33921 -1.2659577e-15 -33.415084)
(144.34388 1.2663504e-15 -27.97226)
(142.47678 0 -31.275948)
(142.93276 -1.0988869e-15 -28.441384)
(142.01731 9.7324625e-16 -29.6806)
(141.91211 0 -28.263191)
(141.34076 8.7181643e-16 -28.460646)
(141.04082 -9.3438538e-16 -27.649006)
(140.59762 5.1965788e-17 -27.389985)
(140.24095 7.3985623e-16 -26.77803)
(139.85063 -9.3007583e-17 -26.323878)
(139.49268 -6.1885003e-16 -25.745984)
(139.13656 5.8689139e-16 -25.196233)
(138.80112 8.0070771e-17 -24.595114)
(138.48063 -5.2710448e-16 -23.984779)
(138.18149 0 -23.345226)
(137.90421 6.757674e-17 -22.688327)
(137.65202 1.9275218e-16 -22.010515)
(137.4267 -1.2203175e-16 -21.316236)
(137.23046 -2.3107019e-16 -20.606457)
(137.06501 0 -19.884189)
(136.9319 1.0418934e-16 -19.151805)
(136.83232 -9.8515333e-17 -18.412256)
(136.76712 9.3503726e-17 -17.668437)
(136.73679 0 -16.923416)
(136.74145 -1.6908545e-16 -16.180251)
(136.78084 -4.8108053e-16 -15.441998)
(136.85432 4.5635671e-16 -14.711631)
(136.9609 -1.4435299e-16 -13.992011)
(137.09927 0 -13.285829)
(137.26783 3.9148361e-16 -12.595575)
(137.46473 -6.1998228e-16 -11.923503)
(137.68793 1.1820914e-16 -11.271612)