/*--------------------------------*- C++ -*----------------------------------*\
| =========                 |                                                 |
| \\      /  F ield         | OpenFOAM: The Open Source CFD Toolbox           |
|  \\    /   O peration     | Version:  2312                                  |
|   \\  /    A nd           | Website:  www.openfoam.com                      |
|    \\/     M anipulation  |                                                 |
\*---------------------------------------------------------------------------*/
FoamFile
{
    version     2.0;
    format      ascii;
    arch        "LSB;label=32;scalar=64";
    class       volVectorField;
    location    "0";
    object      U;
}
// * * * * * * * * * * * * * * * * * * * * * * * * * * * * * * * * * * * * * //

dimensions      [0 1 -1 0 0 0 0];

internalField   nonuniform List<vector> 
9000
(
(0.133559 0.0321354 0)
(0.102248 0.0151721 0)
(0.0582729 0.00492306 0)
(0.0375996 0.00226758 0)
(0.0263882 0.00113715 0)
(0.0196608 0.00061692 0)
(0.0153845 0.000364397 0)
(0.0125466 0.000228904 0)
(0.0106078 0.00014942 0)
(0.00926108 9.97047e-05 0)
(0.00831775 6.72125e-05 0)
(0.00765535 4.53903e-05 0)
(0.00719105 3.0513e-05 0)
(0.00686728 2.03066e-05 0)
(0.00664331 1.3306e-05 0)
(0.00649003 8.53025e-06 0)
(0.00638655 5.30564e-06 0)
(0.00631782 3.16182e-06 0)
(0.00627308 1.7677e-06 0)
(0.00624464 8.89483e-07 0)
(0.00622705 3.62325e-07 0)
(0.00621648 7.0565e-08 0)
(0.00621028 -6.63094e-08 0)
(0.00620663 -1.03753e-07 0)
(0.0062043 -7.94655e-08 0)
(0.0062025 -1.86976e-08 0)
(0.00620071 6.1903e-08 0)
(0.00619863 1.51499e-07 0)
(0.00619611 2.43043e-07 0)
(0.00619311 3.31807e-07 0)
(0.00618966 4.14305e-07 0)
(0.00618588 4.87484e-07 0)
(0.00618196 5.48074e-07 0)
(0.00617815 5.9203e-07 0)
(0.00617485 6.13977e-07 0)
(0.00617254 6.0657e-07 0)
(0.00617192 5.59662e-07 0)
(0.00617391 4.59075e-07 0)
(0.0061798 2.84582e-07 0)
(0.00619138 6.1843e-09 0)
(0.0062112 -4.23729e-07 0)
(0.00624305 -1.08947e-06 0)
(0.00629278 -2.16545e-06 0)
(0.00637002 -4.07226e-06 0)
(0.00649206 -7.9604e-06 0)
(0.00669421 -1.77147e-05 0)
(0.00705451 -4.83923e-05 0)
(0.00773156 -0.000136037 0)
(0.00953824 -0.000556466 0)
(0.0140677 -0.00405101 0)
(0.198716 0.0764879 0)
(0.175996 0.0554324 0)
(0.125133 0.0311822 0)
(0.0913318 0.0178514 0)
(0.0687179 0.0106661 0)
(0.0534272 0.0067072 0)
(0.0429358 0.00440719 0)
(0.0356248 0.00298831 0)
(0.0304661 0.00206742 0)
(0.0267983 0.00144677 0)
(0.0241815 0.0010176 0)
(0.0223145 0.000716 0)
(0.0209862 0.00050216 0)
(0.0200462 0.000350009 0)
(0.0193859 0.000241812 0)
(0.0189262 0.000165171 0)
(0.0186099 0.000111249 0)
(0.0183951 7.3675e-05 0)
(0.0182514 4.78247e-05 0)
(0.0181569 3.03351e-05 0)
(0.0180959 1.87622e-05 0)
(0.0180571 1.13362e-05 0)
(0.0180327 6.78202e-06 0)
(0.0180172 4.18683e-06 0)
(0.0180068 2.90168e-06 0)
(0.0179991 2.46786e-06 0)
(0.0179923 2.56203e-06 0)
(0.0179856 2.95515e-06 0)
(0.0179782 3.48157e-06 0)
(0.0179702 4.01563e-06 0)
(0.0179616 4.45347e-06 0)
(0.0179527 4.69822e-06 0)
(0.017944 4.64715e-06 0)
(0.0179366 4.17897e-06 0)
(0.0179316 3.13978e-06 0)
(0.0179306 1.32532e-06 0)
(0.0179358 -1.54398e-06 0)
(0.0179504 -5.86082e-06 0)
(0.0179785 -1.21924e-05 0)
(0.018026 -2.13859e-05 0)
(0.0181013 -3.47627e-05 0)
(0.0182168 -5.44999e-05 0)
(0.0183912 -8.44434e-05 0)
(0.0186548 -0.000131977 0)
(0.0190584 -0.000212652 0)
(0.0196936 -0.000362654 0)
(0.0207342 -0.000674577 0)
(0.0225028 -0.00139395 0)
(0.0259028 -0.0032134 0)
(0.0321319 -0.00885984 0)
(0.196144 0.0784492 0)
(0.192645 0.0771628 0)
(0.156774 0.0545394 0)
(0.124825 0.0362936 0)
(0.099253 0.0240768 0)
(0.0800775 0.0162454 0)
(0.0660089 0.0111812 0)
(0.0557545 0.00782073 0)
(0.0482901 0.00553045 0)
(0.0428606 0.00393484 0)
(0.0389176 0.00280538 0)
(0.0360629 0.00199771 0)
(0.0340056 0.00141706 0)
(0.032532 0.000998984 0)
(0.0314845 0.000698476 0)
(0.0307466 0.000483401 0)
(0.030232 0.000330499 0)
(0.0298774 0.000222774 0)
(0.0296362 0.000147755 0)
(0.0294744 9.62793e-05 0)
(0.0293674 6.1626e-05 0)
(0.0292974 3.88834e-05 0)
(0.0292518 2.44799e-05 0)
(0.0292219 1.58337e-05 0)
(0.0292015 1.10895e-05 0)
(0.0291863 8.9201e-06 0)
(0.0291737 8.37716e-06 0)
(0.0291621 8.77783e-06 0)
(0.0291503 9.6192e-06 0)
(0.0291382 1.05124e-05 0)
(0.0291259 1.11306e-05 0)
(0.029114 1.11665e-05 0)
(0.0291034 1.0294e-05 0)
(0.0290956 8.13007e-06 0)
(0.0290928 4.1918e-06 0)
(0.0290978 -2.15837e-06 0)
(0.0291144 -1.17899e-05 0)
(0.0291479 -2.59206e-05 0)
(0.0292054 -4.63041e-05 0)
(0.0292969 -7.55452e-05 0)
(0.0294365 -0.000117661 0)
(0.0296447 -0.000179132 0)
(0.029952 -0.000270968 0)
(0.0304054 -0.00041303 0)
(0.0310799 -0.000643447 0)
(0.0320986 -0.00104021 0)
(0.033667 -0.00177202 0)
(0.036104 -0.00321285 0)
(0.0399858 -0.00618762 0)
(0.0456416 -0.0127245 0)
(0.178093 0.0688587 0)
(0.185995 0.0862218 0)
(0.165929 0.0718213 0)
(0.141556 0.0533539 0)
(0.118359 0.0382405 0)
(0.0990713 0.0272266 0)
(0.0839071 0.0194469 0)
(0.0723102 0.0139602 0)
(0.0635735 0.0100598 0)
(0.0570544 0.00726077 0)
(0.0522259 0.00523676 0)
(0.0486738 0.00376607 0)
(0.0460791 0.0026954 0)
(0.044198 0.0019165 0)
(0.0428456 0.00135157 0)
(0.041882 0.000943912 0)
(0.0412025 0.000651792 0)
(0.0407284 0.000444335 0)
(0.0404015 0.000298639 0)
(0.0401787 0.000197724 0)
(0.0400287 0.000129037 0)
(0.0399285 8.33321e-05 0)
(0.0398618 5.38398e-05 0)
(0.039817 3.56294e-05 0)
(0.0397858 2.51307e-05 0)
(0.0397628 1.97683e-05 0)
(0.0397442 1.76839e-05 0)
(0.0397277 1.75248e-05 0)
(0.039712 1.82823e-05 0)
(0.0396968 1.91662e-05 0)
(0.0396822 1.95048e-05 0)
(0.0396689 1.86624e-05 0)
(0.0396585 1.59634e-05 0)
(0.0396531 1.06173e-05 0)
(0.0396555 1.63244e-06 0)
(0.0396698 -1.22935e-05 0)
(0.0397014 -3.29266e-05 0)
(0.0397576 -6.27261e-05 0)
(0.0398481 -0.000105206 0)
(0.0399867 -0.000165533 0)
(0.0401923 -0.000251548 0)
(0.0404917 -0.000375606 0)
(0.0409236 -0.000557976 0)
(0.0415452 -0.000833391 0)
(0.0424414 -0.00126395 0)
(0.0437389 -0.00196493 0)
(0.0456209 -0.00315575 0)
(0.0483118 -0.00525229 0)
(0.0520455 -0.00898751 0)
(0.0566218 -0.0155829 0)
(0.157384 0.0590291 0)
(0.169968 0.0875856 0)
(0.161956 0.0820365 0)
(0.146202 0.0663658 0)
(0.127951 0.0506652 0)
(0.111005 0.0377722 0)
(0.0966674 0.0278949 0)
(0.0851231 0.0205197 0)
(0.0760943 0.015059 0)
(0.0691657 0.0110232 0)
(0.0639213 0.00804091 0)
(0.0599955 0.00583806 0)
(0.057086 0.00421364 0)
(0.0549499 0.00301949 0)
(0.0533964 0.00214568 0)
(0.0522776 0.00151015 0)
(0.05148 0.00105142 0)
(0.0509173 0.000723326 0)
(0.0505246 0.000491231 0)
(0.0502535 0.00032922 0)
(0.0500682 0.000217971 0)
(0.0499423 0.000143153 0)
(0.0498569 9.41961e-05 0)
(0.0497984 6.33538e-05 0)
(0.0497572 4.49769e-05 0)
(0.0497266 3.49606e-05 0)
(0.0497023 3.03184e-05 0)
(0.0496815 2.88558e-05 0)
(0.0496626 2.89188e-05 0)
(0.0496451 2.91967e-05 0)
(0.0496293 2.85648e-05 0)
(0.0496162 2.59511e-05 0)
(0.0496077 2.02157e-05 0)
(0.0496064 1.0028e-05 0)
(0.049616 -6.27212e-06 0)
(0.0496417 -3.08513e-05 0)
(0.0496901 -6.66268e-05 0)
(0.0497703 -0.000117626 0)
(0.0498943 -0.000189545 0)
(0.0500786 -0.000290634 0)
(0.0503455 -0.000433186 0)
(0.0507257 -0.000636052 0)
(0.0512621 -0.000929051 0)
(0.0520143 -0.00136081 0)
(0.0530646 -0.00201274 0)
(0.0545226 -0.00302344 0)
(0.0565213 -0.00462878 0)
(0.0591726 -0.00721573 0)
(0.0624691 -0.0113391 0)
(0.0659872 -0.0176303 0)
(0.137112 0.050354 0)
(0.150799 0.0845969 0)
(0.150943 0.0865018 0)
(0.142871 0.0749165 0)
(0.130318 0.0602951 0)
(0.117007 0.0467951 0)
(0.104776 0.0356233 0)
(0.094352 0.0268143 0)
(0.0858573 0.0200289 0)
(0.0791342 0.0148656 0)
(0.0739224 0.0109657 0)
(0.0699462 0.00803644 0)
(0.0669527 0.00584779 0)
(0.0647254 0.00422169 0)
(0.0630864 0.00302119 0)
(0.0618929 0.0021413 0)
(0.061033 0.00150172 0)
(0.0604199 0.00104124 0)
(0.0599873 0.000713362 0)
(0.059685 0.000482922 0)
(0.0594756 0.000323491 0)
(0.0593312 0.000215319 0)
(0.0592317 0.000143742 0)
(0.0591623 9.7942e-05 0)
(0.0591128 6.99812e-05 0)
(0.0590759 5.40509e-05 0)
(0.0590468 4.58931e-05 0)
(0.0590224 4.2352e-05 0)
(0.059001 4.1025e-05 0)
(0.0589821 3.99883e-05 0)
(0.0589661 3.75754e-05 0)
(0.0589542 3.2188e-05 0)
(0.0589487 2.21241e-05 0)
(0.0589527 5.40237e-06 0)
(0.0589707 -2.04359e-05 0)
(0.0590085 -5.85762e-05 0)
(0.0590739 -0.000113271 0)
(0.0591773 -0.000190331 0)
(0.0593323 -0.000297864 0)
(0.0595571 -0.000447426 0)
(0.0598758 -0.000655858 0)
(0.0603205 -0.000948256 0)
(0.0609339 -0.00136286 0)
(0.0617719 -0.00195905 0)
(0.062905 -0.00283019 0)
(0.0644152 -0.00412292 0)
(0.066379 -0.00606215 0)
(0.0688132 -0.00896965 0)
(0.0715726 -0.0132212 0)
(0.0741887 -0.0190761 0)
(0.118205 0.0429401 0)
(0.13137 0.0793302 0)
(0.136626 0.0868181 0)
(0.134677 0.0794698 0)
(0.127569 0.0668696 0)
(0.118354 0.053751 0)
(0.108945 0.0420555 0)
(0.100365 0.0323402 0)
(0.0930337 0.0245655 0)
(0.0870238 0.0184785 0)
(0.0822379 0.0137803 0)
(0.0785082 0.0101918 0)
(0.0756512 0.00747492 0)
(0.0734944 0.00543474 0)
(0.0718869 0.00391514 0)
(0.070703 0.00279287 0)
(0.0698407 0.00197159 0)
(0.0692194 0.00137658 0)
(0.0687761 0.00095034 0)
(0.0684627 0.000648928 0)
(0.0682428 0.000439018 0)
(0.0680891 0.000295523 0)
(0.0679815 0.00019969 0)
(0.0679053 0.000137598 0)
(0.0678502 9.89684e-05 0)
(0.0678087 7.62304e-05 0)
(0.067776 6.37946e-05 0)
(0.0677489 5.74839e-05 0)
(0.0677259 5.4088e-05 0)
(0.0677064 5.10103e-05 0)
(0.067691 4.59798e-05 0)
(0.0676812 3.68056e-05 0)
(0.0676794 2.115e-05 0)
(0.0676892 -3.70061e-06 0)
(0.0677157 -4.10944e-05 0)
(0.0677652 -9.5335e-05 0)
(0.0678464 -0.000172112 0)
(0.0679704 -0.000279105 0)
(0.0681517 -0.000426875 0)
(0.0684091 -0.000630201 0)
(0.0687668 -0.000910115 0)
(0.0692559 -0.00129704 0)
(0.0699158 -0.00183561 0)
(0.070794 -0.00259188 0)
(0.0719445 -0.00366357 0)
(0.0734189 -0.0051929 0)
(0.0752432 -0.00737731 0)
(0.0773677 -0.0104634 0)
(0.079585 -0.0146798 0)
(0.0814647 -0.0200692 0)
(0.10088 0.0367384 0)
(0.112923 0.073026 0)
(0.121185 0.0842992 0)
(0.123815 0.0807334 0)
(0.121447 0.070532 0)
(0.116264 0.0584537 0)
(0.109962 0.0468719 0)
(0.103645 0.0367589 0)
(0.0979051 0.0283653 0)
(0.0929909 0.0216106 0)
(0.0889488 0.0162857 0)
(0.0857186 0.0121512 0)
(0.0831941 0.00897998 0)
(0.0812562 0.00657332 0)
(0.0797912 0.00476503 0)
(0.0786984 0.00341961 0)
(0.0778931 0.0024286 0)
(0.0773062 0.00170635 0)
(0.0768827 0.00118605 0)
(0.0765797 0.000816069 0)
(0.0763642 0.000556902 0)
(0.0762114 0.000378582 0)
(0.0761027 0.000258559 0)
(0.0760245 0.000179991 0)
(0.0759669 0.000130365 0)
(0.075923 0.00010041 0)
(0.0758883 8.323e-05 0)
(0.0758598 7.36321e-05 0)
(0.0758361 6.75867e-05 0)
(0.0758167 6.18015e-05 0)
(0.0758025 5.33699e-05 0)
(0.0757951 3.94695e-05 0)
(0.0757973 1.7083e-05 0)
(0.075813 -1.72827e-05 0)
(0.0758474 -6.79122e-05 0)
(0.0759074 -0.000140266 0)
(0.076002 -0.000241484 0)
(0.0761425 -0.000381084 0)
(0.0763437 -0.000571941 0)
(0.0766238 -0.000831721 0)
(0.0770059 -0.00118496 0)
(0.0775182 -0.00166607 0)
(0.0781941 -0.00232367 0)
(0.0790708 -0.0032264 0)
(0.0801841 -0.00446997 0)
(0.0815572 -0.00618369 0)
(0.0831775 -0.00853036 0)
(0.0849547 -0.011686 0)
(0.0866669 -0.0157702 0)
(0.0879505 -0.020709 0)
(0.0851137 0.0315649 0)
(0.0959249 0.0663681 0)
(0.105842 0.0799122 0)
(0.111759 0.0794202 0)
(0.113298 0.0716185 0)
(0.111798 0.060948 0)
(0.108594 0.0499507 0)
(0.104714 0.0398788 0)
(0.100814 0.0312247 0)
(0.0972535 0.0240754 0)
(0.09419 0.0183242 0)
(0.0916587 0.0137873 0)
(0.0896281 0.0102629 0)
(0.0880364 0.00756076 0)
(0.0868116 0.00551315 0)
(0.0858839 0.0039787 0)
(0.0851907 0.00284137 0)
(0.0846787 0.00200784 0)
(0.0843043 0.00140423 0)
(0.0840328 0.000972837 0)
(0.0838367 0.000669081 0)
(0.0836954 0.000458901 0)
(0.0835929 0.000316495 0)
(0.0835176 0.000222475 0)
(0.0834611 0.000162352 0)
(0.0834173 0.000125321 0)
(0.0833823 0.000103294 0)
(0.0833536 9.01283e-05 0)
(0.0833301 8.10132e-05 0)
(0.0833115 7.1977e-05 0)
(0.083299 5.94787e-05 0)
(0.0832943 4.00564e-05 0)
(0.0833003 1.00011e-05 0)
(0.0833213 -3.49714e-05 0)
(0.0833625 -0.000100083 0)
(0.0834309 -0.00019193 0)
(0.0835356 -0.000319041 0)
(0.0836878 -0.000492625 0)
(0.0839014 -0.000727593 0)
(0.0841936 -0.00104399 0)
(0.0845851 -0.00146895 0)
(0.0850997 -0.00203942 0)
(0.0857639 -0.00280559 0)
(0.0866033 -0.00383515 0)
(0.0876368 -0.00521719 0)
(0.0888643 -0.00706347 0)
(0.0902458 -0.00950129 0)
(0.0916716 -0.0126473 0)
(0.0929306 -0.0165454 0)
(0.0937288 -0.0210656 0)
(0.0708303 0.0271995 0)
(0.0805129 0.059705 0)
(0.0912573 0.0743325 0)
(0.0994724 0.0761531 0)
(0.104121 0.0705302 0)
(0.10583 0.0614107 0)
(0.105531 0.0513087 0)
(0.104084 0.0416258 0)
(0.102125 0.0330296 0)
(0.100063 0.0257507 0)
(0.0981315 0.0197821 0)
(0.0964408 0.0150018 0)
(0.0950265 0.0112433 0)
(0.0938815 0.00833307 0)
(0.0929772 0.00610983 0)
(0.092277 0.00443231 0)
(0.0917434 0.00318158 0)
(0.091342 0.00226012 0)
(0.0910432 0.00158962 0)
(0.0908223 0.00110822 0)
(0.0906597 0.000767691 0)
(0.0905398 0.000530918 0)
(0.0904507 0.000369594 0)
(0.0903834 0.000262322 0)
(0.0903315 0.00019302 0)
(0.0902903 0.000149624 0)
(0.0902568 0.000123038 0)
(0.0902291 0.000106297 0)
(0.0902066 9.38947e-05 0)
(0.0901894 8.12323e-05 0)
(0.0901788 6.41691e-05 0)
(0.0901767 3.86263e-05 0)
(0.0901863 2.22082e-07 0)
(0.0902115 -5.60939e-05 0)
(0.0902579 -0.00013644 0)
(0.0903323 -0.000248474 0)
(0.0904434 -0.000401981 0)
(0.0906016 -0.000609635 0)
(0.0908198 -0.000888009 0)
(0.0911134 -0.00125891 0)
(0.0914996 -0.00175112 0)
(0.0919976 -0.00240262 0)
(0.0926261 -0.00326315 0)
(0.0933998 -0.00439672 0)
(0.0943229 -0.0058829 0)
(0.0953774 -0.00781432 0)
(0.0965067 -0.0102856 0)
(0.0975955 -0.0133667 0)
(0.0984552 -0.0170519 0)
(0.0988538 -0.0211901 0)
(0.0579622 0.0234492 0)
(0.0666883 0.0531983 0)
(0.077777 0.0680139 0)
(0.0875661 0.0714353 0)
(0.0946329 0.0676608 0)
(0.099051 0.0600806 0)
(0.101365 0.0510507 0)
(0.102227 0.0420124 0)
(0.102196 0.0337398 0)
(0.101683 0.026572 0)
(0.100962 0.0205883 0)
(0.100198 0.0157277 0)
(0.099481 0.0118622 0)
(0.0988541 0.00884123 0)
(0.0983299 0.00651564 0)
(0.0979052 0.00474957 0)
(0.0975689 0.00342551 0)
(0.0973072 0.00244528 0)
(0.0971059 0.00172889 0)
(0.0969522 0.00121241 0)
(0.096835 0.000845613 0)
(0.0967453 0.000589505 0)
(0.0966759 0.000414187 0)
(0.0966212 0.000296921 0)
(0.0965772 0.000220519 0)
(0.0965409 0.000172008 0)
(0.0965105 0.000141537 0)
(0.096485 0.000121498 0)
(0.0964643 0.000105813 0)
(0.096449 8.93448e-05 0)
(0.0964404 6.74183e-05 0)
(0.0964408 3.53884e-05 0)
(0.0964532 -1.17506e-05 0)
(0.0964816 -7.97585e-05 0)
(0.0965313 -0.000175571 0)
(0.0966088 -0.00030779 0)
(0.0967221 -0.000487273 0)
(0.0968807 -0.000727877 0)
(0.0970959 -0.0010474 0)
(0.0973805 -0.00146878 0)
(0.0977484 -0.0020215 0)
(0.0982133 -0.00274331 0)
(0.0987867 -0.00368181 0)
(0.0994735 -0.00489553 0)
(0.100266 -0.00645312 0)
(0.101133 -0.00842849 0)
(0.102011 -0.0108883 0)
(0.102786 -0.0138672 0)
(0.103297 -0.0173292 0)
(0.103363 -0.021121 0)
(0.0464583 0.020161 0)
(0.054406 0.0469088 0)
(0.0655706 0.061252 0)
(0.0764215 0.0656553 0)
(0.0853399 0.0633629 0)
(0.0919914 0.0572142 0)
(0.0965862 0.0493311 0)
(0.0995592 0.0411111 0)
(0.101361 0.0333721 0)
(0.102371 0.0265232 0)
(0.102875 0.020711 0)
(0.103071 0.0159274 0)
(0.103094 0.0120828 0)
(0.103027 0.00905234 0)
(0.102921 0.00670274 0)
(0.102804 0.00490776 0)
(0.102691 0.00355517 0)
(0.10259 0.00254938 0)
(0.102503 0.00181141 0)
(0.102429 0.00127745 0)
(0.102366 0.000896924 0)
(0.102314 0.00063031 0)
(0.102269 0.000447101 0)
(0.102231 0.000323973 0)
(0.102198 0.00024319 0)
(0.102169 0.000191285 0)
(0.102143 0.000157952 0)
(0.10212 0.000135161 0)
(0.102102 0.00011642 0)
(0.102089 9.61732e-05 0)
(0.102083 6.93e-05 0)
(0.102085 3.06664e-05 0)
(0.102099 -2.52832e-05 0)
(0.10213 -0.000104933 0)
(0.102181 -0.000215929 0)
(0.102258 -0.000367662 0)
(0.10237 -0.000571848 0)
(0.102523 -0.000843215 0)
(0.102728 -0.00120034 0)
(0.102994 -0.00166666 0)
(0.103333 -0.00227154 0)
(0.103751 -0.00305144 0)
(0.104254 -0.00405063 0)
(0.10484 -0.00532113 0)
(0.10549 -0.00692041 0)
(0.106166 -0.00890525 0)
(0.106801 -0.0113193 0)
(0.107291 -0.0141723 0)
(0.107498 -0.0174105 0)
(0.107283 -0.0208883 0)
(0.0362823 0.0172183 0)
(0.0436117 0.0408449 0)
(0.0547138 0.0542353 0)
(0.0662717 0.0591049 0)
(0.0765916 0.0579364 0)
(0.0850526 0.05306 0)
(0.0915903 0.0463269 0)
(0.0964364 0.0390322 0)
(0.0999211 0.031985 0)
(0.10237 0.0256276 0)
(0.104059 0.0201515 0)
(0.105206 0.0155906 0)
(0.105974 0.0118898 0)
(0.10648 0.00894967 0)
(0.106807 0.00665531 0)
(0.107013 0.00489303 0)
(0.107139 0.00355897 0)
(0.10721 0.00256304 0)
(0.107247 0.00182977 0)
(0.10726 0.00129759 0)
(0.107259 0.000917245 0)
(0.107249 0.000650026 0)
(0.107233 0.000465864 0)
(0.107214 0.000341641 0)
(0.107194 0.00025968 0)
(0.107173 0.000206468 0)
(0.107153 0.000171583 0)
(0.107135 0.000146819 0)
(0.107119 0.000125453 0)
(0.107108 0.000101654 0)
(0.107104 6.99662e-05 0)
(0.107108 2.48633e-05 0)
(0.107123 -3.96648e-05 0)
(0.107154 -0.000130521 0)
(0.107204 -0.000255929 0)
(0.107279 -0.000425898 0)
(0.107385 -0.000652767 0)
(0.107528 -0.000951815 0)
(0.107716 -0.00134198 0)
(0.107957 -0.00184661 0)
(0.108256 -0.00249429 0)
(0.108617 -0.00331936 0)
(0.10904 -0.00436206 0)
(0.109515 -0.00566746 0)
(0.110017 -0.00728232 0)
(0.110506 -0.00924855 0)
(0.110913 -0.0115917 0)
(0.111145 -0.014304 0)
(0.111089 -0.0173234 0)
(0.110635 -0.0205158 0)
(0.0274098 0.0145332 0)
(0.0342556 0.0349897 0)
(0.0452335 0.0470806 0)
(0.0572567 0.0519993 0)
(0.0686276 0.0516289 0)
(0.078532 0.0478461 0)
(0.0866899 0.0422211 0)
(0.0931544 0.0359079 0)
(0.0981365 0.0296662 0)
(0.101898 0.0239386 0)
(0.104692 0.0189391 0)
(0.106741 0.014731 0)
(0.108226 0.0112871 0)
(0.109292 0.00853191 0)
(0.110047 0.00636946 0)
(0.110577 0.0047005 0)
(0.110942 0.003432 0)
(0.111189 0.00248178 0)
(0.111353 0.00178013 0)
(0.111457 0.00126962 0)
(0.11152 0.000903976 0)
(0.111555 0.000646586 0)
(0.11157 0.000468851 0)
(0.111572 0.000348664 0)
(0.111565 0.000269022 0)
(0.111554 0.000216832 0)
(0.11154 0.000181908 0)
(0.111527 0.000156127 0)
(0.111515 0.000132743 0)
(0.111506 0.000105797 0)
(0.111503 6.96277e-05 0)
(0.111509 1.84282e-05 0)
(0.111524 -5.41565e-05 0)
(0.111554 -0.000155427 0)
(0.111601 -0.000294039 0)
(0.111671 -0.000480439 0)
(0.111767 -0.000727348 0)
(0.111895 -0.00105029 0)
(0.112061 -0.00146817 0)
(0.112269 -0.0020038 0)
(0.112522 -0.00268439 0)
(0.112819 -0.00354168 0)
(0.113155 -0.00461146 0)
(0.113515 -0.00593191 0)
(0.113871 -0.00754005 0)
(0.114179 -0.00946529 0)
(0.114375 -0.0117194 0)
(0.114378 -0.014283 0)
(0.114092 -0.0170912 0)
(0.113435 -0.0200231 0)
(0.0198239 0.0120398 0)
(0.0262969 0.0293156 0)
(0.0371328 0.0398581 0)
(0.0494587 0.044496 0)
(0.0616102 0.0446414 0)
(0.0726478 0.0417753 0)
(0.0821277 0.0371918 0)
(0.0899539 0.0318811 0)
(0.0962282 0.0265227 0)
(0.101146 0.0215321 0)
(0.104932 0.0171254 0)
(0.107803 0.0133822 0)
(0.109952 0.010296 0)
(0.11154 0.00781188 0)
(0.1127 0.00585249 0)
(0.113536 0.00433403 0)
(0.114132 0.00317597 0)
(0.114549 0.00230606 0)
(0.114837 0.00166224 0)
(0.11503 0.00119297 0)
(0.115157 0.000856409 0)
(0.115236 0.000619259 0)
(0.115281 0.000455374 0)
(0.115305 0.000344429 0)
(0.115313 0.000270693 0)
(0.115312 0.000221954 0)
(0.115305 0.000188606 0)
(0.115296 0.000162884 0)
(0.115288 0.000138214 0)
(0.115282 0.000108676 0)
(0.11528 6.85351e-05 0)
(0.115286 1.18252e-05 0)
(0.115301 -6.80347e-05 0)
(0.115328 -0.000178614 0)
(0.115371 -0.000328849 0)
(0.115432 -0.000529439 0)
(0.115516 -0.000793261 0)
(0.115626 -0.00113581 0)
(0.115766 -0.0015756 0)
(0.115936 -0.00213454 0)
(0.116138 -0.00283808 0)
(0.116366 -0.00371504 0)
(0.116611 -0.00479666 0)
(0.116856 -0.00611463 0)
(0.117069 -0.00769739 0)
(0.117207 -0.00956417 0)
(0.117212 -0.0117165 0)
(0.117011 -0.0141279 0)
(0.116527 -0.0167338 0)
(0.115695 -0.0194268 0)
(0.0135138 0.00968831 0)
(0.0197041 0.0237915 0)
(0.0304046 0.0326084 0)
(0.0429247 0.03671 0)
(0.0556484 0.0371363 0)
(0.0675581 0.0350255 0)
(0.0780895 0.0314077 0)
(0.0870269 0.0270977 0)
(0.0943784 0.0226731 0)
(0.100279 0.0185 0)
(0.104919 0.0147794 0)
(0.108508 0.0115946 0)
(0.111241 0.00895237 0)
(0.113295 0.00681488 0)
(0.114818 0.0051219 0)
(0.115933 0.0038055 0)
(0.116738 0.00279886 0)
(0.117312 0.0020411 0)
(0.117714 0.00147946 0)
(0.11799 0.0010697 0)
(0.118176 0.000775738 0)
(0.118297 0.000568676 0)
(0.118372 0.000425707 0)
(0.118415 0.000328995 0)
(0.118438 0.000264635 0)
(0.118447 0.000221726 0)
(0.118447 0.000191577 0)
(0.118443 0.000167028 0)
(0.118438 0.000141882 0)
(0.118434 0.000110417 0)
(0.118434 6.69589e-05 0)
(0.118439 5.50502e-06 0)
(0.118453 -8.06289e-05 0)
(0.118476 -0.00019915 0)
(0.118513 -0.000359126 0)
(0.118565 -0.000571331 0)
(0.118634 -0.000848591 0)
(0.118722 -0.00120611 0)
(0.118832 -0.00166177 0)
(0.118961 -0.00223626 0)
(0.119108 -0.00295304 0)
(0.119266 -0.00383784 0)
(0.11942 -0.00491751 0)
(0.119552 -0.00621783 0)
(0.119629 -0.00775989 0)
(0.119611 -0.00955483 0)
(0.119442 -0.0115969 0)
(0.119062 -0.0138554 0)
(0.118406 -0.0162687 0)
(0.117425 -0.0187416 0)
(0.00847219 0.00744056 0)
(0.0144538 0.0183865 0)
(0.0250384 0.0253533 0)
(0.0376808 0.0287256 0)
(0.0508146 0.0292452 0)
(0.0633756 0.0277516 0)
(0.0747139 0.025026 0)
(0.0845224 0.0217026 0)
(0.0927333 0.0182423 0)
(0.0994282 0.0149455 0)
(0.104769 0.0119832 0)
(0.108952 0.00943176 0)
(0.112174 0.00730453 0)
(0.11462 0.00557681 0)
(0.116451 0.00420404 0)
(0.117804 0.00313399 0)
(0.118789 0.00231426 0)
(0.119497 0.00169648 0)
(0.119998 0.00123839 0)
(0.120347 0.000904306 0)
(0.120584 0.000664954 0)
(0.120742 0.000496772 0)
(0.120843 0.000381055 0)
(0.120906 0.000303077 0)
(0.120941 0.000251247 0)
(0.120959 0.000216357 0)
(0.120966 0.000190927 0)
(0.120966 0.000168637 0)
(0.120964 0.000143849 0)
(0.120962 0.000111188 0)
(0.120963 6.51718e-05 0)
(0.120968 -1.18858e-07 0)
(0.120979 -9.13523e-05 0)
(0.120999 -0.000216245 0)
(0.121028 -0.000383856 0)
(0.121068 -0.000604869 0)
(0.12112 -0.000891872 0)
(0.121185 -0.00125958 0)
(0.121263 -0.00172501 0)
(0.121349 -0.00230744 0)
(0.121441 -0.00302822 0)
(0.121527 -0.00391001 0)
(0.121592 -0.00497552 0)
(0.121616 -0.00624528 0)
(0.121567 -0.00773427 0)
(0.121405 -0.00944735 0)
(0.121082 -0.0113737 0)
(0.120545 -0.0134809 0)
(0.119742 -0.0157109 0)
(0.118634 -0.01798 0)
(0.0046943 0.00526643 0)
(0.0105291 0.0130715 0)
(0.0210239 0.0181025 0)
(0.0337408 0.0206055 0)
(0.0471561 0.0210761 0)
(0.0601792 0.0200896 0)
(0.0721023 0.0181927 0)
(0.0825527 0.0158374 0)
(0.0914053 0.0133586 0)
(0.0987006 0.0109788 0)
(0.104576 0.00882814 0)
(0.109215 0.00696731 0)
(0.112816 0.00541031 0)
(0.115568 0.00414224 0)
(0.11764 0.00313264 0)
(0.119179 0.00234464 0)
(0.120307 0.00174062 0)
(0.121122 0.00128555 0)
(0.121702 0.000948555 0)
(0.122109 0.000703461 0)
(0.122388 0.000528655 0)
(0.122576 0.00040665 0)
(0.122699 0.000323466 0)
(0.122777 0.000267989 0)
(0.122823 0.000231347 0)
(0.122849 0.000206343 0)
(0.122861 0.000186957 0)
(0.122866 0.000167911 0)
(0.122867 0.000144284 0)
(0.122867 0.00011118 0)
(0.122868 6.34305e-05 0)
(0.122872 -4.69126e-06 0)
(0.12288 -9.9725e-05 0)
(0.122894 -0.000229278 0)
(0.122915 -0.000402267 0)
(0.122942 -0.000629146 0)
(0.122977 -0.000922101 0)
(0.123017 -0.0012952 0)
(0.123062 -0.00176442 0)
(0.123105 -0.00234755 0)
(0.123141 -0.00306373 0)
(0.123157 -0.00393272 0)
(0.123138 -0.00497343 0)
(0.12306 -0.00620184 0)
(0.122894 -0.00762795 0)
(0.122603 -0.0092519 0)
(0.122144 -0.0110595 0)
(0.121471 -0.0130182 0)
(0.120542 -0.0150742 0)
(0.119327 -0.0171538 0)
(0.00217715 0.00314139 0)
(0.00791861 0.00781909 0)
(0.0183525 0.0108589 0)
(0.0311117 0.0123978 0)
(0.0447029 0.0127199 0)
(0.0580217 0.0121609 0)
(0.0703249 0.0110439 0)
(0.0811974 0.00963975 0)
(0.0904762 0.00815126 0)
(0.0981734 0.00671515 0)
(0.104409 0.00541248 0)
(0.109358 0.00428233 0)
(0.113217 0.00333491 0)
(0.116178 0.00256243 0)
(0.118416 0.00194723 0)
(0.120084 0.00146739 0)
(0.121311 0.00110029 0)
(0.1222 0.000824706 0)
(0.122836 0.000621835 0)
(0.123283 0.000475631 0)
(0.123592 0.000372776 0)
(0.123802 0.000302397 0)
(0.123941 0.000255698 0)
(0.12403 0.000225552 0)
(0.124085 0.000206108 0)
(0.124117 0.000192423 0)
(0.124134 0.000180133 0)
(0.124142 0.000165151 0)
(0.124146 0.000143406 0)
(0.124147 0.000110595 0)
(0.124148 6.19601e-05 0)
(0.124151 -7.93163e-06 0)
(0.124156 -0.000105392 0)
(0.124164 -0.000237811 0)
(0.124176 -0.000413849 0)
(0.12419 -0.000643601 0)
(0.124206 -0.000938729 0)
(0.124221 -0.00131252 0)
(0.124232 -0.00177983 0)
(0.124233 -0.00235686 0)
(0.124214 -0.00306063 0)
(0.124164 -0.00390814 0)
(0.124065 -0.00491495 0)
(0.123894 -0.00609316 0)
(0.123622 -0.00744879 0)
(0.123217 -0.00897852 0)
(0.122638 -0.0106662 0)
(0.121849 -0.0124799 0)
(0.120814 -0.0143706 0)
(0.119509 -0.0162734 0)
(0.000918978 0.00104447 0)
(0.00661508 0.0026035 0)
(0.0170183 0.00362097 0)
(0.0297967 0.00414089 0)
(0.0434723 0.00425588 0)
(0.0569355 0.00407624 0)
(0.0694259 0.00370894 0)
(0.0805077 0.00324415 0)
(0.0899991 0.00274986 0)
(0.0978979 0.0022722 0)
(0.104315 0.00183872 0)
(0.109421 0.00146295 0)
(0.113411 0.00114863 0)
(0.116478 0.000893399 0)
(0.118801 0.000691516 0)
(0.120535 0.000535722 0)
(0.121813 0.000418478 0)
(0.122741 0.000332652 0)
(0.123405 0.000271868 0)
(0.123874 0.000230623 0)
(0.1242 0.000204256 0)
(0.124422 0.000188842 0)
(0.12457 0.000181049 0)
(0.124666 0.000177973 0)
(0.124726 0.000176977 0)
(0.124763 0.000175527 0)
(0.124784 0.000171038 0)
(0.124794 0.000160728 0)
(0.1248 0.000141466 0)
(0.124802 0.000109625 0)
(0.124803 6.09399e-05 0)
(0.124804 -9.64645e-06 0)
(0.124806 -0.000108131 0)
(0.124808 -0.000241596 0)
(0.12481 -0.000418347 0)
(0.124811 -0.000648019 0)
(0.124809 -0.000941644 0)
(0.124799 -0.00131164 0)
(0.124778 -0.00177169 0)
(0.124737 -0.0023364 0)
(0.124667 -0.00302078 0)
(0.124555 -0.00383928 0)
(0.124382 -0.00480452 0)
(0.124126 -0.0059254 0)
(0.123761 -0.00720482 0)
(0.123255 -0.00863701 0)
(0.122574 -0.0102049 0)
(0.121686 -0.0118778 0)
(0.120562 -0.0136114 0)
(0.119185 -0.0153487 0)
(0.00091898 -0.00104329 0)
(0.00661511 -0.00259995 0)
(0.0170184 -0.00361485 0)
(0.0297968 -0.00413185 0)
(0.0434727 -0.00424344 0)
(0.056936 -0.00405979 0)
(0.0694266 -0.00368773 0)
(0.0805086 -0.00321729 0)
(0.0900003 -0.00271634 0)
(0.0978994 -0.00223083 0)
(0.104317 -0.0017882 0)
(0.109423 -0.00140179 0)
(0.113414 -0.00107523 0)
(0.116482 -0.000806017 0)
(0.118806 -0.0005883 0)
(0.120541 -0.000414763 0)
(0.12182 -0.000277861 0)
(0.122749 -0.00017054 0)
(0.123415 -8.66163e-05 0)
(0.123886 -2.09251e-05 0)
(0.124213 3.06596e-05 0)
(0.124437 7.12771e-05 0)
(0.124587 0.000103158 0)
(0.124685 0.000127709 0)
(0.124748 0.000145576 0)
(0.124787 0.0001567 0)
(0.12481 0.000160336 0)
(0.124822 0.000155056 0)
(0.124829 0.000138721 0)
(0.124832 0.000108438 0)
(0.124833 6.04916e-05 0)
(0.124832 -9.73738e-06 0)
(0.124831 -0.000107862 0)
(0.124827 -0.00024058 0)
(0.12482 -0.000415762 0)
(0.124808 -0.000642504 0)
(0.124787 -0.000931136 0)
(0.124754 -0.00129315 0)
(0.124701 -0.00174103 0)
(0.124622 -0.00228784 0)
(0.124504 -0.00294668 0)
(0.124335 -0.00372975 0)
(0.124095 -0.00464712 0)
(0.123764 -0.00570506 0)
(0.123317 -0.0069041 0)
(0.122724 -0.00823685 0)
(0.121957 -0.00968597 0)
(0.120987 -0.0112228 0)
(0.119792 -0.012807 0)
(0.118357 -0.0143888 0)
(0.00217715 -0.00314024 0)
(0.00791873 -0.0078156 0)
(0.0183528 -0.0108529 0)
(0.0311123 -0.0123889 0)
(0.0447038 -0.0127077 0)
(0.0580231 -0.0121447 0)
(0.0703269 -0.011023 0)
(0.0812 -0.00961323 0)
(0.0904797 -0.00811814 0)
(0.098178 -0.00667428 0)
(0.104415 -0.00536255 0)
(0.109366 -0.00422188 0)
(0.113226 -0.00326235 0)
(0.116189 -0.00247603 0)
(0.11843 -0.00184516 0)
(0.120101 -0.00134775 0)
(0.121331 -0.000961182 0)
(0.122224 -0.000664312 0)
(0.122864 -0.000438514 0)
(0.123316 -0.000268083 0)
(0.123631 -0.000140222 0)
(0.123846 -4.4834e-05 0)
(0.123992 2.57922e-05 0)
(0.124087 7.73045e-05 0)
(0.124149 0.00011359 0)
(0.124188 0.000137032 0)
(0.124212 0.00014871 0)
(0.124226 0.000148548 0)
(0.124233 0.000135412 0)
(0.124237 0.000107164 0)
(0.124237 6.06703e-05 0)
(0.124235 -8.20531e-06 0)
(0.12423 -0.00010464 0)
(0.12422 -0.000234893 0)
(0.124205 -0.000406335 0)
(0.12418 -0.000627462 0)
(0.124142 -0.000907857 0)
(0.124087 -0.00125806 0)
(0.124006 -0.00168936 0)
(0.123891 -0.00221335 0)
(0.12373 -0.00284138 0)
(0.123509 -0.00358365 0)
(0.123211 -0.00444807 0)
(0.122815 -0.00543881 0)
(0.122296 -0.00655465 0)
(0.121631 -0.00778721 0)
(0.120792 -0.00911946 0)
(0.119757 -0.0105248 0)
(0.118505 -0.0119671 0)
(0.117027 -0.0134025 0)
(0.00469431 -0.00526532 0)
(0.0105293 -0.0130682 0)
(0.0210244 -0.0180967 0)
(0.0337418 -0.0205969 0)
(0.0471576 -0.0210642 0)
(0.0601815 -0.0200738 0)
(0.0721055 -0.0181723 0)
(0.082557 -0.0158115 0)
(0.0914111 -0.0133262 0)
(0.0987081 -0.0109389 0)
(0.104585 -0.00877937 0)
(0.109228 -0.00690825 0)
(0.112831 -0.00533939 0)
(0.115586 -0.00405777 0)
(0.117663 -0.00303282 0)
(0.119207 -0.00222761 0)
(0.12034 -0.00160451 0)
(0.121161 -0.00112856 0)
(0.121749 -0.000769068 0)
(0.122163 -0.000500178 0)
(0.122452 -0.000300789 0)
(0.122649 -0.000154164 0)
(0.122783 -4.73785e-05 0)
(0.122871 2.92434e-05 0)
(0.122929 8.26627e-05 0)
(0.122966 0.000117581 0)
(0.12299 0.000136817 0)
(0.123004 0.00014159 0)
(0.123012 0.000131743 0)
(0.123016 0.000105879 0)
(0.123016 6.14592e-05 0)
(0.123013 -5.15002e-06 0)
(0.123004 -9.86568e-05 0)
(0.122989 -0.000224836 0)
(0.122966 -0.000390521 0)
(0.12293 -0.000603569 0)
(0.122877 -0.000872781 0)
(0.122801 -0.00120775 0)
(0.122694 -0.00161859 0)
(0.122547 -0.00211553 0)
(0.122348 -0.00270833 0)
(0.122083 -0.00340543 0)
(0.121734 -0.00421295 0)
(0.121282 -0.00513341 0)
(0.120705 -0.00616435 0)
(0.11998 -0.00729691 0)
(0.119084 -0.00851473 0)
(0.117998 -0.00979337 0)
(0.116705 -0.0111007 0)
(0.115197 -0.0123982 0)
(0.00847221 -0.00743952 0)
(0.0144541 -0.0183833 0)
(0.0250391 -0.0253477 0)
(0.0376821 -0.0287173 0)
(0.0508167 -0.0292338 0)
(0.0633787 -0.0277364 0)
(0.0747183 -0.0250064 0)
(0.0845284 -0.0216777 0)
(0.0927412 -0.0182111 0)
(0.0994385 -0.014907 0)
(0.104782 -0.0119361 0)
(0.108969 -0.00937475 0)
(0.112195 -0.00723604 0)
(0.114646 -0.00549519 0)
(0.116482 -0.00410756 0)