/*--------------------------------*- C++ -*----------------------------------*\
  =========                 |
  \\      /  F ield         | OpenFOAM: The Open Source CFD Toolbox
   \\    /   O peration     | Website:  https://openfoam.org
    \\  /    A nd           | Version:  6
     \\/     M anipulation  |
\*---------------------------------------------------------------------------*/
FoamFile
{
    version     2.0;
    format      ascii;
    class       volScalarField;
    location    "950";
    object      alphat;
}
// * * * * * * * * * * * * * * * * * * * * * * * * * * * * * * * * * * * * * //

dimensions      [1 -1 -1 0 0 0 0];

internalField   nonuniform List<scalar> 
16000
(
6.0565666e-06
2.477303e-05
2.6951711e-05
3.8432778e-05
3.3101638e-05
4.2635357e-05
4.2151251e-05
4.7569871e-05
4.9212008e-05
4.9289409e-05
5.0163658e-05
4.8537328e-05
4.8743338e-05
4.745538e-05
4.7490828e-05
4.6878863e-05
4.7073533e-05
4.7101026e-05
4.7584952e-05
4.8114399e-05
4.8946681e-05
4.9926628e-05
5.1160309e-05
5.260244e-05
5.4307117e-05
5.6278789e-05
5.8561134e-05
6.1186728e-05
6.4208395e-05
6.7684166e-05
7.1689481e-05
7.631513e-05
8.1673682e-05
8.7902438e-05
9.5170558e-05
0.00010368561
0.00011370286
0.0001255361
0.00013957134
0.00015628303
0.00017625444
0.00020020435
0.00022901542
0.00026376968
0.00030579094
0.00035669316
0.00041843191
0.000493361
0.00058428774
0.00069452142
0.0008279076
0.00098886349
0.0011824522
0.0012244498
0.0012257318
0.0012259734
0.00122546
0.0012245189
0.0012233706
0.0012220516
0.0012204196
0.0012185227
0.0012162815
0.0012136099
0.0012104424
0.0012068098
0.0012028387
0.0011988997
0.0011951817
0.0011919818
0.00118891
0.0011866431
0.0011839329
0.0011826332
0.001179876
0.001180995
0.0011772783
0.0011847863
0.0011743222
0.0011839342
5.0427023e-06
2.4509089e-05
2.4719312e-05
3.5151354e-05
3.0585068e-05
3.8453505e-05
3.8835748e-05
4.251563e-05
4.4914547e-05
4.3924858e-05
4.5241068e-05
4.3201074e-05
4.3589406e-05
4.2157384e-05
4.2264921e-05
4.165307e-05
4.1855839e-05
4.1861053e-05
4.2300035e-05
4.2767243e-05
4.3510155e-05
4.4382376e-05
4.5480849e-05
4.6764439e-05
4.8280632e-05
5.0033653e-05
5.2061421e-05
5.4392925e-05
5.7074183e-05
6.0156213e-05
6.3704897e-05
6.7799736e-05
7.2539209e-05
7.8043274e-05
8.4459612e-05
9.1969318e-05
0.00010079481
0.00011120919
0.00012354793
0.00013822274
0.00015573842
0.00017671634
0.00020191844
0.00023227722
0.00026893231
0.00031327316
0.00036698488
0.00043210075
0.00051105789
0.00060675191
0.00072258963
0.00086253634
0.001031196
0.001223271
0.0012247754
0.0012251554
0.0012246896
0.0012237378
0.0012225696
0.0012212646
0.0012197939
0.0012180498
0.0012159585
0.0012134272
0.0012103827
0.0012068229
0.0012028737
0.001198882
0.0011951467
0.0011918604
0.0011888408
0.0011864145
0.0011839197
0.0011825014
0.0011799447
0.0011803093
0.0011771732
0.0011835563
0.0011743593
0.00118362
4.3080627e-06
2.424261e-05
2.2974382e-05
3.2350808e-05
2.8584722e-05
3.4889363e-05
3.6321458e-05
3.8057629e-05
4.1233645e-05
3.903123e-05
4.0734314e-05
3.8282677e-05
3.8818518e-05
3.7335756e-05
3.7514816e-05
3.6927672e-05
3.7136597e-05
3.7139253e-05
3.7543692e-05
3.7969167e-05
3.8641981e-05
3.9431546e-05
4.0422393e-05
4.1580011e-05
4.2944812e-05
4.4522088e-05
4.6344651e-05
4.8439039e-05
5.0845815e-05
5.3610584e-05
5.6791732e-05
6.0459916e-05
6.470253e-05
6.9626011e-05
7.5361234e-05
8.2068643e-05
8.9945019e-05
9.9231857e-05
0.00011022545
0.00012328884
0.00013886606
0.00015750308
0.00017986828
0.00020677824
0.00023922928
0.00027843518
0.00032586773
0.00038330382
0.00045287847
0.00053713926
0.00063910454
0.00076232052
0.00091093508
0.001089811
0.001223847
0.0012243799
0.0012239694
0.0012230029
0.0012218008
0.0012204696
0.0012189973
0.0012173499
0.0012154421
0.001213083
0.0012101907
0.0012067377
0.0012028296
0.0011988108
0.0011950516
0.001191719
0.0011887162
0.0011862065
0.0011838256
0.0011823301
0.0011799683
0.0011798453
0.0011771302
0.0011824965
0.0011743427
0.0011826885
3.8367352e-06
2.3883518e-05
2.1505856e-05
2.9728549e-05
2.6705324e-05
3.1630838e-05
3.3874997e-05
3.4067217e-05
3.7654284e-05
3.4664299e-05
3.6498467e-05
3.3867557e-05
3.4464579e-05
3.3067559e-05
3.3263019e-05
3.2736367e-05
3.2935728e-05
3.2952308e-05
3.3324023e-05
3.3720733e-05
3.43342e-05
3.5056572e-05
3.5956997e-05
3.700924e-05
3.8246593e-05
3.967593e-05
4.1325604e-05
4.3220359e-05
4.5396324e-05
4.7894778e-05
5.0768041e-05
5.4079704e-05
5.7908259e-05
6.2349356e-05
6.7520471e-05
7.3565636e-05
8.0661432e-05
8.9024344e-05
9.8920075e-05
0.00011067386
0.00012468246
0.0001414337
0.00016152425
0.00018568217
0.00021479465
0.0002499425
0.00029243613
0.00034385851
0.00040611528
0.00048148746
0.00057269151
0.00068294202
0.00081602355
0.00097639674
0.0011693281
0.0012236279
0.001223283
0.0012223006
0.0012210571
0.0012196887
0.0012181877
0.0012165305
0.0012146753
0.0012125268
0.0012098241
0.001206517
0.0012026806
0.0011986578
0.0011948834
0.0011915276
0.0011885363
0.0011859808
0.0011836756
0.0011820332
0.0011799555
0.0011795748
0.0011771022
0.0011814288
0.001174362
0.0011821304
3.4484726e-06
2.3392557e-05
2.0325784e-05
2.7296623e-05
2.4979042e-05
2.8653773e-05
3.1569856e-05
3.0455748e-05
3.4214886e-05
3.0705128e-05
3.2519942e-05
2.9932705e-05
3.0509878e-05
2.9249652e-05
2.9433069e-05
2.8984172e-05
2.9168452e-05
2.9207403e-05
2.9550826e-05
2.9927513e-05
3.0491561e-05
3.1158762e-05
3.1983314e-05
3.2946972e-05
3.4076653e-05
3.5380797e-05
3.6884052e-05
3.8609681e-05
4.0590216e-05
4.286339e-05
4.5476546e-05
4.8487467e-05
5.1967397e-05
5.6003146e-05
6.070129e-05
6.6192568e-05
7.2637205e-05
8.023152e-05
8.9216596e-05
9.9887677e-05
0.0001126038
0.00012780674
0.0001460366
0.00016795213
0.00019435518
0.00022622311
0.00026474112
0.000311342
0.0003677536
0.00043604934
0.00051870832
0.0006186802
0.00073946017
0.00088518431
0.0010607663
0.0012228851
0.0012226221
0.0012216256
0.0012203359
0.0012189243
0.0012173869
0.0012157032
0.0012138416
0.0012117438
0.0012092725
0.0012061546
0.001202426
0.0011984231
0.0011946454
0.0011912852
0.0011883064
0.0011857333
0.00118348
0.0011817461
0.0011798908
0.0011793074
0.0011770837
0.0011804826
0.001174376
0.0011813432
3.1189972e-06
2.0147616e-05
1.9275267e-05
2.4998067e-05
2.3415699e-05
2.5903985e-05
2.9398343e-05
2.7173596e-05
3.0931683e-05
2.7150894e-05
2.8826771e-05
2.644944e-05
2.6955411e-05
2.5858482e-05
2.6013115e-05
2.5647801e-05
2.5814948e-05
2.5879281e-05
2.6198894e-05
2.6561226e-05
2.7084551e-05
2.7706454e-05
2.846792e-05
2.9357674e-05
3.0397383e-05
3.1596741e-05
3.2977435e-05
3.456148e-05
3.6378531e-05
3.8463414e-05
4.0859434e-05
4.3619629e-05
4.6809357e-05
5.0508257e-05
5.4814094e-05
5.9846794e-05
6.5753454e-05
7.2714188e-05
8.0950159e-05
9.0732873e-05
0.00010239119
0.00011633003
0.00013304466
0.0001531389
0.00017734676
0.00020656372
0.00024187585
0.00028459666
0.00033631254
0.00039893046
0.00047473727
0.00056646498
0.0006773666
0.00081130788
0.00097289662
0.0011676231
0.0012219721
0.0012209669
0.0012196271
0.0012181682
0.0012165896
0.0012148728
0.001212991
0.001210901
0.001208519
0.0012056393
0.0012020612
0.001198104
0.0011943374
0.0011909893
0.0011880296
0.0011854601
0.001183247
0.0011814617
0.0011797748
0.0011790317
0.0011770713
0.0011797102
0.0011744162
0.0011807869
2.8101573e-06
1.9172339e-05
1.79953e-05
2.2825933e-05
2.2001398e-05
2.3381013e-05
2.7324688e-05
2.419185e-05
2.7800654e-05
2.4022749e-05
2.5477024e-05
2.3366869e-05
2.3772553e-05
2.2845844e-05
2.2964159e-05
2.2679714e-05
2.2830306e-05
2.2919154e-05
2.3219148e-05
2.3570418e-05
2.4060121e-05
2.4644245e-05
2.5353029e-05
2.6180718e-05
2.7144922e-05
2.825616e-05
2.9533832e-05
3.0998856e-05
3.2678546e-05
3.4605365e-05
3.6819296e-05
3.9369432e-05
4.2316372e-05
4.5733865e-05
4.9712452e-05
5.436332e-05
5.9822862e-05
6.625804e-05
7.3873841e-05
8.2922851e-05
9.3709529e-05
0.00010660921
0.00012208117
0.00014068548
0.00016310185
0.00019016044
0.00022286854
0.00026244438
0.00031036157
0.00036839376
0.00043867266
0.00052375305
0.00062668823
0.00075112155
0.00090140475
0.0010827479
0.0012213188
0.0012203148
0.0012189227
0.0012174136
0.0012157908
0.0012140371
0.0012121287
0.0012100299
0.0012076803
0.0012049597
0.0012015826
0.0011976998
0.0011939598
0.0011906393
0.0011877081
0.0011851585
0.0011829801
0.0011811781
0.0011796152
0.0011786971
0.0011770569
0.0011790478
0.0011744584
0.0011802356
2.542371e-06
1.8638029e-05
1.680422e-05
2.0793929e-05
2.0697168e-05
2.1039049e-05
2.5275974e-05
2.1514225e-05
2.4784341e-05
2.1245638e-05
2.2436371e-05
2.0622921e-05
2.0920696e-05
2.0160462e-05
2.024442e-05
2.0035248e-05
2.017341e-05
2.0285474e-05
2.0571063e-05
2.0914362e-05
2.1377419e-05
2.1930718e-05
2.2596357e-05
2.3372687e-05
2.4274274e-05
2.5312225e-05
2.6504138e-05
2.7869962e-05
2.9435168e-05
3.1230249e-05
3.3292549e-05
3.566784e-05
3.8412893e-05
4.1596652e-05
4.5303749e-05
4.9638294e-05
5.4727997e-05
6.07292e-05
6.7833597e-05
7.6278886e-05
8.6349715e-05
9.8397556e-05
0.00011285261
0.00013024014
0.00015119594
0.0001764976
0.00020708926
0.00024411237
0.00028894973
0.00034326689
0.00040906932
0.00048876611
0.00058524495
0.00070196283
0.00084305791
0.0010134993
0.0012192344
0.0012196583
0.0012182134
0.0012166524
0.0012149838
0.0012131913
0.001211253
0.0012091381
0.0012067978
0.0012041442
0.0012009873
0.0011972116
0.0011935146
0.0011902365
0.0011873453
0.0011848297
0.0011826857
0.0011808926
0.0011794211
0.0011783762
0.0011770342
0.0011784335
0.001174509
0.0011797674
2.310554e-06
1.8051669e-05
1.5691355e-05
1.8860324e-05
1.9479049e-05
1.8828987e-05
2.3211145e-05
1.9113657e-05
2.1912142e-05
1.876355e-05
1.968435e-05
1.817053e-05
1.8367956e-05
1.7761874e-05
1.7818657e-05
1.7677028e-05
1.780819e-05
1.7941574e-05
1.8217842e-05
1.8555799e-05
1.8998357e-05
1.9526936e-05
2.0157682e-05
2.0891955e-05
2.1742106e-05
2.271951e-05
2.384049e-05
2.5124098e-05
2.6594352e-05
2.8280142e-05
3.0216655e-05
3.2446957e-05
3.502468e-05
3.8014879e-05
4.1497418e-05
4.5570591e-05
5.0355158e-05
5.5998964e-05
6.2682542e-05
7.0632223e-05
8.0116463e-05
9.1467487e-05
0.00010509202
0.00012148769
0.00014125468
0.00016512829
0.0001940021
0.00022895547
0.00027129816
0.0003226084
0.00038478902
0.00046013003
0.0005513827
0.00066184923
0.0007954925
0.00095707972
0.0011523379
0.0012189867
0.00121749
0.0012158771
0.0012141624
0.0012123304
0.0012103612
0.0012082272
0.0012058878
0.0012032761
0.0012002724
0.0011966422
0.0011930043
0.0011897834
0.0011869447
0.0011844753
0.0011823698
0.0011806057
0.0011792021
0.0011780881
0.0011770001
0.0011778738
0.0011745745
0.0011793032
2.1097318e-06
1.7381888e-05
1.46542e-05
1.7009851e-05
1.8330023e-05
1.6824888e-05
2.1111039e-05
1.6956392e-05
1.9249309e-05
1.6540148e-05
1.7208643e-05
1.5976769e-05
1.608966e-05
1.561978e-05
1.5658527e-05
1.5575605e-05
1.570513e-05
1.5857747e-05
1.6129149e-05
1.6464032e-05
1.6891496e-05
1.7400738e-05
1.8003858e-05
1.8704237e-05
1.9512744e-05
2.0440802e-05
2.1503789e-05
2.2719986e-05
2.4112257e-05
2.5708212e-05
2.7541311e-05
2.965237e-05
3.2092517e-05
3.4923683e-05
3.8221882e-05
4.2080682e-05
4.6615356e-05
5.196707e-05
5.8306739e-05
6.5852506e-05
7.4859578e-05
8.5644689e-05
9.8595459e-05
0.00011418817
0.00013299395
0.00015571391
0.00018320156
0.00021648591
0.0002568183
0.00030570637
0.00036496982
0.00043680172
0.00052384155
0.00062926376
0.00075688624
0.00091130793
0.0010980673
0.001218289
0.0012167438
0.0012150799
0.00121332
0.0012114495
0.0012094497
0.0012072959
0.0012049529
0.0012023658
0.0011994399
0.0011959961
0.0011924332
0.0011892835
0.0011865101
0.0011840981
0.001182038
0.0011803174
0.0011789653
0.0011778306
0.0011769539
0.0011773809
0.0011746559
0.0011788472
1.9354344e-06
1.6600467e-05
1.3689715e-05
1.5228163e-05
1.7219847e-05
1.5008876e-05
1.8966411e-05
1.5011139e-05
1.6805565e-05
1.4544073e-05
1.4992789e-05
1.401293e-05
1.4061045e-05
1.3707603e-05
1.373778e-05
1.370503e-05
1.3837782e-05
1.4007788e-05
1.4217431e-05
1.4541564e-05
1.4951291e-05
1.544007e-05
1.6016608e-05
1.6685073e-05
1.745493e-05
1.8337273e-05
1.9346508e-05
2.0500034e-05
2.1819542e-05
2.3331432e-05
2.5067602e-05
2.7066684e-05
2.937758e-05
3.2059386e-05
3.5184681e-05
3.8842829e-05
4.3144212e-05
4.8224664e-05
5.4608324e-05
6.182832e-05
7.0451352e-05
8.0781924e-05
9.3191809e-05
0.00010814155
0.00012617854
0.00014797631
0.00017435721
0.00020630935
0.00024503797
0.00029199423
0.00034893107
0.00041796353
0.00050164065
0.00060303329
0.00072584107
0.0008745255
0.00105447
0.0012175548
0.0012159665
0.0012142539
0.0012124512
0.0012105442
0.0012085155
0.0012063427
0.0012039955
0.0012014286
0.0011985679
0.0011952795
0.0011918064
0.0011887415
0.001186046
0.0011837016
0.0011816958
0.0011800289
0.001178718
0.0011775997
0.0011768937
0.0011769666
0.0011747538
0.0011784463
1.7840602e-06
1.5692458e-05
1.2788003e-05
1.3504185e-05
1.610397e-05
1.3358731e-05
1.6797322e-05
1.3250135e-05
1.4584205e-05
1.2748085e-05
1.3017816e-05
1.2254573e-05
1.2258571e-05
1.2002643e-05
1.197513e-05
1.196352e-05
1.2091317e-05
1.2270608e-05
1.2537734e-05
1.2870231e-05
1.3279037e-05
1.3761581e-05
1.4325285e-05
1.4975431e-05
1.5720954e-05
1.6572994e-05
1.754549e-05
1.865536e-05
1.9923563e-05
2.1375734e-05
2.3042839e-05
2.4961822e-05
2.7180105e-05
2.9754837e-05
3.2756155e-05
3.6270349e-05
4.0404194e-05
4.5290808e-05
5.1089292e-05
5.7996622e-05
6.625364e-05
7.6154468e-05
8.8741406e-05
0.0001031853
0.00012061822
0.00014169123
0.00016720363
0.00019811004
0.00023558029
0.00028102096
0.00033613219
0.00040296719
0.00048400318
0.00058222853
0.0007012488
0.00084541655
0.001019992
0.0012167737
0.0012151507
0.001213393
0.0012115507
0.0012096104
0.0012075558
0.0012053664
0.0012030156
0.0012004663
0.0011976607
0.0011945002
0.0011911306
0.0011881631
0.0011855569
0.00118329
0.0011813481
0.0011797419
0.0011784673
0.0011773908
0.0011768166
0.0011766322
0.0011748645
0.0011781226
1.6533535e-06
1.4654629e-05
1.1949468e-05
1.1936846e-05
1.494424e-05
1.1854229e-05
1.4705065e-05
1.1651034e-05
1.2585417e-05
1.1130684e-05
1.1264859e-05
1.0682264e-05
1.0576672e-05
1.0374402e-05
1.0397636e-05
1.0440043e-05
1.0591016e-05
1.079473e-05
1.1073292e-05
1.1413482e-05
1.1822875e-05
1.2301449e-05
1.2855962e-05
1.3492454e-05
1.4219458e-05
1.504814e-05
1.5992092e-05
1.7067813e-05
1.8295664e-05
1.9700688e-05
2.1313315e-05
2.3168939e-05
2.5313956e-05
2.7804053e-05
3.0707572e-05
3.4108406e-05
3.8110026e-05
4.2843678e-05
4.8464056e-05
5.5163512e-05
6.3177194e-05
7.27928e-05
8.4364035e-05
9.8315002e-05
0.00011516581
0.00013667257
0.00016152172
0.00019162838
0.00022813658
0.00027241863
0.00032613389
0.00039128787
0.00047030228
0.00056610167
0.00068221916
0.00082292492
0.00099338684
0.0011998501
0.0012142904
0.001212492
0.0012106146
0.0012086453
0.0012065686
0.0012043659
0.0012020138
0.0011994812
0.001196723
0.0011936675
0.0011904134
0.0011875543
0.0011850479
0.0011828675
0.0011809992
0.0011794579
0.0011782189
0.0011772008
0.0011767205
0.0011763632
0.0011749828
0.0011778517
1.5408287e-06
1.3490585e-05
1.1165921e-05
1.0514549e-05
1.3701521e-05
1.0481869e-05
1.2726354e-05
1.019924e-05
1.0806738e-05
9.6767602e-06
9.6213776e-06
9.1405845e-06
9.0872626e-06
8.9761018e-06
9.0293219e-06
9.1150961e-06
9.2874036e-06
9.5117491e-06
9.8014229e-06
1.0149159e-05
1.0560688e-05
1.1037561e-05
1.1586237e-05
1.2213345e-05
1.2927062e-05
1.3738577e-05
1.466124e-05
1.5711201e-05
1.6908305e-05
1.827711e-05
1.9771083e-05
2.1563307e-05
2.3634998e-05
2.6040408e-05
2.8846226e-05
3.2134229e-05
3.6211642e-05
4.0829019e-05
4.6314589e-05
5.2857443e-05
6.0688468e-05
7.0089188e-05
8.1409468e-05
9.5064037e-05
0.00011156411
0.00013153396
0.0001557239
0.00018664761
0.00022244972
0.00026588143
0.0003185718
0.00038249108
0.00046001991
0.00055403567
0.00066801812
0.00080617866
0.00097361963
0.0011765163
0.001213381
0.0012115474
0.0012096401
0.0012076469
0.0012055531
0.0012033415
0.0012009913
0.0011984762
0.0011957605
0.0011927918
0.0011896632
0.0011869218
0.0011845238
0.0011824383
0.0011806526
0.0011791785
0.0011779775
0.0011770287
0.0011766013
0.0011760824
0.0011751023
0.0011776301
1.4451797e-06
1.2215464e-05
1.0427766e-05
9.2215234e-06
1.2338206e-05
9.2258567e-06
1.0888983e-05
8.8784231e-06
9.2381336e-06
8.2273321e-06
8.1532296e-06
7.8301364e-06
7.8045704e-06
7.7646234e-06
7.8462985e-06
7.9673989e-06
8.1595119e-06
8.4018395e-06
8.7025187e-06
9.0580366e-06
9.4732615e-06
9.9506572e-06
1.0496572e-05
1.1091086e-05
1.1789327e-05
1.2581951e-05
1.3481822e-05
1.4504527e-05
1.5669175e-05
1.6999407e-05
1.8524034e-05
2.0278436e-05
2.2306111e-05
2.4660624e-05
2.740794e-05
3.0629342e-05
3.4424921e-05
3.8917937e-05
4.4260013e-05
5.0637374e-05
5.8277399e-05
6.7967787e-05
7.9112732e-05
9.2560847e-05
0.00010881527
0.00012849515
0.00015234013
0.00018125503
0.00021829859
0.0002611468
0.00031313364
0.00037620508
0.0004527136
0.00054550428
0.00065802073
0.00079443609
0.00095981114
0.0011602791
0.0012124198
0.001210557
0.0012086257
0.0012066143
0.001204509
0.0012022939
0.00119995
0.0011974547
0.0011947793
0.0011918846
0.0011888892
0.0011862727
0.0011839896
0.0011820063
0.0011803107
0.0011789058
0.0011777475
0.0011768701
0.0011764663
0.0011758474
0.0011752085
0.0011774285
1.3662125e-06
1.0843285e-05
9.7267204e-06
8.0470988e-06
1.0896845e-05
8.0742377e-06
9.2285282e-06
7.6167289e-06
7.6571525e-06
6.9728675e-06
6.9016339e-06
6.6990035e-06
6.7033614e-06
6.7193777e-06
6.8278767e-06
6.9784554e-06
7.189107e-06
7.4476732e-06
7.759473e-06
8.1232741e-06
8.5233646e-06
8.9978568e-06
9.5385091e-06
1.0151916e-05
1.0846549e-05
1.1632761e-05
1.252339e-05
1.3533896e-05
1.468308e-05
1.599438e-05
1.7496312e-05
1.922392e-05
2.122034e-05
2.3538725e-05
2.6244591e-05
2.9418672e-05
3.3160372e-05
3.7592049e-05
4.2864225e-05
4.9162159e-05
5.6713458e-05
6.5793288e-05
7.6738064e-05
8.9954687e-05
0.00010681668
0.00012631821
0.00014994931
0.00017861225
0.00021338725
0.00025798184
0.00030954236
0.00037210009
0.000447991
0.00054004121
0.00065167338
0.00078704077
0.00095118483
0.0011502225
0.0012114058
0.0012095204
0.0012075716
0.0012055483
0.0012034377
0.001201225
0.0011988928
0.0011964212
0.0011937861
0.0011909575
0.0011881009
0.0011856135
0.0011834496
0.0011815743
0.0011799743
0.001178641
0.0011775332
0.0011767243
0.0011763177
0.0011756474
0.0011752876
0.0011772308
1.3051313e-06
9.3846159e-06
9.0393309e-06
6.978519e-06
9.4201453e-06
6.9887726e-06
8.4112517e-06
6.4117368e-06
6.347272e-06
5.8919023e-06
5.8384222e-06
5.7260901e-06
5.7613521e-06
5.8225086e-06
5.956194e-06
6.1321843e-06
6.3604429e-06
6.6341651e-06
6.9384069e-06
7.3065525e-06
7.7291269e-06
8.2099144e-06
8.7544415e-06
9.3695532e-06
1.0063798e-05
1.0847506e-05
1.1733514e-05
1.2737269e-05
1.3877234e-05
1.5176784e-05
1.666428e-05
1.837461e-05
2.0350776e-05
2.2645817e-05
2.532515e-05
2.8469417e-05
3.2177892e-05
3.657261e-05
4.1803466e-05
4.8054837e-05
5.5555415e-05
6.4579106e-05
7.5462758e-05
8.8612646e-05
0.00010452316
0.00012379477
0.00014842044
0.00017696555
0.00021160375
0.00025363702
0.0003075402
0.00036986911
0.0004454865
0.00053721184
0.00064845967
0.00078338002
0.00094701475
0.0011454886
0.0012103401
0.001208439
0.0012064793
0.0012044507
0.0012023413
0.0012001374
0.001197823
0.0011953801
0.001192788
0.0011900222
0.0011873072
0.0011849509
0.0011829079
0.0011811438
0.0011796423
0.0011783825
0.001177334
0.0011765888
0.0011761584
0.0011754697
0.0011753376
0.0011770324
1.2676091e-06
7.8664103e-06
8.3287853e-06
6.0189874e-06
7.9801926e-06
6.755599e-06
6.4698456e-06
5.3210904e-06
5.2686557e-06
4.9600435e-06
4.937026e-06
4.8952586e-06
4.9606976e-06
5.059556e-06
5.2168444e-06
5.4152475e-06
5.6437877e-06
5.9277201e-06
6.2589309e-06
6.6386954e-06
7.0704624e-06
7.5585341e-06
8.1086275e-06
8.7277396e-06
9.4245076e-06
1.0209146e-05
1.1094522e-05
1.2069276e-05
1.3197737e-05
1.4482485e-05
1.5951519e-05
1.7639377e-05
1.9588734e-05
2.185232e-05
2.449529e-05
2.7598041e-05
3.1259623e-05
3.5601731e-05
4.0773443e-05
4.7267738e-05
5.4751302e-05
6.3758001e-05
7.4627275e-05
8.7765032e-05
0.00010366536
0.00012292944
0.00014628605
0.00017616423
0.00021079944
0.00025283479
0.00030384157
0.00036920953
0.00044483896
0.0005365868
0.00064786898
0.00078284698
0.00094658038
0.0011452226
0.0012092262
0.0012073162
0.0012053523
0.001203325
0.0012012233
0.0011990347
0.0011967447
0.0011943367
0.001191792
0.0011890898
0.001186517
0.0011842908
0.0011823679
0.0011807152
0.001179312
0.0011781279
0.0011771469
0.0011764581
0.0011759927
0.0011753174
0.0011753694
0.0011768144
1.2566309e-06
7.3670913e-06
7.6031458e-06
6.3020942e-06
7.6481216e-06
5.0492352e-06
5.0693384e-06
4.4125729e-06
4.3631887e-06
4.1753449e-06
4.1797986e-06
4.1950286e-06
4.2884664e-06
4.4188313e-06
4.5852385e-06
4.7985861e-06
5.0561439e-06
5.3561813e-06
5.7005799e-06
6.091581e-06
6.5329437e-06
7.0293156e-06
7.58655e-06
8.2117e-06
8.8996877e-06
9.6838366e-06
1.0566585e-05
1.156301e-05
1.2691596e-05
1.3975077e-05
1.5441503e-05
1.7125528e-05
1.9070042e-05
2.132809e-05
2.3965281e-05
2.7062606e-05
3.0719902e-05
3.505993e-05
4.023329e-05
4.6424312e-05
5.3858084e-05
6.3268289e-05
7.4160985e-05
8.7332197e-05
0.00010327627
0.00012259616
0.00014602304
0.00017444338
0.00021079073
0.00025295759
0.00030412257
0.00036620748
0.00044567392
0.00053772016
0.00064937001
0.00078480854
0.000949128
0.0011485274
0.0012080697
0.0012061575
0.0012041959
0.0012021761
0.0012000884
0.0011979214
0.0011956622
0.0011932958
0.0011908047
0.0011881698
0.0011857377
0.0011836386
0.0011818321
0.0011802875
0.0011789794
0.0011778727
0.0011769626
0.0011763198
0.0011758248
0.0011751987
0.0011753614
0.0011765627
1.2678117e-06
7.561105e-06
6.8173135e-06
6.7489431e-06
6.6404135e-06
4.0361278e-06
4.1132108e-06
3.6473273e-06
3.6118935e-06
3.5182142e-06
3.5513181e-06
3.6118938e-06
3.7315828e-06
3.8755283e-06
4.0701721e-06
4.3043119e-06
4.5785496e-06
4.8929429e-06
5.2497729e-06
5.6519183e-06
6.1033883e-06
6.6090484e-06
7.1665075e-06
7.7965542e-06
8.5018211e-06
9.2924294e-06
1.018069e-05
1.1181654e-05
1.2313806e-05
1.3599938e-05
1.5068235e-05
1.6753594e-05
1.8699244e-05
2.0958716e-05
2.3598244e-05
2.6699617e-05
3.0363637e-05
3.4714239e-05
3.9903366e-05
4.611688e-05
5.3582031e-05
6.2576001e-05
7.3989462e-05
8.7227872e-05
0.00010325558
0.00012267835
0.00014623055
0.00017480235
0.00021137933
0.00025377127
0.00030520603
0.00036761511
0.00044758484
0.00054012652
0.00065238341
0.00078857291
0.00095383105
0.0011544154
0.0012068778
0.0012049699
0.0012030167
0.0012010102
0.001198942
0.0011968021
0.0011945795
0.0011922608
0.0011898305
0.0011872697
0.0011849749
0.0011829985
0.001181303
0.0011798597
0.001178641
0.0011776107
0.0011767702
0.0011761681
0.0011756674
0.0011750977
0.0011752903
0.0011762578
1.0193593e-06
8.0947204e-06
5.90847e-06
4.2213614e-06
4.2743015e-06
3.34905e-06
3.2859153e-06
3.028313e-06
3.0003542e-06
2.9767722e-06
3.0380256e-06
3.1341027e-06
3.2662895e-06
3.4417749e-06
3.6569057e-06
3.908496e-06
4.1974983e-06
4.5251024e-06
4.8939514e-06
5.3073265e-06
5.7694002e-06
6.2792224e-06
6.8524164e-06
7.4918534e-06
8.2058688e-06
9.0045395e-06
9.9001332e-06
1.090769e-05
1.2045735e-05
1.3337175e-05
1.4810399e-05
1.650063e-05
1.8451547e-05
2.0717278e-05
2.3364804e-05
2.6476835e-05
3.0155297e-05
3.4525481e-05
3.974089e-05
4.5988717e-05
5.3497888e-05
6.3012677e-05
7.4031702e-05
8.7357575e-05
0.00010349278
0.0001230467
0.00014675792
0.00017552156
0.0002123428
0.00025501223
0.00030678039
0.00036959113
0.00045011259
0.00054325734
0.00065625312
0.00079335508
0.00095974953
0.0011617604
0.0012056594
0.001203762
0.0012018228
0.0011998349
0.0011977909
0.0011956823
0.0011935001
0.0011912336
0.0011888704
0.0011863949
0.0011842323
0.001182373
0.0011807822
0.0011794323
0.0011782944
0.0011773354
0.0011765623
0.0011760005
0.0011754959
0.0011749464
0.0011751478
0.0011758873
7.9963396e-07
5.9069204e-06
4.607758e-06
3.2475086e-06
3.3127399e-06
2.714766e-06
2.647933e-06
2.5032775e-06
2.5056485e-06
2.5322262e-06
2.6222822e-06
2.7396281e-06
2.9011444e-06
3.0984125e-06
3.3309712e-06
3.5977639e-06
3.9002306e-06
4.2402947e-06
4.6208738e-06
5.0454862e-06
5.5149143e-06
6.0396707e-06
6.6232667e-06
7.2726252e-06
7.9960263e-06
8.8034951e-06
9.7072698e-06
1.0722397e-05
1.1867476e-05
1.316557e-05
1.4645327e-05
1.6342341e-05
1.8300802e-05
2.0575488e-05
2.3234159e-05
2.6360456e-05
3.0057412e-05
3.4451742e-05
3.9699104e-05
4.5987742e-05
5.391857e-05
6.3105515e-05
7.4199953e-05
8.761853e-05
0.00010386689
0.00012355821
0.00014743571
0.00017639957
0.00021343309
0.00025638487
0.00030849288
0.00037171409
0.00045274001
0.00054649361
0.00066023728
0.00079826497
0.00096581445
0.0011692769
0.001204425
0.001202544
0.0012006243
0.0011986598
0.0011966438
0.0011945694
0.0011924289
0.0011902143
0.0011879167
0.0011855484
0.0011835104
0.001181762
0.0011802695
0.0011790056
0.0011779401
0.0011770452
0.001176331
0.0011758005
0.0011753019
0.0011748027
0.0011749707
0.0011754779
6.2486774e-07
3.3453635e-06
3.6613014e-06
2.6384547e-06
2.5592602e-06
2.1950954e-06
2.1457809e-06
2.0805866e-06
2.1130583e-06
2.1790531e-06
2.2945174e-06
2.4366934e-06
2.6191165e-06
2.8340351e-06
3.0814228e-06
3.3616027e-06
3.6764154e-06
4.0282193e-06
4.4200809e-06
4.855611e-06
5.3390693e-06
5.8722725e-06
6.466084e-06
7.1252077e-06
7.8578658e-06
8.6740378e-06
9.5859459e-06
1.0608666e-05
1.1760889e-05
1.3065852e-05
1.4552476e-05
1.6256746e-05
1.8223361e-05
2.0507747e-05
2.3178418e-05
2.631984e-05
3.0035827e-05
3.4642872e-05
3.9961142e-05
4.633641e-05
5.4002439e-05
6.3243542e-05
7.4404943e-05
8.7905147e-05
0.00010425227
0.00012406268
0.00014808439
0.00017877741
0.0002143799
0.00025756486
0.0003099539
0.00037351584
0.0004548875
0.00054913855
0.00066349753
0.00080229279
0.00097080806
0.0011754948
0.0012031861
0.0012013272
0.0011994324
0.0011974962
0.0011955125
0.0011934751
0.0011913772
0.0011892118
0.001186971
0.0011847311
0.0011828076
0.0011811613
0.0011797597
0.0011785747
0.0011775762
0.0011767413
0.0011760782
0.0011755717
0.0011750912
0.0011746584
0.0011747857
0.0011751058
5.0548322e-07
2.6022997e-06
2.8001792e-06
2.0851698e-06
1.99479e-06
1.7830863e-06
1.7558488e-06
1.7475339e-06
1.8083282e-06
1.9057002e-06
2.0435199e-06
2.2085735e-06
2.4081528e-06
2.6378735e-06
2.8982579e-06
3.1904534e-06
3.5165658e-06
3.8791779e-06
4.281418e-06
4.7269174e-06
5.2199013e-06
5.7652898e-06
6.3688659e-06
7.0375043e-06
7.7794789e-06
8.604858e-06
9.5260026e-06
1.0558193e-05
1.17204e-05
1.3036235e-05
1.4535097e-05
1.6253565e-05
1.8237072e-05
2.0541922e-05
2.3237682e-05
2.6410083e-05
3.0164424e-05
3.4629833e-05
3.9964182e-05
4.636013e-05
5.4052343e-05
6.3326329e-05
7.4529161e-05
8.8079449e-05
0.00010448594
0.00012541608
0.0001496965
0.00017913465
0.00021483505
0.00025813706
0.00031066711
0.00037793677
0.00045582497
0.00055032027
0.00066499193
0.000804192
0.00097323699
0.001178622
0.0012019538
0.0012001224
0.0011982579
0.0011963551
0.0011944086
0.0011924129
0.0011903621
0.0011882499
0.0011860697
0.0011839435
0.0011821213
0.0011805653
0.0011792439
0.0011781286
0.0011771901
0.0011764097
0.0011757907
0.0011753047
0.0011748487
0.0011744774
0.001174557
0.0011747194
3.8757525e-07
2.0218258e-06
2.1023145e-06
1.6557548e-06
1.5632317e-06
1.4531067e-06
1.4504139e-06
1.484367e-06
1.5708015e-06
1.6931406e-06
1.8494974e-06
2.0333942e-06
2.2463164e-06
2.4876796e-06
2.7584594e-06
3.0602745e-06
3.3953845e-06
3.7664841e-06
4.1767219e-06
4.6297233e-06
5.1296837e-06
5.6814888e-06
6.2908696e-06
6.9646298e-06
7.710966e-06
8.5398746e-06
9.4636563e-06
1.0497552e-05
1.1660522e-05
1.29762e-05
1.4474044e-05
1.619073e-05
1.8171826e-05
2.0473796e-05
2.3166439e-05
2.6335825e-05
3.0087291e-05
3.455008e-05
3.9882084e-05
4.6275767e-05
5.3965252e-05
6.3702046e-05
7.4985789e-05
8.8629631e-05
0.00010514404
0.00012514805
0.00014939213
0.00017878639
0.00021443511
0.00025767453
0.00031295728
0.00037704848
0.00045479942
0.00054914301
0.00066365215
0.00080268584
0.00097157148
0.0011768209
0.001200741
0.0011989421
0.0011971123
0.0011952472
0.0011933418
0.0011913913
0.0011893905
0.001187334
0.0011852162
0.0011831863
0.0011814499
0.0011799705
0.0011787168
0.00117766
0.0011767727
0.0011760388
0.0011754551
0.0011749868
0.0011745591
0.0011742399
0.0011742713
0.0011743141
2.439098e-07
1.6084401e-06
1.5278092e-06
1.3248909e-06
1.2415583e-06
1.1998439e-06
1.2247568e-06
1.2931534e-06
1.4040676e-06
1.5479799e-06
1.7210252e-06
1.9204726e-06
2.1460385e-06
2.3984703e-06
2.6792876e-06
2.9897915e-06
3.3334986e-06
3.7126565e-06
4.1304138e-06
4.5903941e-06
5.0968023e-06
5.6545383e-06
6.2692958e-06
6.9477771e-06
7.6980917e-06
8.5301511e-06
9.4561684e-06
1.0491308e-05
1.1654454e-05
1.2969173e-05
1.4464852e-05
1.6178082e-05
1.8154297e-05
2.0449756e-05
2.3221959e-05
2.640209e-05
3.0165859e-05
3.4642617e-05
3.9990279e-05
4.6401271e-05
5.4109638e-05
6.3399716e-05
7.4616654e-05
8.8179227e-05
0.00010459346
0.00012447372
0.00014856476
0.00017935697
0.00021503155
0.00025828709
0.0003107457
0.0003743786
0.00045158341
0.00054527918
0.00065902372
0.00079715938
0.00096499562
0.0011690241
0.0011995565
0.001197794
0.0011960028
0.0011941787
0.0011923175
0.0011904146
0.0011884657
0.0011864658
0.0011844101
0.0011824567
0.0011807885
0.0011793696
0.0011781692
0.0011771585
0.0011763121
0.0011756149
0.0011750574
0.0011746034
0.0011742026
0.0011739209
0.0011739014
0.001173854
3.4995143e-07
1.2872972e-06
1.1244801e-06
1.05854e-06
1.0139914e-06
1.012487e-06
1.0608484e-06
1.1518855e-06
1.2783033e-06
1.4336437e-06
1.6144012e-06
1.8193783e-06
2.0488647e-06
2.3040052e-06
2.586479e-06
2.8983641e-06
3.2420644e-06
3.6203726e-06
4.0364893e-06
4.4940882e-06
4.9973725e-06
5.5511238e-06
6.1606777e-06
6.8323513e-06
7.5743676e-06
8.3965835e-06
9.3111447e-06
1.0333094e-05
1.1481158e-05
1.2778694e-05
1.4254825e-05
1.5945808e-05
1.7896675e-05
2.0163198e-05
2.2814148e-05
2.5933823e-05
2.9625701e-05
3.4016776e-05
3.926206e-05
4.5550327e-05
5.3111235e-05
6.2223681e-05
7.3794874e-05
8.7201293e-05
0.00010342391
0.00012306981
0.00014687526
0.00017573352
0.00021072876
0.00025317761
0.00030467997
0.00036718159
0.00044305063
0.00053517217
0.0006470647
0.00078302517
0.0009483095
0.0011493469
0.0011983923
0.001196672
0.0011949245
0.001193146
0.0011913327
0.0011894807
0.0011875861
0.0011856449
0.0011836528
0.0011817536
0.0011801337
0.0011787577
0.0011775945
0.0011766158
0.0011757976
0.0011751249
0.0011745831
0.0011741375
0.0011737585
0.0011735072