/*--------------------------------*- C++ -*----------------------------------*\
  =========                 |
  \\      /  F ield         | OpenFOAM: The Open Source CFD Toolbox
   \\    /   O peration     | Website:  https://openfoam.org
    \\  /    A nd           | Version:  6
     \\/     M anipulation  |
\*---------------------------------------------------------------------------*/
FoamFile
{
    version     2.0;
    format      ascii;
    class       volScalarField;
    location    "950";
    object      k;
}
// * * * * * * * * * * * * * * * * * * * * * * * * * * * * * * * * * * * * * //

dimensions      [0 2 -2 0 0 0 0];

internalField   nonuniform List<scalar> 
16000
(
0.12704943
0.031825651
0.021278899
0.017656988
0.015203277
0.014344379
0.01332504
0.012994691
0.012523782
0.012307639
0.012053113
0.011888203
0.011726883
0.011600694
0.011488256
0.011394382
0.011315857
0.011249742
0.011193418
0.011145102
0.011103319
0.011066957
0.011035111
0.011007069
0.010982248
0.010960178
0.010940467
0.010922788
0.010906869
0.010892479
0.01087942
0.010867524
0.010856642
0.010846645
0.010837413
0.010828841
0.010820829
0.010813285
0.010806124
0.010799261
0.010792619
0.010786122
0.010779696
0.010773272
0.010766778
0.010760146
0.010753307
0.010746192
0.010738732
0.010730856
0.010722494
0.010713571
0.010704011
0.010693732
0.010682639
0.010670608
0.010657478
0.010643042
0.010627001
0.010608703
0.01058588
0.010559278
0.010527696
0.010489801
0.010444673
0.010392745
0.010336211
0.010280427
0.010228951
0.010185093
0.010145149
0.010115467
0.010084058
0.01006692
0.010042318
0.01005463
0.010033826
0.01012201
0.010037131
0.010122563
0.10749575
0.032332454
0.020773141
0.017535501
0.015017171
0.014266341
0.013226565
0.012927557
0.012452615
0.012242737
0.011990091
0.011825685
0.011667257
0.011540903
0.011434041
0.011346288
0.011272874
0.011211071
0.011158423
0.011113261
0.011074206
0.011040215
0.01101044
0.010984211
0.010960983
0.010940312
0.01092183
0.010905231
0.010890256
0.010876688
0.010864341
0.010853055
0.01084269
0.010833123
0.010824244
0.01081595
0.010808151
0.010800758
0.010793692
0.010786873
0.010780229
0.010773689
0.010767185
0.010760651
0.01075402
0.010747228
0.010740212
0.010732905
0.010725244
0.010717161
0.010708587
0.010699452
0.010689681
0.010679195
0.010667903
0.010655695
0.010642424
0.010627906
0.01061193
0.010594217
0.010574229
0.010550307
0.010521324
0.010485861
0.010442844
0.010392266
0.010336188
0.010279848
0.010228076
0.010183318
0.010143778
0.010112589
0.01008336
0.010066491
0.010041877
0.01004709
0.010029342
0.01010778
0.010035279
0.010121129
0.092929573
0.032785326
0.0202491
0.017389969
0.014825203
0.014172409
0.013124121
0.012849943
0.012378094
0.012170656
0.011923695
0.011757975
0.011604431
0.011482852
0.011383171
0.011301321
0.011232846
0.011175208
0.011126112
0.011083997
0.011047574
0.01101587
0.01098809
0.010963605
0.010941903
0.01092257
0.010905259
0.010889683
0.010875597
0.010862797
0.010851107
0.010840376
0.010830474
0.010821283
0.0108127
0.01080463
0.010796986
0.010789686
0.010782656
0.010775823
0.010769118
0.010762475
0.010755832
0.010749126
0.010742298
0.010735286
0.010728032
0.010720474
0.010712552
0.010704201
0.010695358
0.010685954
0.010675917
0.010665169
0.010653623
0.010641178
0.010627697
0.010613011
0.010596919
0.010579203
0.010559567
0.010537489
0.010511659
0.010479151
0.010438741
0.010390051
0.010334796
0.010278262
0.010226228
0.010181038
0.010141655
0.010109744
0.010081624
0.010065045
0.010041422
0.010042192
0.010026733
0.010095707
0.010033145
0.010111002
0.083381369
0.03296882
0.019727171
0.017220556
0.014631855
0.014060982
0.013020395
0.012760252
0.012300926
0.012090273
0.011853837
0.011684365
0.011541517
0.011428384
0.011335629
0.011259461
0.011195749
0.011142124
0.01109645
0.011057269
0.01102338
0.010993873
0.010968004
0.010945185
0.010924939
0.010906874
0.010890667
0.010876048
0.010862788
0.010850693
0.010839598
0.010829362
0.01081986
0.010810984
0.010802636
0.010794728
0.010787178
0.010779912
0.010772859
0.010765951
0.010759126
0.010752323
0.010745484
0.010738552
0.010731471
0.010724186
0.010716641
0.010708781
0.010700548
0.010691882
0.010682722
0.010673002
0.010662654
0.0106516
0.010639757
0.010627028
0.01061329
0.010598379
0.010582104
0.01056426
0.010544597
0.010522753
0.01049809
0.010469153
0.010431952
0.010385767
0.010331831
0.01027545
0.010223328
0.010177992
0.010138806
0.010106523
0.010079233
0.010061281
0.010040811
0.010039746
0.010024708
0.010082646
0.01003133
0.010104218
0.075012704
0.032771915
0.019218268
0.0170255
0.014438429
0.01393115
0.012915755
0.012657929
0.012221021
0.012001281
0.011780386
0.01161521
0.011482645
0.011377608
0.011291516
0.011220811
0.011161684
0.011111918
0.011069537
0.011033174
0.011001716
0.010974311
0.010950267
0.010929034
0.010910164
0.010893294
0.010878118
0.010864384
0.010851878
0.010840418
0.010829848
0.010820035
0.010810864
0.010802233
0.01079405
0.010786234
0.01077871
0.010771408
0.010764263
0.010757216
0.010750205
0.010743178
0.010736081
0.010728862
0.01072147
0.010713854
0.010705965
0.010697749
0.010689153
0.010680122
0.010670597
0.010660515
0.010649811
0.010638409
0.010626228
0.010613174
0.010599132
0.01058395
0.010567443
0.010549412
0.010529631
0.010507785
0.010483399
0.010455588
0.010422262
0.010379264
0.010327223
0.010271364
0.010219367
0.010174147
0.010135239
0.010102911
0.010076285
0.01005752
0.010039607
0.010037187
0.010023181
0.010070785
0.010029608
0.010093631
0.067676439
0.032035891
0.018734363
0.01680294
0.014246652
0.01378167
0.012810818
0.012542162
0.012138245
0.011907843
0.011703578
0.011550597
0.011427894
0.011330604
0.011250906
0.011185441
0.011130714
0.01108465
0.011045424
0.011011759
0.010982621
0.010957217
0.010934904
0.010915166
0.010897588
0.010881827
0.0108676
0.01085467
0.010842837
0.010831931
0.010821805
0.010812336
0.010803416
0.01079495
0.010786854
0.010779053
0.010771478
0.010764066
0.010756758
0.010749499
0.010742236
0.01073492
0.010727502
0.010719937
0.010712177
0.010704178
0.010695892
0.010687272
0.010678268
0.010668827
0.010658895
0.010648411
0.010637312
0.010625525
0.010612971
0.010599558
0.010585177
0.010569686
0.010552906
0.010534647
0.010514694
0.010492764
0.010468457
0.010441122
0.010409492
0.010370443
0.010320962
0.010266022
0.010214378
0.01016951
0.010131005
0.010098887
0.010072836
0.010053648
0.010037728
0.010034239
0.010021893
0.010061076
0.010028143
0.010085895
0.061247891
0.030959809
0.018278645
0.016550456
0.014058449
0.013611504
0.012706132
0.012412446
0.012051958
0.011820413
0.01163202
0.01149063
0.011377355
0.011287467
0.011213891
0.011153441
0.011102925
0.0110604
0.011024186
0.01099309
0.010966155
0.010942644
0.010921958
0.010903618
0.010887234
0.010872489
0.010859118
0.0108469
0.010835648
0.010825203
0.010815431
0.010806214
0.010797455
0.010789065
0.010780968
0.010773096
0.010765387
0.010757784
0.010750235
0.010742692
0.010735105
0.010727433
0.010719632
0.010711661
0.010703479
0.010695044
0.010686313
0.010677244
0.010667789
0.0106579
0.010647523
0.010636602
0.010625075
0.010612873
0.010599916
0.010586116
0.010571367
0.010555536
0.010538454
0.010519933
0.01049977
0.010477706
0.010453384
0.010426274
0.010395468
0.010359154
0.01031301
0.010259429
0.010208379
0.010164089
0.010126137
0.010094438
0.010068929
0.010049695
0.010035228
0.01003003
0.010020643
0.010052756
0.010026607
0.010077551
0.055614228
0.029921501
0.017834425
0.016266695
0.013875603
0.013420303
0.012602026
0.012283874
0.011960253
0.011739054
0.011565761
0.011435385
0.011331103
0.011248276
0.011180546
0.011124885
0.011078388
0.011039233
0.011005882
0.01097722
0.010952364
0.010930627
0.010911455
0.010894402
0.010879105
0.010865269
0.010852647
0.010841034
0.010830258
0.01082017
0.010810646
0.010801579
0.010792879
0.010784466
0.010776272
0.010768236
0.010760304
0.010752426
0.010744555
0.010736651
0.01072867
0.010720576
0.010712331
0.010703899
0.010695243
0.010686325
0.010677108
0.01066755
0.010657609
0.010647238
0.010636387
0.010625001
0.010613021
0.010600378
0.010586996
0.010572788
0.01055765
0.010541459
0.010524051
0.010505245
0.010484847
0.010462615
0.010438227
0.010411225
0.010380883
0.010345884
0.010303367
0.01025164
0.010201425
0.01015793
0.0101207
0.010089604
0.010064649
0.010045651
0.010032295
0.010025819
0.010019275
0.010044852
0.010024842
0.010069922
0.050669407
0.028966119
0.017403435
0.015951411
0.013699298
0.013207816
0.012496989
0.012163457
0.011867378
0.011663848
0.011504872
0.011384953
0.011289226
0.011213125
0.011150961
0.011099859
0.01105718
0.011021223
0.010990576
0.010964202
0.010941287
0.010921194
0.010903409
0.010887519
0.010873185
0.010860135
0.010848141
0.010837012
0.01082659
0.010816739
0.010807346
0.010798313
0.010789559
0.010781015
0.01077262
0.010764321
0.010756072
0.01074783
0.010739556
0.010731216
0.010722772
0.010714194
0.010705449
0.010696505
0.010687329
0.010677889
0.010668149
0.010658071
0.010647615
0.010636738
0.01062539
0.01061352
0.010601068
0.010587968
0.010574146
0.010559516
0.010543978
0.010527411
0.010509663
0.010490559
0.01046991
0.010447491
0.010423008
0.010396057
0.010366036
0.010331956
0.010292026
0.010242729
0.010193584
0.010151093
0.01011476
0.010084428
0.010060089
0.010041548
0.010029035
0.010021896
0.010017754
0.01003747
0.010022925
0.010062105
0.046321107
0.028073022
0.016986984
0.015603336
0.013530437
0.013005899
0.012388381
0.01205197
0.011781762
0.011594869
0.011449427
0.011339429
0.011251816
0.011182107
0.011125225
0.011078446
0.011039378
0.011006433
0.010978319
0.010954075
0.01093295
0.010914353
0.01089781
0.010882939
0.010869427
0.010857022
0.010845515
0.01083473
0.010824525
0.010814776
0.010805381
0.010796254
0.010787325
0.010778533
0.010769826
0.010761161
0.0107525
0.010743807
0.010735051
0.010726203
0.010717233
0.010708114
0.01069882
0.010689321
0.01067959
0.010669595
0.010659306
0.010648686
0.010637697
0.010626297
0.01061444
0.010602073
0.01058914
0.010575575
0.010561306
0.010546249
0.010530305
0.010513358
0.010495266
0.010475856
0.010454952
0.010432338
0.010407744
0.010380812
0.010351027
0.010317579
0.010279063
0.010232803
0.010184952
0.010143661
0.010108399
0.010078978
0.010055342
0.010037413
0.010025554
0.010018262
0.010016082
0.010030787
0.010020934
0.010054252
0.042489509
0.027221298
0.016586602
0.015221129
0.013367646
0.012817374
0.012272935
0.011949388
0.011703401
0.011532187
0.011399504
0.011298908
0.011218971
0.011155319
0.011103426
0.011060726
0.01102505
0.010994918
0.01096915
0.010946859
0.010927351
0.010910081
0.010894614
0.010880597
0.010867742
0.010855819
0.010844637
0.010834038
0.010823893
0.010814095
0.010804554
0.010795195
0.01078596
0.010776799
0.010767668
0.010758535
0.010749368
0.010740142
0.01073083
0.01072141
0.01071186
0.010702154
0.010692271
0.010682187
0.010671874
0.010661305
0.010650451
0.010639277
0.010627746
0.010615818
0.010603447
0.010590583
0.010577167
0.010563139
0.010548424
0.010532941
0.010516595
0.010499272
0.010480838
0.010461127
0.01043997
0.010417163
0.010392457
0.010365531
0.010335945
0.010303038
0.010265718
0.010221996
0.010175645
0.010135736
0.01010171
0.010073333
0.010050507
0.010033298
0.010021966
0.010014891
0.010014281
0.010025033
0.010019087
0.010047352
0.039105228
0.026389164
0.016204099
0.014803585
0.013208757
0.012642994
0.012151382
0.011855679
0.011632304
0.011475871
0.011355189
0.011263487
0.011190786
0.011132852
0.011085648
0.011046771
0.01101425
0.010986714
0.010963082
0.010942541
0.010924452
0.010908314
0.010893728
0.010880372
0.010867983
0.010856354
0.010845312
0.01083472
0.010824464
0.010814453
0.01080461
0.010794875
0.0107852
0.010775547
0.010765884
0.010756185
0.010746428
0.010736595
0.010726666
0.010716624
0.01070645
0.010696125
0.010685629
0.01067494
0.010664033
0.010652883
0.010641461
0.010629733
0.010617663
0.010605212
0.010592334
0.010578979
0.01056509
0.010550606
0.010535456
0.010519558
0.01050282
0.010485134
0.010466368
0.010446368
0.01042497
0.010401983
0.010377174
0.010350256
0.010320848
0.01028841
0.010252101
0.01021047
0.010165798
0.010127434
0.010094792
0.010067581
0.010045676
0.010029256
0.010018383
0.010011753
0.010012331
0.010020301
0.010017329
0.010041547
0.036107422
0.025553075
0.015841343
0.014419619
0.013050457
0.012483603
0.012040578
0.011770794
0.011568483
0.011425986
0.011316564
0.01123326
0.011167353
0.011114791
0.011071961
0.011036627
0.011007003
0.010981817
0.010960086
0.010941061
0.010924161
0.010908924
0.010894992
0.010882072
0.010869929
0.01085838
0.010847274
0.010836491
0.010825938
0.010815539
0.010805235
0.010794978
0.010784734
0.010774476
0.01076418
0.010753831
0.010743413
0.010732916
0.010722324
0.010711625
0.010700803
0.010689843
0.010678725
0.010667428
0.01065593
0.010644206
0.010632225
0.010619955
0.010607361
0.010594402
0.010581034
0.010567205
0.010552861
0.01053794
0.010522372
0.010506077
0.010488966
0.010470935
0.010451858
0.010431589
0.01040997
0.010386823
0.010361931
0.010335033
0.010305797
0.010273781
0.010238334
0.010198409
0.010155568
0.010118887
0.010087755
0.010061818
0.01004094
0.010025343
0.0100149
0.010008823
0.010010154
0.010016367
0.010015699
0.010036545
0.033444183
0.024688356
0.015497514
0.014069764
0.012888017
0.012338769
0.011940321
0.01169471
0.011511982
0.011382614
0.011283727
0.011208321
0.011148759
0.011101204
0.011062417
0.011030321
0.011003298
0.010980178
0.010960068
0.010942284
0.010926297
0.010911693
0.010898149
0.010885408
0.010873263
0.010861556
0.01085016
0.010838979
0.010827937
0.010816977
0.010806057
0.010795143
0.010784213
0.01077325
0.010762242
0.010751179
0.010740051
0.010728853
0.010717575
0.010706205
0.010694731
0.010683137
0.010671406
0.010659516
0.010647445
0.010635167
0.010622651
0.010609865
0.010596772
0.010583331
0.010569498
0.010555222
0.010540449
0.010525116
0.010509155
0.010492489
0.010475031
0.01045668
0.010437319
0.010416807
0.010394997
0.010371719
0.010346773
0.010319918
0.010290866
0.010259244
0.010224546
0.010186016
0.010145124
0.010110234
0.01008071
0.010056141
0.010036385
0.010021626
0.010011607
0.010006128
0.010007728
0.010012042
0.010014119
0.010032365
0.031070486
0.023767495
0.015171376
0.013752288
0.012714725
0.012208039
0.01185043
0.011627402
0.011462851
0.011345828
0.011256763
0.011188748
0.011135081
0.011092138
0.01105702
0.011027809
0.011003041
0.010981651
0.010962829
0.010945957
0.010930564
0.010916279
0.010902822
0.01088997
0.01087755
0.010865432
0.010853516
0.010841727
0.010830011
0.010818329
0.010806654
0.010794969
0.010783261
0.010771523
0.010759749
0.010747935
0.010736077
0.01072417
0.010712205
0.010700175
0.010688066
0.010675863
0.010663546
0.010651095
0.010638483
0.010625686
0.010612671
0.010599404
0.010585848
0.010571962
0.010557699
0.01054301
0.01052784
0.010512128
0.010495807
0.010478802
0.010461029
0.010442391
0.010422777
0.010402057
0.01038009
0.010356718
0.010331754
0.010304978
0.010276132
0.010244899
0.010210876
0.010173508
0.010134648
0.01010162
0.010073771
0.010050647
0.010032089
0.010018182
0.010008605
0.010003684
0.010005274
0.010008266
0.010012437
0.010028703
0.028947764
0.022760547
0.014860916
0.013466504
0.012548856
0.012090974
0.011770758
0.011568844
0.011421143
0.011315683
0.01123576
0.011174609
0.011126339
0.011087559
0.011055677
0.011028933
0.011006013
0.01098595
0.010968023
0.01095168
0.010936509
0.010922191
0.010908487
0.010895215
0.010882238
0.010869456
0.010856796
0.010844208
0.010831656
0.010819121
0.010806588
0.010794052
0.01078151
0.010768961
0.010756403
0.010743836
0.010731257
0.01071866
0.01070604
0.010693384
0.010680681
0.010667911
0.010655055
0.010642088
0.010628983
0.010615714
0.010602245
0.010588544
0.01057457
0.01056028
0.01054563
0.010530569
0.010515042
0.01049899
0.010482347
0.01046504
0.010446989
0.010428102
0.010408274
0.010387383
0.0103653
0.010341876
0.010316939
0.010290286
0.010261684
0.010230855
0.01019747
0.010161106
0.010124324
0.010093192
0.01006705
0.010045419
0.01002811
0.010015072
0.01000599
0.010001534
0.010002821
0.010004903
0.010010482
0.010025375
0.027043751
0.021635542
0.014562959
0.013211073
0.012400391
0.011987294
0.011701239
0.011518949
0.011386856
0.011292248
0.011220757
0.01116589
0.011122455
0.011087315
0.011058155
0.011033379
0.011011817
0.010992605
0.010975113
0.010958861
0.010943499
0.010928767
0.010914471
0.010900471
0.010886667
0.010872991
0.010859396
0.010845855
0.01083235
0.010818874
0.010805427
0.010792009
0.010778622
0.010765269
0.010751951
0.010738665
0.010725409
0.010712175
0.010698953
0.01068573
0.010672491
0.010659216
0.01064588
0.010632457
0.010618919
0.010605234
0.010591367
0.010577284
0.010562943
0.0105483
0.01053331
0.010517922
0.010502084
0.010485735
0.010468813
0.010451247
0.010432959
0.010413865
0.010393865
0.010372847
0.010350692
0.010327263
0.010302401
0.010275922
0.010247612
0.010217225
0.010184475
0.010149029
0.010114332
0.010085091
0.010060652
0.010040529
0.010024486
0.01001233
0.010003812
0.0099997406
0.010000508
0.010001886
0.010008336
0.010022328
0.025332507
0.020359934
0.014270555
0.01298434
0.012268651
0.011896698
0.011641908
0.011477802
0.011360122
0.011275576
0.011211732
0.011162467
0.011123199
0.011091064
0.011064005
0.011040596
0.011019812
0.011000901
0.010983325
0.01096669
0.01095071
0.010935183
0.010919966
0.010904961
0.010890104
0.010875355
0.010860693
0.010846107
0.010831594
0.010817155
0.010802795
0.010788518
0.010774328
0.010760226
0.01074621
0.010732276
0.010718418
0.010704623
0.010690878
0.010677167
0.010663469
0.010649761
0.010636018
0.010622209
0.010608303
0.010594266
0.010580063
0.010565656
0.010551004
0.010536062
0.010520784
0.010505121
0.010489019
0.010472422
0.010455267
0.010437487
0.010419009
0.010399752
0.010379625
0.010358526
0.010336346
0.010312959
0.010288224
0.010261974
0.010234014
0.01020412
0.010172037
0.010137482
0.010104847
0.010077454
0.010054677
0.010036036
0.010021237
0.010009974
0.010002084
0.0099983314
0.0099984829
0.0099993499
0.01000635
0.010019354
0.023794948
0.019106864
0.013970559
0.012784753
0.012152805
0.011818682
0.011592063
0.011445404
0.011340949
0.01126555
0.011208452
0.011163964
0.011128056
0.011098152
0.011072451
0.011049705
0.01102904
0.011009829
0.010991633
0.010974141
0.010957139
0.010940481
0.010924074
0.01090786
0.010891805
0.010875891
0.010860114
0.010844473
0.010828973
0.010813617
0.010798411
0.010783357
0.010768453
0.010753698
0.010739085
0.010724605
0.010710245
0.010695988
0.010681817
0.010667708
0.01065364
0.010639583
0.010625511
0.010611391
0.010597188
0.010582868
0.010568393
0.010553724
0.010538819
0.010523635
0.010508124
0.010492238
0.010475925
0.010459129
0.010441791
0.010423846
0.010405226
0.010385855
0.010365649
0.010344516
0.010322356
0.010299061
0.010274503
0.010248534
0.010220983
0.010191646
0.010160289
0.01012665
0.010096023
0.010070406
0.010049211
0.010031981
0.010018368
0.010007993
0.010000754
0.0099972455
0.0099968448
0.0099974569
0.010004372
0.010016292
0.022414438
0.018046243
0.013654101
0.012611529
0.012052717
0.011752351
0.011552197
0.011421767
0.011329173
0.011261787
0.011210336
0.011169606
0.011136083
0.011107495
0.011082299
0.011059448
0.011038217
0.011018111
0.010998792
0.010980034
0.01096169
0.010943669
0.010925916
0.010908402
0.010891116
0.010874052
0.010857212
0.010840598
0.010824213
0.010808058
0.010792131
0.010776429
0.010760944
0.010745667
0.010730583
0.010715678
0.010700932
0.010686324
0.01067183
0.010657424
0.010643078
0.010628761
0.010614442
0.010600088
0.010585662
0.010571127
0.010556445
0.010541577
0.01052648
0.010511111
0.010495423
0.010479369
0.010462897
0.010445955
0.010428486
0.010410428
0.010391716
0.010372281
0.010352045
0.010330925
0.010308833
0.010285673
0.010261336
0.010235696
0.010208605
0.010179889
0.010149334
0.010116685
0.010087988
0.010064055
0.010044338
0.010028405
0.010015879
0.010006354
0.009999739
0.0099964169
0.00999565
0.0099961617
0.010002255
0.010012929
0.021168134
0.017138583
0.013372369
0.012458812
0.011966466
0.011697749
0.011522019
0.011406269
0.011324002
0.011263299
0.011216201
0.011178036
0.011145782
0.011117502
0.011091927
0.011068207
0.011045779
0.011024274
0.011003452
0.010983162
0.010963312
0.010943849
0.010924745
0.010905986
0.010887565
0.01086948
0.010851729
0.010834306
0.010817208
0.010800426
0.01078395
0.010767765
0.010751857
0.010736207
0.010720795
0.010705598
0.01069059
0.010675746
0.010661037
0.010646432
0.010631901
0.010617411
0.010602928
0.010588416
0.010573838
0.010559157
0.010544333
0.010529328
0.010514098
0.010498602
0.010482793
0.010466626
0.010450051
0.010433017
0.01041547
0.010397351
0.010378601
0.010359154
0.01033894
0.010317882
0.010295903
0.01027292
0.01024884
0.010223558
0.010196957
0.010168899
0.010139218
0.010107705
0.010080836
0.010058488
0.010040137
0.01002537
0.010013802
0.01000504
0.0099990086
0.0099958644
0.0099947202
0.0099947616
0.009999949
0.01000893
0.020036458
0.016336635
0.013122129
0.012321185
0.011892682
0.011655049
0.011500932
0.011398027
0.011324189
0.011268521
0.011224238
0.011187272
0.01115509
0.011126119
0.01109935
0.01107413
0.011050047
0.01102684
0.011004351
0.010982478
0.010961164
0.010940371
0.010920077
0.010900269
0.010880933
0.010862055
0.010843622
0.010825618
0.010808026
0.010790825
0.010773994
0.010757511
0.01074135
0.010725485
0.010709888
0.010694532
0.010679385
0.010664418
0.010649597
0.010634891
0.010620265
0.010605685
0.010591114
0.010576517
0.010561857
0.010547095
0.010532193
0.010517111
0.010501808
0.010486242
0.010470369
0.010454144
0.01043752
0.010420449
0.010402878
0.010384755
0.010366021
0.010346616
0.010326476
0.010305532
0.010283715
0.01026095
0.010237157
0.010212249
0.010186134
0.010158707
0.010129857
0.010099793
0.010074627
0.010053752
0.010036664
0.010022952
0.01001222
0.010004115
0.0099985735
0.0099955648
0.0099941567
0.0099939346
0.0099981056
0.010005089
0.019009865
0.015609661
0.012903471
0.012202907
0.011832594
0.011623207
0.011487485
0.011395083
0.011327426
0.011274883
0.011231753
0.011194624
0.011161446
0.011130982
0.011102462
0.011075407
0.01104952
0.011024613
0.01100057
0.010977314
0.01095479
0.010932958
0.010911783
0.010891237
0.01087129
0.010851912
0.010833074
0.010814747
0.010796898
0.010779498
0.010762513
0.010745913
0.010729664
0.010713735
0.010698091
0.010682701
0.010667529
0.010652543
0.010637708
0.010622989
0.010608351
0.010593758
0.010579173
0.010564561
0.010549884
0.010535104
0.010520184
0.010505084
0.010489765
0.010474186
0.010458304
0.010442077
0.01042546
0.010408407
0.010390869
0.010372796
0.010354134
0.010334829
0.01031482
0.010294045
0.010272441
0.010249941
0.010226474
0.010201964
0.010176327
0.010149475
0.010121308
0.010093007
0.01006938
0.010049839
0.010033896
0.010021137
0.010011163
0.010003653
0.0099985264
0.0099956126
0.0099940832
0.0099938526
0.0099972301
0.010002767
0.018082865
0.014944234
0.012713601
0.012103353
0.011783897
0.011599365
0.011478567
0.011393963
0.011330131
0.011278827
0.011235379
0.011197027
0.011162163
0.011129832
0.011099448
0.011070642
0.011043181
0.011016903
0.010991697
0.010967475
0.010944167
0.010921712
0.010900054
0.010879143
0.010858929
0.010839366
0.010820409
0.010802016
0.010784143
0.010766751
0.0107498
0.010733251
0.010717067
0.01070121
0.010685644
0.010670333
0.01065524
0.01064033
0.010625568
0.010610918
0.010596343
0.010581809
0.010567279
0.010552717
0.010538086
0.010523349
0.010508471
0.010493411
0.010478133
0.010462597
0.010446762
0.010430589
0.010414035
0.010397055
0.010379606
0.010361639
0.010343107
0.010323957
0.010304136
0.010283587
0.010262254
0.010240076
0.010216992
0.010192933
0.010167828
0.0101416
0.010114166
0.010087398
0.010065107
0.010046726
0.010031776
0.01001984
0.010010527
0.010003544
0.0099987707
0.0099959391
0.0099943648
0.0099941598
0.0099968874
0.01000115
0.017254948
0.0143824
0.012550895
0.01201947
0.011743446
0.011579408
0.011469641
0.011389974
0.011327769
0.011276193
0.011231491
0.011191471
0.011154862
0.011120888
0.011089057
0.011059037
0.011030595
0.011003558
0.010977787
0.010953168
0.010929603
0.010907005
0.010885297
0.010864409
0.010844273
0.010824832
0.010806027
0.010787808
0.010770124
0.01075293
0.01073618
0.010719832
0.010703847
0.010688184
0.010672805
0.010657674
0.010642752
0.010628004
0.010613394
0.010598887
0.010584447
0.01057004
0.010555629
0.010541179
0.010526655
0.010512021
0.010497242
0.01048228
0.010467099
0.010451662
0.010435931
0.010419867
0.01040343
0.01038658
0.010369274
0.01035147
0.010333121
0.010314182
0.010294603
0.010274333
0.010253322
0.010231516
0.01020886
0.010185296
0.010160761
0.010135191
0.010108515
0.010083018
0.010061835
0.010044414
0.010030283
0.010019024
0.010010258
0.010003711
0.0099992181
0.009996461
0.0099949089
0.0099947583
0.0099969772
0.010000266
0.016542969
0.013928196
0.012412887
0.011946357
0.011705127
0.011556803
0.01145446
0.011377551
0.011315759
0.011263482
0.01121765
0.011176457
0.01113882
0.011104044
0.011071645
0.01104127
0.011012652
0.010985585
0.0109599
0.010935456
0.010912133
0.010889826
0.010868443
0.010847902
0.010828127
0.010809051
0.010790611
0.010772751
0.010755418
0.010738563
0.01072214
0.010706106
0.01069042
0.010675041
0.010659933
0.010645057
0.010630378
0.01061586
0.010601467
0.010587165
0.010572919
0.010558696
0.010544461
0.010530179
0.010515817
0.01050134
0.010486714
0.010471903
0.010456875
0.010441591
0.010426018
0.010410117
0.010393853
0.010377186
0.010360078
0.010342488
0.010324376
0.010305698
0.01028641
0.010266466
0.010245821
0.010224427
0.010202236
0.010179197
0.010155255
0.010130354
0.010104432
0.010079909
0.010059575
0.010042886
0.010029376
0.010018629
0.010010279
0.01000406
0.0099997655
0.0099970591
0.0099955393
0.0099953958
0.0099971519
0.0099996534
0.015838921
0.013523264
0.012273479
0.011864531
0.01165244
0.011518077
0.011422671
0.011349162
0.011289014
0.011237546
0.011192122
0.01115115
0.011113629
0.011079113
0.011047154
0.011017342
0.010989367
0.010962985
0.010938003
0.010914264
0.010891636
0.010870012
0.010849296
0.010829403
0.010810254
0.010791778
0.01077391
0.010756595
0.010739779
0.010723413
0.010707454
0.010691858
0.010676586
0.010661599
0.010646862
0.010632337
0.010617991
0.010603789
0.010589696
0.01057568
0.010561708
0.010547746
0.010533762
0.010519723
0.010505596
0.010491349
0.010476948
0.01046236
0.010447553
0.010432492
0.010417143
0.010401473
0.010385446
0.010369026
0.010352177
0.010334862
0.010317042
0.010298679
0.010279732
0.010260159
0.01023992
0.010218974
0.010197278
0.010174788
0.010151458
0.010127241
0.010102087
0.010078195
0.01005841
0.010042194
0.010029078
0.01001865
0.010010559
0.010004536
0.010000341
0.0099976468
0.0099961694
0.0099960728
0.009997544
0.0099995345
0.014482693
0.012851032
0.012018423
0.011703733
0.011532442
0.011420773
0.011339685
0.011276204
0.011223811
0.011178863
0.01113924
0.011103621
0.01107114
0.011040976
0.011012661
0.01098592
0.010960545
0.010936369
0.010913258
0.010891102
0.010869805
0.010849285
0.010829522
0.010810528
0.010792224
0.010774539
0.010757411
0.010740785
0.010724611
0.010708843
0.01069344
0.010678362
0.010663574
0.010649039
0.010634725
0.010620598
0.010606627
0.01059278
0.010579028
0.010565338
0.010551679
0.01053802
0.010524329
0.010510575
0.010496728
0.010482755
0.010468625
0.010454307
0.010439769
0.010424979
0.010409905
0.010394513
0.010378771
0.010362645
0.0103461
0.010329101
0.010311613
0.010293598
0.010275019
0.010255838
0.010236016
0.010215516
0.010194299
0.010172324
0.010149552
0.01012594
0.010101444
0.010077855
0.010058328
0.010042324
0.010029371
0.010019059
0.010011041
0.010005035
0.010000777
0.0099979786
0.0099964413
0.0099962011
0.0099971639
0.0099986064
0.014032453
0.012628101
0.011866384
0.011588447
0.011437591
0.011339616
0.011268148
0.011211906
0.011165054
0.01112446
0.011088305
0.011055489
0.0110253
0.010997257
0.010971032
0.01094638
0.010923108
0.010901056
0.010880091
0.010860095
0.010840967
0.010822614
0.010804909
0.010787709
0.010770977
0.010754678
0.010738776
0.010723241
0.01070804
0.010693144
0.010678525
0.010664154
0.010650004
0.010636047
0.010622259
0.010608612
0.010595081
0.010581668
0.010568343
0.010555074
0.010541828
0.010528576
0.010515285
0.010501925
0.010488466
0.010474878
0.010461131
0.010447193
0.010433034
0.010418625
0.010403932
0.010388926
0.010373573
0.010357843
0.010341701
0.010325115
0.010308049
0.010290469
0.01027234
0.010253623
0.010234283
0.010214283
0.010193588
0.010172158
0.010149955
0.010126939
0.010103069
0.010079219
0.010059479
0.010043317
0.010030244
0.010019836
0.010011736
0.01000564
0.01000127
0.0099983677
0.0099967559
0.0099963534
0.0099969758
0.0099982242
0.013585545
0.012398885
0.011681696
0.011443417
0.011316092
0.011235961
0.011177688
0.011131813
0.011093237
0.011059426
0.011028931
0.01100092
0.010974869
0.01095043
0.010927356
0.010905461
0.0108846
0.010864657
0.010845534
0.010827152
0.010809442
0.010792344
0.010775805
0.010759779
0.010744227
0.010729113
0.0107144
0.010700054
0.010686043
0.010672335
0.010658898
0.010645702
0.010632716
0.010619913
0.010607261
0.010594734
0.010582302
0.010569908
0.010557524
0.010545128
0.010532698
0.010520208
0.010507636
0.010494956
0.010482144
0.010469172
0.010456017
0.01044265
0.010429045
0.010415175
0.01040101
0.010386523
0.010371684
0.010356463
0.010340829
0.01032475
0.010308196
0.010291131
0.010273523
0.010255336
0.010236534
0.010217083
0.010196948
0.010176092
0.010154478
0.010132066
0.010108817
0.010084691
0.010064103
0.010047219
0.010033528
0.010022591
0.010014033
0.010007527
0.010002788
0.0099995667
0.0099976711
0.0099969416
0.009997191
0.0099982256
55.527947
100.81541
60.492564
41.019836
28.48576
19.904626
14.066328
10.071196
7.2707512
5.2684063
3.8155917
2.7604807
1.9883192
1.4293431
1.0183292
0.72150328
0.50665382
0.35338519
0.24556509
0.17018051
0.11789949
0.082023849
0.057697172
0.041403474
0.030640383
0.023626012
0.019121073
0.016264755
0.014474335
0.013362069
0.012673922
0.012246727
0.011977739
0.011803492
0.011685571
0.01160118
0.011537044
0.011485543
0.011442341
0.011404963
0.011371955
0.011342421
0.011315775
0.011291573
0.011269445
0.011248972
0.011229094
0.011204541
0.011169736
0.011125061
0.011074516
0.011022593
0.01097221
0.010925059
0.010881493
0.010841741
0.010805747
0.010774938
0.010747254
0.010722516
0.01069576
0.010670113
0.01063616