/*--------------------------------*- C++ -*----------------------------------*\
  =========                 |
  \\      /  F ield         | OpenFOAM: The Open Source CFD Toolbox
   \\    /   O peration     | Website:  https://openfoam.org
    \\  /    A nd           | Version:  6
     \\/     M anipulation  |
\*---------------------------------------------------------------------------*/
FoamFile
{
    version     2.0;
    format      ascii;
    class       volScalarField;
    location    "950";
    object      nut;
}
// * * * * * * * * * * * * * * * * * * * * * * * * * * * * * * * * * * * * * //

dimensions      [0 2 -1 0 0 0 0];

internalField   nonuniform List<scalar> 
16000
(
5.234892e-06
2.1317508e-05
2.322322e-05
3.3079786e-05
2.8501262e-05
3.668769e-05
3.6271738e-05
4.0916945e-05
4.2323603e-05
4.2375127e-05
4.3117246e-05
4.1705794e-05
4.1871586e-05
4.0752222e-05
4.0770528e-05
4.0232192e-05
4.0386446e-05
4.0396693e-05
4.0798224e-05
4.1238195e-05
4.1937225e-05
4.2762065e-05
4.3803484e-05
4.5022493e-05
4.6465244e-05
4.8135334e-05
5.0069926e-05
5.2296641e-05
5.4860381e-05
5.7810448e-05
6.1210968e-05
6.5139107e-05
6.9690553e-05
7.4982008e-05
8.1157254e-05
8.8392719e-05
9.6905343e-05
0.00010696183
0.00011889021
0.00013309372
0.00015006803
0.00017042398
0.00019491172
0.00022445082
0.00026016643
0.00030343033
0.00035590483
0.00041959091
0.00049687532
0.000590572
0.0007039514
0.00084077087
0.0010053382
0.0010410303
0.0010421208
0.0010423415
0.0010419346
0.0010411778
0.001040258
0.0010392058
0.0010378996
0.0010363795
0.001034578
0.0010324203
0.0010298528
0.0010268962
0.0010236688
0.001020466
0.0010174861
0.0010149145
0.0010125443
0.0010107298
0.0010087979
0.0010076425
0.0010060395
0.0010064739
0.0010050036
0.0010095757
0.0010043508
0.0010084767
4.3566344e-06
2.1080879e-05
2.1291272e-05
3.0241857e-05
2.6323017e-05
3.3073507e-05
3.3402833e-05
3.6551101e-05
3.8607795e-05
3.7742767e-05
3.8864586e-05
3.709927e-05
3.742206e-05
3.618042e-05
3.6261249e-05
3.5724128e-05
3.5885994e-05
3.5877977e-05
3.6241586e-05
3.662887e-05
3.7251856e-05
3.7984937e-05
3.8911016e-05
3.9994705e-05
4.1276489e-05
4.2759803e-05
4.4476885e-05
4.6452306e-05
4.8725161e-05
5.1338773e-05
5.4349114e-05
5.7823724e-05
6.1846274e-05
6.6518681e-05
7.1966416e-05
7.8343337e-05
8.5838406e-05
9.4683637e-05
0.00010516404
0.00011762939
0.00013250856
0.00015032945
0.00017173945
0.0001975309
0.00022867218
0.00026634408
0.00031197877
0.00036730455
0.00043439323
0.00051570675
0.00061414227
0.00073307247
0.00087641415
0.0010396705
0.0010409749
0.0010413374
0.0010409939
0.0010402497
0.0010393333
0.001038312
0.0010371604
0.0010357865
0.0010341272
0.0010321027
0.0010296512
0.0010267692
0.0010235672
0.0010203336
0.0010173372
0.0010147152
0.0010123673
0.0010104682
0.001008658
0.0010075172
0.001005913
0.0010059477
0.0010046473
0.0010086717
0.0010041356
0.0010082747
3.719755e-06
2.0839459e-05
1.977736e-05
2.7815556e-05
2.4586645e-05
2.9988927e-05
3.1220167e-05
3.2696576e-05
3.5419459e-05
3.3514148e-05
3.4967628e-05
3.2851025e-05
3.3300672e-05
3.2017238e-05
3.2160002e-05
3.1645289e-05
3.1813069e-05
3.1803723e-05
3.2138317e-05
3.2490485e-05
3.3053933e-05
3.3716721e-05
3.4551067e-05
3.5527307e-05
3.6679859e-05
3.8013093e-05
3.9554883e-05
4.1327716e-05
4.336603e-05
4.5708536e-05
4.840481e-05
5.1514847e-05
5.5112863e-05
5.9289244e-05
6.4155132e-05
6.9846778e-05
7.6531292e-05
8.4413761e-05
9.3745809e-05
0.00010483575
0.00011806072
0.00013388443
0.00015287461
0.00017572494
0.00020328186
0.00023657667
0.00027686005
0.00032564214
0.00038473774
0.00045631268
0.00054293354
0.00064761633
0.0007738896
0.00092589104
0.0010398203
0.0010403392
0.001040068
0.0010393353
0.0010384125
0.0010373896
0.001036256
0.0010349822
0.0010334951
0.0010316323
0.0010293238
0.0010265456
0.0010233889
0.0010201442
0.0010171327
0.0010144862
0.0010121467
0.0010102066
0.001008458
0.0010073327
0.0010057834
0.0010055676
0.0010043942
0.0010078869
0.0010039047
0.001007591
3.3103097e-06
2.0515705e-05
1.849983e-05
2.5541085e-05
2.2952398e-05
2.7166072e-05
2.9093455e-05
2.9243452e-05
3.2316812e-05
2.9737995e-05
3.1302906e-05
2.9035222e-05
2.9537398e-05
2.8329384e-05
2.8486679e-05
2.8025017e-05
2.8185159e-05
2.8188532e-05
2.8495602e-05
2.8823684e-05
2.9336732e-05
2.9942389e-05
3.0699661e-05
3.1586006e-05
3.2629743e-05
3.3836613e-05
3.5230678e-05
3.6832903e-05
3.8673943e-05
4.0788816e-05
4.3221923e-05
4.6027233e-05
4.9271365e-05
5.3035505e-05
5.7419364e-05
6.2545201e-05
6.8562905e-05
7.5656245e-05
8.4050778e-05
9.4022622e-05
0.00010590863
0.00012012302
0.00013717247
0.00015767532
0.00018238513
0.00021222006
0.00024829348
0.00029195054
0.00034481089
0.00040881357
0.00048626826
0.00057990874
0.00069295426
0.00082920006
0.00099312805
0.001039342
0.0010391551
0.0010384357
0.0010375028
0.0010364715
0.0010353348
0.0010340723
0.0010326479
0.0010309803
0.0010288476
0.0010262069
0.0010231225
0.0010198855
0.0010168685
0.0010142131
0.0010118838
0.001009922
0.0010082193
0.0010070162
0.0010056431
0.0010053232
0.0010041722
0.0010070458
0.0010036928
0.0010071029
2.9726205e-06
2.007639e-05
1.7469187e-05
2.3429572e-05
2.1448431e-05
2.4584989e-05
2.7086598e-05
2.6116422e-05
2.9334073e-05
2.6313103e-05
2.7860007e-05
2.5632938e-05
2.6118031e-05
2.5029186e-05
2.5176591e-05
2.4782696e-05
2.4930446e-05
2.4953705e-05
2.5237016e-05
2.5548445e-05
2.601956e-05
2.657834e-05
2.7270958e-05
2.8081746e-05
2.9033564e-05
3.0133504e-05
3.1402464e-05
3.2860151e-05
3.4534149e-05
3.6456453e-05
3.8667216e-05
4.1215452e-05
4.4161593e-05
4.7579283e-05
5.1558938e-05
5.6211476e-05
6.1672839e-05
6.8109606e-05
7.5726352e-05
8.4773637e-05
9.555619e-05
0.000108449
0.00012391061
0.00014250033
0.00016489909
0.00019193704
0.00022462098
0.0002641683
0.00031204735
0.00037002055
0.00044019556
0.00052508068
0.00062764878
0.0007514187
0.00090057174
0.0010383366
0.0010382499
0.0010375472
0.0010366018
0.0010355586
0.0010344137
0.0010331494
0.0010317384
0.0010301311
0.0010282106
0.0010257446
0.001022764
0.001019555
0.0010165438
0.0010138938
0.0010115791
0.0010096139
0.0010079474
0.0010066979
0.0010054674
0.0010050706
0.0010039769
0.0010062714
0.0010034879
0.0010064109
2.6856802e-06
1.7273187e-05
1.6548423e-05
2.1432259e-05
2.0083127e-05
2.2199416e-05
2.5193229e-05
2.3273249e-05
2.6485964e-05
2.3237458e-05
2.4663762e-05
2.2619867e-05
2.3043895e-05
2.2096779e-05
2.2219967e-05
2.1898696e-05
2.2032282e-05
2.2077908e-05
2.2341266e-05
2.2640825e-05
2.3077412e-05
2.359771e-05
2.4236578e-05
2.4984324e-05
2.5859324e-05
2.6869749e-05
2.8033971e-05
2.9370633e-05
3.0904865e-05
3.2666181e-05
3.4691287e-05
3.7025147e-05
3.972317e-05
4.2852879e-05
4.6497169e-05
5.0757735e-05
5.5759322e-05
6.1654689e-05
6.8631432e-05
7.6919877e-05
8.6799041e-05
9.8612542e-05
0.00011278072
0.00012981613
0.00015034198
0.00017511871
0.00020506878
0.00024130808
0.0002851846
0.00033831912
0.00040265569
0.00048051735
0.00057467079
0.00068840464
0.00082563966
0.00099104854
0.0010373474
0.0010366677
0.0010357078
0.0010346502
0.001033494
0.0010322231
0.0010308146
0.0010292315
0.0010274026
0.0010251532
0.0010223128
0.0010191534
0.0010161606
0.001013529
0.0010112356
0.001009281
0.0010076458
0.0010063716
0.0010052522
0.0010047949
0.0010037941
0.0010056177
0.0010032998
0.0010058857
2.4166625e-06
1.6416052e-05
1.5429857e-05
1.9543905e-05
1.8844836e-05
2.0009586e-05
2.3383341e-05
2.0689752e-05
2.3770119e-05
2.0529534e-05
2.1764625e-05
1.9952712e-05
2.0290912e-05
1.949119e-05
1.9583762e-05
1.9332625e-05
1.9452533e-05
1.9519687e-05
1.9766644e-05
2.0057088e-05
2.0465186e-05
2.0953392e-05
2.1547375e-05
2.2242174e-05
2.3052702e-05
2.3987839e-05
2.5064007e-05
2.6298914e-05
2.7715691e-05
2.9341837e-05
3.121122e-05
3.3365436e-05
3.5855831e-05
3.8744898e-05
4.2109368e-05
4.6043475e-05
5.066283e-05
5.6108977e-05
6.2555718e-05
7.0217246e-05
7.9351794e-05
9.0277772e-05
0.00010338486
0.00011914838
0.00013814532
0.00016108051
0.00018880937
0.00022236672
0.00026300459
0.00031223028
0.00037185583
0.0004440534
0.00053141968
0.00063705386
0.00076465859
0.00091866774
0.0010364416
0.0010357939
0.0010348183
0.0010337444
0.0010325747
0.0010312943
0.0010298828
0.00102831
0.0010265244
0.0010244241
0.0010217667
0.0010186811
0.0010157197
0.0010131189
0.001010855
0.0010089228
0.0010073169
0.0010060392
0.0010050007
0.0010044473
0.0010036131
0.0010050425
0.0010031106
0.0010053338
2.1831961e-06
1.5935065e-05
1.4387443e-05
1.7776869e-05
1.7700395e-05
1.7976773e-05
2.1595245e-05
1.8369433e-05
2.1155501e-05
1.8125191e-05
1.9133624e-05
1.7578489e-05
1.7824558e-05
1.71687e-05
1.7232392e-05
1.7046417e-05
1.7156162e-05
1.7243628e-05
1.7478603e-05
1.7762513e-05
1.8148045e-05
1.8610061e-05
1.9167279e-05
1.981825e-05
2.0575296e-05
2.1447799e-05
2.2450646e-05
2.3600718e-05
2.4919574e-05
2.6433026e-05
2.8172694e-05
3.0177335e-05
3.2495023e-05
3.5184149e-05
3.8316396e-05
4.1979956e-05
4.6283029e-05
5.1358097e-05
5.7367626e-05
6.4513105e-05
7.303589e-05
8.3234053e-05
9.5472523e-05
0.00011019697
0.00012794699
0.00014938268
0.00017530572
0.00020668559
0.00024469702
0.00029075534
0.00034656514
0.00041417459
0.00049603934
0.00059509989
0.00071487693
0.00085959905
0.0010343284
0.0010349231
0.0010339314
0.0010328397
0.0010316549
0.0010303631
0.0010289457
0.0010273765
0.0010256141
0.0010235842
0.0010211258
0.0010181411
0.0010152244
0.0010126662
0.0010104413
0.0010085415
0.0010069656
0.0010057004
0.0010047239
0.001004099
0.0010034255
0.0010044918
0.001002912
0.0010048284
1.9808743e-06
1.5407976e-05
1.3412187e-05
1.6095837e-05
1.6629408e-05
1.6059398e-05
1.9794696e-05
1.6289201e-05
1.8668104e-05
1.5976553e-05
1.6753482e-05
1.5457003e-05
1.5617657e-05
1.5094771e-05
1.5135776e-05
1.5008173e-05
1.5112371e-05
1.521843e-05
1.5445725e-05
1.5725284e-05
1.6093465e-05
1.6534465e-05
1.7061937e-05
1.7677002e-05
1.8390095e-05
1.9210829e-05
2.0153006e-05
2.123274e-05
2.247035e-05
2.3890278e-05
2.55223e-05
2.7402861e-05
2.9577352e-05
3.210084e-05
3.5040933e-05
3.8480857e-05
4.2522877e-05
4.7292217e-05
5.2941829e-05
5.9663492e-05
6.7684765e-05
7.7287322e-05
8.881609e-05
0.0001026932
0.00011942794
0.0001396444
0.00016410124
0.00019371508
0.00022959852
0.00027309256
0.00032581444
0.00038971096
0.00046712163
0.00056085512
0.00067428277
0.00081146114
0.0009772645
0.0010340527
0.0010330451
0.0010319347
0.0010307339
0.0010294295
0.0010280044
0.0010264355
0.0010246884
0.0010227069
0.0010203895
0.0010175376
0.0010146784
0.0010121745
0.0010099981
0.0010081398
0.0010065975
0.0010053573
0.001004428
0.0010037666
0.00100323
0.0010039722
0.0010027086
0.0010043186
1.8053702e-06
1.4808392e-05
1.2502039e-05
1.4488202e-05
1.5617437e-05
1.4320912e-05
1.7966372e-05
1.4420184e-05
1.6364134e-05
1.4052538e-05
1.4613712e-05
1.3560095e-05
1.3649081e-05
1.324349e-05
1.3269644e-05
1.3192696e-05
1.329589e-05
1.3418667e-05
1.3642036e-05
1.3919124e-05
1.4274524e-05
1.4699068e-05
1.5202968e-05
1.5789069e-05
1.6466552e-05
1.7245066e-05
1.8137611e-05
1.9159643e-05
2.0330493e-05
2.1673508e-05
2.3216989e-05
2.4995457e-05
2.7052161e-05
2.9439494e-05
3.2221776e-05
3.5478192e-05
3.9306316e-05
4.3825669e-05
4.9181002e-05
5.5557089e-05
6.3170199e-05
7.2288804e-05
8.3241559e-05
9.6432402e-05
0.00011234589
0.00013157703
0.00015485034
0.00018303963
0.00021720775
0.00025863565
0.00030886982
0.00036977453
0.00044359412
0.00053302844
0.00064132535
0.00077239798
0.00093095987
0.0010331801
0.0010321579
0.0010310285
0.0010298111
0.0010284935
0.0010270598
0.0010254894
0.0010237527
0.0010218036
0.001019562
0.0010168766
0.0010140873
0.0010116485
0.0010095305
0.0010077219
0.001006218
0.0010050118
0.0010041195
0.0010034507
0.001003027
0.001003494
0.0010025051
0.0010038124
1.6527747e-06
1.4112885e-05
1.1654456e-05
1.2942207e-05
1.4638873e-05
1.2746046e-05
1.6103629e-05
1.2735631e-05
1.4252111e-05
1.2326315e-05
1.2700168e-05
1.1863188e-05
1.1897561e-05
1.159208e-05
1.1611464e-05
1.1577732e-05
1.1684022e-05
1.1821856e-05
1.1993289e-05
1.226142e-05
1.2601843e-05
1.300902e-05
1.3490293e-05
1.404918e-05
1.4693673e-05
1.5433147e-05
1.6279774e-05
1.7248258e-05
1.8356932e-05
1.9628109e-05
2.1088751e-05
2.2771521e-05
2.471776e-05
2.6977438e-05
2.9611939e-05
3.2696856e-05
3.6325583e-05
4.0613079e-05
4.6001572e-05
5.2098779e-05
5.9383201e-05
6.8112883e-05
7.8602988e-05
9.1244026e-05
0.00010650036
0.00012494353
0.00014727152
0.00017432334
0.00020712263
0.00024690225
0.00029515188
0.00035366939
0.0004246221
0.00051062165
0.00061481514
0.00074099858
0.00089375336
0.0010323028
0.0010312687
0.0010301202
0.0010288865
0.0010275557
0.0010261132
0.0010245405
0.0010228122
0.0010208902
0.0010187123
0.0010161656
0.0010134576
0.0010110941
0.0010090436
0.0010072923
0.0010058331
0.0010046671
0.0010038051
0.0010031503
0.0010028184
0.0010030707
0.0010023139
0.0010033648
1.5199869e-06
1.3309721e-05
1.0861088e-05
1.1448994e-05
1.3656195e-05
1.1315828e-05
1.4224845e-05
1.1211821e-05
1.2334854e-05
1.0774569e-05
1.0996462e-05
1.0345317e-05
1.0342815e-05
1.0121034e-05
1.0092306e-05
1.0077147e-05
1.0179657e-05
1.0325672e-05
1.0545777e-05
1.0821034e-05
1.116064e-05
1.1562435e-05
1.2032677e-05
1.2575831e-05
1.3199446e-05
1.3912931e-05
1.4728063e-05
1.5659135e-05
1.6723852e-05
1.794387e-05
1.934535e-05
2.0959516e-05
2.2826435e-05
2.4994409e-05
2.7522732e-05
3.0484368e-05
3.3969624e-05
3.8091113e-05
4.29835e-05
4.8813551e-05
5.5785248e-05
6.414779e-05
7.4781265e-05
8.6989502e-05
0.00010172923
0.00011955284
0.00014113872
0.00016729739
0.00019902233
0.0002375085
0.00028420064
0.000340844
0.00040954476
0.00049284431
0.00059380964
0.00071614389
0.00086432344
0.0010314182
0.0010303769
0.00102921
0.0010279604
0.001026617
0.0010251662
0.0010235912
0.0010218699
0.0010199712
0.0010178468
0.0010154139
0.0010127972
0.0010105181
0.0010085435
0.0010068565
0.0010054484
0.0010043268
0.0010034917
0.0010028643
0.0010026035
0.0010027079
0.0010021321
0.0010029833
1.4050192e-06
1.2397149e-05
1.01222e-05
1.0092683e-05
1.2637586e-05
1.0012947e-05
1.2416896e-05
9.8296447e-06
1.0612319e-05
9.3788594e-06
9.4862295e-06
8.9897536e-06
8.8955686e-06
8.7202453e-06
8.7348881e-06
8.7658333e-06
8.888191e-06
9.0550123e-06
9.2848486e-06
9.5665972e-06
9.9066243e-06
1.0304934e-05
1.0767226e-05
1.129861e-05
1.1906297e-05
1.2599719e-05
1.3390354e-05
1.4292138e-05
1.5322263e-05
1.6501875e-05
1.785667e-05
1.9416551e-05
2.1220701e-05
2.3316166e-05
2.5760697e-05
2.862521e-05
3.1997192e-05
3.598763e-05
4.072743e-05
4.6379408e-05
5.3142686e-05
6.1260979e-05
7.1034023e-05
8.2821389e-05
9.7064184e-05
0.0001152465
0.00013626541
0.00016174081
0.00019264422
0.00023014143
0.0002756425
0.00033085209
0.00039782914
0.00047906072
0.00057755208
0.00069693619
0.00084161065
0.0010168908
0.0010294825
0.0010282982
0.0010270339
0.0010256789
0.0010242208
0.0010226441
0.0010209297
0.0010190516
0.0010169724
0.0010146318
0.001012115
0.0010099281
0.0010080366
0.0010064201
0.0010050693
0.0010039945
0.0010031849
0.0010025917
0.0010023785
0.0010023934
0.001001962
0.0010026514
1.3056851e-06
1.1379507e-05
9.4308013e-06
8.8632832e-06
1.1550897e-05
8.8258498e-06
1.0711399e-05
8.5765992e-06
9.082044e-06
8.1261743e-06
8.0744596e-06
7.665748e-06
7.6162946e-06
7.5185758e-06
7.5589352e-06
7.6267836e-06
7.7673215e-06
7.9516402e-06
8.190867e-06
8.4789354e-06
8.8206678e-06
9.217401e-06
9.6745885e-06
1.0197836e-05
1.079406e-05
1.1472707e-05
1.224505e-05
1.3124725e-05
1.4128484e-05
1.5277053e-05
1.6531759e-05
1.8037588e-05
1.9779213e-05
2.1802452e-05
2.4163638e-05
2.6931876e-05
3.0365473e-05
3.4256244e-05
3.888049e-05
4.4398238e-05
5.1004978e-05
5.8939174e-05
6.8497263e-05
8.003086e-05
9.3973501e-05
0.00011085479
0.00013131154
0.00015746929
0.00018776968
0.00022454108
0.00026916778
0.00032332446
0.00038903512
0.00046874668
0.00056541897
0.00068263488
0.00082473611
0.00099697839
0.0010285864
0.0010273861
0.0010261085
0.0010247436
0.0010232797
0.0010217027
0.0010199956
0.0010181367
0.0010160965
0.0010138311
0.0010114209
0.0010093323
0.0010075297
0.0010059892
0.0010047013
0.0010036744
0.0010028907
0.0010023347
0.0010021426
0.0010020608
0.0010017992
0.0010023698
1.2207998e-06
1.0271024e-05
8.778746e-06
7.7472921e-06
1.0365862e-05
7.7410941e-06
9.1320693e-06
7.4387389e-06
7.7350177e-06
6.8831349e-06
6.8164738e-06
6.5417761e-06
6.5163008e-06
6.4790761e-06
6.5437181e-06
6.6415241e-06
6.7988535e-06
6.998352e-06
7.2468272e-06
7.5413829e-06
7.8861238e-06
8.2831632e-06
8.7378638e-06
9.2337345e-06
9.8167744e-06
1.0479335e-05
1.1232277e-05
1.208876e-05
1.3064911e-05
1.4180677e-05
1.5460368e-05
1.6933843e-05
1.8637815e-05
2.0617505e-05
2.2928621e-05
2.5639829e-05
2.8835716e-05
3.2620494e-05
3.7122405e-05
4.2499033e-05
4.8942873e-05
5.7117713e-05
6.6525541e-05
7.7882309e-05
9.1614704e-05
0.00010824797
0.00012840983
0.00015286847
0.00018421089
0.00022048449
0.00026451135
0.00031794554
0.00038278713
0.00046145557
0.00055687995
0.00067261059
0.00081295376
0.00098312921
0.0010276902
0.0010264757
0.0010251867
0.0010238139
0.0010223463
0.0010207709
0.0010190725
0.0010172325
0.0010152272
0.0010130242
0.0010107254
0.0010087394
0.0010070295
0.0010055695
0.0010043493
0.0010033713
0.001002615
0.0010020946
0.0010019087
0.0010017632
0.0010016354
0.001002121
1.1500976e-06
9.0850165e-06
8.1590193e-06
6.7355225e-06
9.1200077e-06
6.7485266e-06
7.7087485e-06
6.3558858e-06
6.3850056e-06
5.8095562e-06
5.7461197e-06
5.5735051e-06
5.5736771e-06
5.583846e-06
5.6712611e-06
5.7939677e-06
5.9669369e-06
6.1800839e-06
6.4378677e-06
6.7393169e-06
7.071466e-06
7.4660146e-06
7.9162224e-06
8.4276746e-06
9.0075314e-06
9.6645404e-06
1.0409536e-05
1.1255566e-05
1.2218494e-05
1.3318087e-05
1.4578401e-05
1.6028999e-05
1.770628e-05
1.9655106e-05
2.1930792e-05
2.460153e-05
2.7751317e-05
3.1483588e-05
3.592565e-05
4.1234253e-05
4.760207e-05
5.5262163e-05
6.4499593e-05
7.5659315e-05
8.9900531e-05
0.00010638133
0.00012636059
0.00015060428
0.00018002984
0.00021777406
0.00026143822
0.00031443565
0.00037875247
0.00045679204
0.00055146569
0.00066630684
0.00080560533
0.00097456707
0.0010267963
0.0010255697
0.0010242716
0.0010228932
0.0010214243
0.0010198531
0.0010181656
0.0010163455
0.0010143732
0.0010122239
0.0010100392
0.0010081579
0.0010065429
0.0010051665
0.001004017
0.0010030895
0.0010023639
0.0010018743
0.0010016788
0.0010014932
0.0010014608
0.0010018947
1.0944682e-06
7.8320651e-06
7.5519712e-06
5.8169946e-06
7.8505304e-06
5.8159861e-06
6.9950628e-06
5.3265684e-06
5.2688956e-06
4.8867312e-06
4.8389081e-06
4.742599e-06
4.769067e-06
4.8173232e-06
4.9260109e-06
5.0700943e-06
5.2578532e-06
5.4836967e-06
5.7353344e-06
6.0404312e-06
6.3912429e-06
6.7909986e-06
7.2443848e-06
7.7571959e-06
8.3366572e-06
8.9914926e-06
9.7325346e-06
1.0572813e-05
1.1527905e-05
1.2617518e-05
1.3865571e-05
1.5301487e-05
1.6961546e-05
1.8890504e-05
2.1143589e-05
2.3788906e-05
2.6910337e-05
3.0611042e-05
3.5017801e-05
4.0286623e-05
4.6611089e-05
5.422321e-05
6.340842e-05
7.4511163e-05
8.7950751e-05
0.00010423668
0.00012505265
0.00014919646
0.00017850626
0.00021408825
0.00025972997
0.00031253472
0.00037662145
0.00045438799
0.00054873884
0.00066320479
0.0008020761
0.00097056533
0.001025908
0.0010246718
0.0010233671
0.0010219857
0.0010205184
0.0010189541
0.0010172803
0.0010154823
0.0010135431
0.0010114429
0.0010093731
0.0010075964
0.0010060763
0.0010047847
0.0010037071
0.0010028312
0.0010021407
0.001001678
0.0010014609
0.0010012472
0.00100128
0.0010016876
1.0584794e-06
6.5365119e-06
6.9271201e-06
4.9941165e-06
6.6189833e-06
5.5950403e-06
5.354239e-06
4.3987543e-06
4.3518991e-06
4.0935587e-06
4.0717867e-06
4.0348985e-06
4.0868908e-06
4.1668262e-06
4.2953552e-06
4.4582238e-06
4.6464516e-06
4.8808875e-06
5.1549312e-06
5.4697237e-06
5.8282108e-06
6.2340557e-06
6.6921048e-06
7.2082791e-06
7.7898756e-06
8.4455213e-06
9.1860691e-06
1.0002329e-05
1.094786e-05
1.202514e-05
1.325778e-05
1.4674903e-05
1.6312508e-05
1.8215086e-05
2.0437637e-05
2.3048057e-05
2.6130036e-05
2.9786452e-05
3.4143398e-05
3.9615533e-05
4.5925674e-05
5.3523548e-05
6.2696796e-05
7.3789594e-05
8.7221055e-05
0.0001035013
0.00012324899
0.00014851733
0.00017782646
0.00021341261
0.00025661126
0.00031198664
0.00037608846
0.00045388006
0.00054826732
0.00066279094
0.00080175642
0.00097040095
0.00102503
0.0010237867
0.0010224779
0.0010210964
0.0010196335
0.0010180795
0.0010164227
0.0010146498
0.0010127457
0.0010106933
0.0010087373
0.0010070633
0.001005636
0.001004428
0.0010034216
0.0010025982
0.0010019467
0.0010015075
0.0010012639
0.0010010329
0.0010011126
0.0010014878
1.0442013e-06
6.091488e-06
6.2914059e-06
5.2020955e-06
6.3101274e-06
4.1596446e-06
4.172669e-06
3.6280692e-06
3.5845994e-06
3.4276356e-06
3.4292801e-06
3.4401766e-06
3.5157312e-06
3.6220366e-06
3.758425e-06
3.9338662e-06
4.146196e-06
4.3940763e-06
4.6791477e-06
5.003357e-06
5.3699108e-06
5.7827602e-06
6.2468647e-06
6.7681913e-06
7.3427201e-06
7.9981266e-06
8.7366617e-06
9.5710419e-06
1.051685e-05
1.1593253e-05
1.2823898e-05
1.4238008e-05
1.5871758e-05
1.7769908e-05
1.9987841e-05
2.2593959e-05
2.5672624e-05
2.9327623e-05
3.3686351e-05
3.8904814e-05
4.5173617e-05
5.3110783e-05
6.2304769e-05
7.3427031e-05
8.6896978e-05
0.00010322631
0.00012303582
0.00014707831
0.00017783505
0.00021353707
0.00025687524
0.0003094835
0.00037683673
0.00045489106
0.00054960173
0.00066452977
0.00080400875
0.00097331494
0.0010241678
0.0010229201
0.00102161
0.001020231
0.0010187756
0.0010172348
0.0010155985
0.0010138546
0.001011989
0.0010099861
0.0010081412
0.0010065661
0.0010052276
0.0010040994
0.0010031613
0.0010023904
0.0010017796
0.0010013599
0.0010010936
0.0010008596
0.0010009502
0.0010012862
1.0477599e-06
6.2179136e-06
5.609651e-06
5.5397301e-06
5.4465942e-06
3.3052324e-06
3.3655364e-06
2.9812795e-06
2.9502266e-06
2.8719518e-06
2.8978265e-06
2.9465834e-06
3.044116e-06
3.1619875e-06
3.3218397e-06
3.514601e-06
3.7408557e-06
4.0007506e-06
4.2962618e-06
4.6298651e-06
5.0049751e-06
5.4257231e-06
5.8902928e-06
6.4159289e-06
7.0049947e-06
7.6660355e-06
8.4094382e-06
9.2478951e-06
1.019699e-05
1.1275937e-05
1.25085e-05
1.3924103e-05
1.5559212e-05
1.7459001e-05
1.9679385e-05
2.2289454e-05
2.5374396e-05
2.9039012e-05
3.3411855e-05
3.8650262e-05
4.4946705e-05
5.2536058e-05
6.2169245e-05
7.3350382e-05
8.6893572e-05
0.000103313
0.00012323228
0.0001474075
0.00017836428
0.00021426358
0.00025783828
0.0003107308
0.00037852244
0.00045701046
0.00055225208
0.00066783618
0.000808134
0.00097847208
0.0010233281
0.0010220787
0.00102077
0.0010193962
0.0010179507
0.001016426
0.0010148132
0.001013102
0.0010112795
0.0010093306
0.0010075928
0.0010061117
0.0010048563
0.001003802
0.0010029268
0.0010022067
0.0010016353
0.0010012321
0.0010009534
0.0010007249
0.0010007844
0.0010010707
8.3740018e-07
6.6170921e-06
4.8310779e-06
3.4425299e-06
3.4832461e-06
2.7251434e-06
2.6715324e-06
2.4599888e-06
2.4360044e-06
2.4160234e-06
2.4655147e-06
2.5437969e-06
2.6519899e-06
2.7959714e-06
2.9728687e-06
3.1801852e-06
3.418803e-06
3.6898036e-06
3.9954632e-06
4.3385894e-06
4.7227317e-06
5.1472547e-06
5.6251178e-06
6.1588625e-06
6.7555331e-06
7.4236379e-06
8.1735282e-06
9.0178873e-06
9.9723353e-06
1.1056184e-05
1.229337e-05
1.3713597e-05
1.5353717e-05
1.7259415e-05
1.9487249e-05
2.2107101e-05
2.5205133e-05
2.8887316e-05
3.3283559e-05
3.8552372e-05
4.4887696e-05
5.2916742e-05
6.2221632e-05
7.3479665e-05
8.7117311e-05
0.00010365196
0.00012371091
0.00014805467
0.00017922601
0.00021536917
0.00025923685
0.00031248224
0.00038075719
0.00045977419
0.00055566329
0.00067204596
0.00081333676
0.0009849193
0.0010225183
0.0010212702
0.0010199655
0.0010185993
0.001017166
0.0010156593
0.001014072
0.0010123957
0.0010106206
0.0010087341
0.0010070981
0.0010057057
0.0010045276
0.0010035401
0.0010027208
0.0010020467
0.0010015125
0.0010011253
0.0010008336
0.0010005895
0.0010006122
0.0010008223
6.5238556e-07
4.7953645e-06
3.7408587e-06
2.6299011e-06
2.6805362e-06
2.193802e-06
2.1384074e-06
2.0204897e-06
2.0220723e-06
2.0436819e-06
2.1171374e-06
2.2132148e-06
2.3456407e-06
2.5076958e-06
2.6991169e-06
2.9191569e-06
3.1691006e-06
3.4506312e-06
3.7662504e-06
4.1189606e-06
4.5095392e-06
4.94673e-06
5.4335798e-06
5.9759466e-06
6.5808298e-06
7.2566954e-06
8.0138714e-06
8.8650494e-06
9.8259131e-06
1.091591e-05
1.2159199e-05
1.3585806e-05
1.523302e-05
1.7147087e-05
1.9385243e-05
2.2018174e-05
2.5133011e-05
2.8836962e-05
3.3261795e-05
3.8566972e-05
4.5258755e-05
5.3015783e-05
6.2387632e-05
7.3727883e-05
8.7465809e-05
0.00010412216
0.00012432834
0.00014884935
0.00018021031
0.00021660366
0.00026077237
0.00031438111
0.00038310315
0.00046265817
0.00055920722
0.00067640541
0.00081871181
0.00099156805
0.0010217473
0.0010205034
0.0010192056
0.0010178496
0.0010164304
0.0010149427
0.0010133808
0.0010117384
0.0010100085
0.0010082023
0.0010066613
0.0010053517
0.0010042452
0.0010033184
0.0010025484
0.0010019146
0.0010014124
0.0010010389
0.0010007402
0.0010004915
0.0010004704
0.0010005854
5.0571358e-07
2.6949881e-06
2.9489703e-06
2.120278e-06
2.0553026e-06
1.7612238e-06
1.7212384e-06
1.6689068e-06
1.6956088e-06
1.7497385e-06
1.8442254e-06
1.9608375e-06
2.1105741e-06
2.2873071e-06
2.491135e-06
2.7224359e-06
2.9828216e-06
3.27433e-06
3.5995844e-06
3.9616628e-06
4.3641864e-06
4.8087909e-06
5.304533e-06
5.8554571e-06
6.4685158e-06
7.1521391e-06
7.9166439e-06
8.7747497e-06
9.7422214e-06
1.0838658e-05
1.2088456e-05
1.352198e-05
1.5176961e-05
1.7100209e-05
1.934962e-05
2.1996606e-05
2.5128993e-05
2.9012979e-05
3.3499617e-05
3.888025e-05
4.5353061e-05
5.3159205e-05
6.2591628e-05
7.4005616e-05
8.7832681e-05
0.00010459645
0.00012493258
0.00015092311
0.0001810883
0.00021769239
0.00026211485
0.00031603086
0.00038506931
0.00046507204
0.00056217349
0.00068005882
0.00082322708
0.00099717231
0.001021025
0.0010197886
0.0010185009
0.0010171578
0.0010157552
0.0010142881
0.0010127515
0.00101114
0.0010094475
0.0010077393
0.0010062844
0.0010050501
0.0010040089
0.0010031372
0.0010024122
0.0010018151
0.0010013408
0.0010009784
0.0010006804
0.0010004407
0.0010003871
0.0010004362
4.0542952e-07
2.0789617e-06
2.2366771e-06
1.6625488e-06
1.5900547e-06
1.4208979e-06
1.3997495e-06
1.3941073e-06
1.4442125e-06
1.5240999e-06
1.6370118e-06
1.7724681e-06
1.9364426e-06
2.1255385e-06
2.3402989e-06
2.5817691e-06
2.8517752e-06
3.1525368e-06
3.4867269e-06
3.8574399e-06
4.2682685e-06
4.7233899e-06
5.2277066e-06
5.7870395e-06
6.4083858e-06
7.1002522e-06
7.8730754e-06
8.7397502e-06
9.716284e-06
1.0822598e-05
1.2083503e-05
1.3529876e-05
1.5200089e-05
1.7141714e-05
1.9413566e-05
2.2088161e-05
2.5254623e-05
2.9022303e-05
3.3524966e-05
3.8925938e-05
4.5424252e-05
5.3262173e-05
6.2734334e-05
7.4196249e-05
8.8080137e-05
0.00010579647
0.00012636101
0.00015130409
0.00018156521
0.00021828382
0.00026284391
0.00031992004
0.00038603687
0.00046627665
0.00056367862
0.00068194903
0.00082561591
0.0010002117
0.0010203616
0.0010191361
0.0010178619
0.0010165353
0.0010151525
0.0010137094
0.0010122014
0.0010106239
0.0010089717
0.001007349
0.0010059692
0.0010048006
0.0010038163
0.0010029925
0.0010023071
0.0010017429
0.0010012927
0.0010009404
0.0010006469
0.0010004173
0.0010003379
0.0010003291
3.0813034e-07
1.601703e-06
1.665364e-06
1.3102955e-06
1.2375974e-06
1.1511734e-06
1.1505369e-06
1.1793881e-06
1.2505105e-06
1.3508269e-06
1.4790022e-06
1.6299874e-06
1.8051016e-06
2.0039972e-06
2.2275801e-06
2.4772747e-06
2.7550297e-06
3.0631547e-06
3.4043383e-06
3.7816701e-06
4.198718e-06
4.659631e-06
5.1692697e-06
5.733397e-06
6.358948e-06
7.0543724e-06
7.8300603e-06
8.6988798e-06
9.6768361e-06
1.0783879e-05
1.2044881e-05
1.349082e-05
1.5160198e-05
1.7100752e-05
1.9371521e-05
2.2045349e-05
2.5211438e-05
2.8979295e-05
3.348277e-05
3.8885106e-05
4.5384972e-05
5.3616969e-05
6.316294e-05
7.4710383e-05
8.8693156e-05
0.00010563756
0.00012618182
0.00015110014
0.00018133209
0.00021801492
0.00026492551
0.0003193364
0.00038536531
0.00046551003
0.0005628138
0.00068098988
0.00082457691
0.00099912314
0.0010197681
0.0010185568
0.0010172992
0.0010159921
0.0010146321
0.0010132155
0.0010117386
0.0010101973
0.0010085872
0.0010070356
0.0010057182
0.0010046042
0.0010036671
0.0010028832
0.0010022309
0.0010016944
0.0010012639
0.0010009208
0.0010006348
0.0010004159
0.0010003174
0.0010002655
1.9208192e-07
1.2634829e-06
1.2007607e-06
1.0417552e-06
9.777492e-07
9.4669364e-07
9.6862894e-07
1.0253604e-06
1.1163714e-06
1.2342775e-06
1.3761741e-06
1.5400134e-06
1.7256936e-06
1.9339289e-06
2.1660571e-06
2.4232411e-06
2.7084448e-06
3.0236149e-06
3.3714392e-06
3.7550046e-06
4.1778864e-06
4.6442448e-06
5.1589099e-06
5.7275621e-06
6.3570665e-06
7.0558054e-06
7.8341008e-06
8.704763e-06
9.6837427e-06
1.0790945e-05
1.2051198e-05
1.3495425e-05
1.5162043e-05
1.7098643e-05
1.9437709e-05
2.2122574e-05
2.530134e-05
2.9083669e-05
3.360351e-05
3.9024164e-05
4.5544341e-05
5.3405557e-05
6.2901094e-05
7.4386923e-05
8.8293337e-05
0.00010514291
0.00012556928
0.0001516834
0.000181954
0.00021867025
0.00026321345
0.00031726252
0.00038285983
0.00046249231
0.00055919141
0.0006766575
0.00081941551
0.00099299838
0.0010192563
0.001018062
0.0010168238
0.0010155388
0.0010142039
0.001012816
0.0010113717
0.0010098674
0.0010082994
0.0010068026
0.0010055333
0.0010044613
0.0010035603
0.0010028068
0.0010021802
0.001001665
0.0010012492
0.0010009134
0.0010006345
0.0010004226
0.0010003062
0.0010002197
2.7313926e-07
1.0052736e-06
8.7960766e-07
8.2983453e-07
7.9713066e-07
7.9836665e-07
8.392005e-07
9.1420087e-07
1.0178508e-06
1.1452043e-06
1.2936206e-06
1.462263e-06
1.6514772e-06
1.862291e-06
2.0961647e-06
2.3548864e-06
2.6405159e-06
2.9554383e-06
3.3023813e-06
3.6844712e-06
4.1052815e-06
4.568875e-06
5.0797881e-06
5.6433844e-06
6.2666234e-06
6.957845e-06
7.7273199e-06
8.587764e-06
9.5550071e-06
1.0648792e-05
1.1893743e-05
1.3320525e-05
1.4967243e-05
1.6881111e-05
1.9120381e-05
2.1756493e-05
2.4877194e-05
2.8590218e-05
3.3027136e-05
3.834825e-05
4.4748663e-05
5.2465407e-05
6.226614e-05
7.3627897e-05
8.7381617e-05
0.00010404393
0.00012424158
0.00014873512
0.00017844785
0.00021450127
0.00025825839
0.00031137713
0.00037587566
0.00045421296
0.00054938823
0.00066506463
0.00080572324
0.00097684591
0.0010188374
0.001017663
0.0010164468
0.0010151861
0.0010138783
0.0010125207
0.0010111104
0.0010096443
0.0010081194
0.0010066584
0.0010054205
0.0010043759
0.0010034983
0.0010027644
0.0010021542
0.0010016525