/*--------------------------------*- C++ -*----------------------------------*\
  =========                 |
  \\      /  F ield         | OpenFOAM: The Open Source CFD Toolbox
   \\    /   O peration     | Website:  https://openfoam.org
    \\  /    A nd           | Version:  6
     \\/     M anipulation  |
\*---------------------------------------------------------------------------*/
FoamFile
{
    version     2.0;
    format      ascii;
    class       volScalarField;
    location    "950";
    object      omega;
}
// * * * * * * * * * * * * * * * * * * * * * * * * * * * * * * * * * * * * * //

dimensions      [0 0 -1 0 0 0 0];

internalField   nonuniform List<scalar> 
16000
(
1435.3871
1492.9348
763.47478
495.25556
332.49037
256.9761
192.38254
159.74214
129.17656
110.57074
93.673202
81.608526
71.050345
62.755435
55.63363
49.757009
44.750749
40.517972
36.875565
33.738717
31.011609
28.632786
26.54495
24.705718
23.078609
21.634629
20.349226
19.202183
18.176446
17.257736
16.43401
15.695083
15.032227
14.437885
13.90549
13.429268
13.004085
12.625332
12.288825
11.990711
11.727436
11.495766
11.292672
11.115314
10.961042
10.8274
10.712099
10.613031
10.528292
10.456193
10.395299
10.344511
10.303276
10.272258
10.250864
10.237151
10.228548
10.222117
10.215735
10.208472
10.19933
10.188622
10.175835
10.160398
10.141909
10.12054
10.097222
10.074247
10.05316
10.035419
10.019462
10.008083
9.9961136
9.9905666
9.9820318
9.9899567
9.9838708
10.026004
9.9936501
10.037478
1339.9637
1533.7337
765.45687
502.75114
334.4714
260.835
194.07579
161.90269
130.43488
111.7756
94.481217
82.254228
71.497117
63.054983
55.852721
49.936724
44.89503
40.636155
36.972321
33.81867
31.078169
28.688811
26.592677
24.746888
23.114617
21.666575
20.377988
19.228444
18.200725
17.280401
16.455313
15.715199
15.051277
14.455945
13.922601
13.445457
13.019368
12.639721
12.302335
12.003359
11.739223
11.5067
11.302772
11.124603
10.969543
10.835146
10.719124
10.619366
10.533956
10.461182
10.399566
10.347899
10.305342
10.271711
10.247993
10.232702
10.223329
10.216688
10.210324
10.203308
10.195366
10.185793
10.17411
10.159708
10.142118
10.121326
10.098202
10.074988
10.053772
10.035642
10.019859
10.007826
9.9968072
9.9913834
9.9828482
9.9876856
9.9829483
10.020882
9.9939483
10.038068
1087.9297
1573.233
765.36733
509.4426
335.78978
264.20438
195.43424
163.73524
131.47217
112.72544
95.097726
82.681151
71.761499
63.228914
55.979349
50.031899
44.963691
40.685463
37.006843
33.841937
31.093176
28.697794
26.597487
24.748847
23.11478
21.665741
20.376774
19.227298
18.199964
17.280215
16.45579
15.71636
15.053108
14.458392
13.925593
13.448911
13.023196
12.643837
12.306664
12.007838
11.743769
11.51124
11.30725
11.128968
10.973749
10.839161
10.722923
10.622926
10.537252
10.464176
10.402199
10.350058
10.306788
10.271862
10.245639
10.228565
10.218271
10.211344
10.204923
10.197907
10.190114
10.181324
10.170981
10.157836
10.141358
10.121373
10.098601
10.075304
10.053975
10.035659
10.019946
10.007601
9.9970687
9.9917781
9.9836816
9.9865899
9.9828663
10.016706
9.9941204
10.034828
1114.0809
1607.004
763.75189
515.27223
336.54684
267.00874
196.51298
165.1712
132.29273
113.36343
95.502192
82.842933
71.859707
63.290841
56.008929
50.038164
44.953184
40.662779
36.976514
33.80629
31.054752
28.658176
26.558075
24.710527
23.078242
21.631448
20.345054
19.198345
18.173876
17.256986
16.435325
15.698516
15.03772
14.445272
13.91454
13.439724
13.015679
12.637797
12.30193
12.004261
11.741179
11.509481
11.306186
11.128478
10.973716
10.839487
10.723525
10.623726
10.53818
10.465157
10.403147
10.35086
10.307264
10.271651
10.243845
10.224766
10.213383
10.2061
10.199591
10.192524
10.184722
10.176033
10.166186
10.154562
10.139453
10.120539
10.098333
10.075101
10.053736
10.035359
10.019734
10.00723
9.9970641
9.9911812
9.9844684
9.986586
9.9830568
10.012103
9.9944222
10.032955
1137.9903
1632.361
760.98583
520.12657
336.76446
269.16461
197.3153
166.14812
132.8819
113.63961
95.66788
82.858366
71.837094
63.239706
55.940094
49.954552
44.862471
40.567303
36.88058
33.71113
30.962368
28.56951
26.474077
24.631635
23.004761
21.563508
20.282687
19.141487
18.122398
17.210684
16.393919
15.661691
15.005162
14.41665
13.889521
13.417987
12.996916
12.621707
12.288238
11.992737
11.731561
11.501528
11.299682
11.123231
10.969535
10.836207
10.721003
10.621831
10.536794
10.464164
10.402428
10.350288
10.306675
10.270794
10.24224
10.221323
10.208652
10.200933
10.194312
10.187171
10.179322
10.170635
10.160908
10.149765
10.136311
10.11876
10.097367
10.07436
10.053051
10.034726
10.019225
10.006707
9.9968353
9.9906042
9.9850149
9.9865492
9.9834777
10.00802
9.9947471
10.029334
1159.6156
1645.3368
757.55946
523.8632
336.47971
270.56362
197.85183
166.58306
133.21949
113.56495
95.565367
82.724439
71.690558
63.073089
55.770447
49.779217
44.68983
40.397641
36.717816
33.555437
30.815155
28.431087
26.3449
24.511688
22.893954
21.461624
20.18945
19.056562
18.045423
17.141247
16.331552
15.605899
14.955472
14.372586
13.850616
13.383792
12.967008
12.595675
12.265695
11.973372
11.715022
11.487484
11.287836
11.113318
10.96129
10.829398
10.715428
10.617302
10.533146
10.46124
10.400075
10.34835
10.304983
10.269129
10.240249
10.21828
10.20408
10.195828
10.189077
10.181845
10.173928
10.165209
10.155519
10.144581
10.131853
10.115994
10.095699
10.073088
10.051933
10.033764
10.018442
10.006021
9.9964056
9.9899958
9.9852833
9.9863562
9.9840119
10.004871
9.995161
10.026879
1178.9873
1643.7099
753.67224
526.28696
335.75115
271.08029
198.13857
166.38393
133.27336
113.29099
95.312942
82.441999
71.419581
62.791246
55.499685
49.512203
44.435123
40.153781
36.488205
33.339297
30.613223
28.243075
26.170749
24.350948
22.74612
21.326128
20.065707
18.943958
17.943355
17.049097
16.248658
15.531576
14.889087
14.313514
13.798247
13.337548
12.926348
12.560076
12.23465
11.94649
11.691861
11.467624
11.270896
11.098962
10.94918
10.819235
10.706951
10.610268
10.527344
10.456472
10.396153
10.345094
10.302205
10.26662
10.237726
10.215275
10.199674
10.190769
10.183869
10.176532
10.168533
10.159763
10.150071
10.139233
10.126859
10.112173
10.093311
10.071286
10.050389
10.032475
10.017398
10.005165
9.9957918
9.9893674
9.9852939
9.9856209
9.9845673
10.002319
9.9955149
10.024084
1196.2011
1640.5166
748.67804
527.22383
334.66051
270.59579
198.19351
165.7785
132.97809
112.8242
94.912045
82.013985
71.024712
62.39538
55.128077
49.154046
44.098569
39.83602
36.191989
33.062992
30.35688
28.005813
25.952006
24.149832
22.56171
21.157509
19.911972
18.804211
17.816743
16.934789
16.145798
15.439285
14.806564
14.239977
13.732942
13.279761
12.875418
12.515367
12.195522
11.912483
11.662438
11.442275
11.249152
11.080426
10.933439
10.805921
10.695749
10.600882
10.519517
10.449969
10.390753
10.340586
10.298385
10.263271
10.234592
10.211974
10.195456
10.185741
10.178674
10.171225
10.163134
10.154299
10.144585
10.133797
10.121626
10.107506
10.090203
10.068977
10.048443
10.030877
10.016119
10.004154
9.9950283
9.9887115
9.9851259
9.9848913
9.9850704
9.9999342
9.9957344
10.021534
1211.385
1638.4378
742.71729
526.52321
333.28874
268.97008
197.99359
164.90851
132.37102
112.17284
94.364088
81.44412
70.506969
61.887357
54.656484
48.70583
43.680964
39.445145
35.829928
32.727301
30.046911
27.720107
25.689492
23.909192
22.3416
20.956656
19.729145
18.638222
17.666484
16.799217
16.023858
15.329888
14.708737
14.152781
13.655471
13.211158
12.814899
12.462193
12.148896
11.871883
11.62724
11.411877
11.222996
11.058057
10.914372
10.789723
10.682052
10.589337
10.50983
10.441866
10.383984
10.334915
10.293587
10.259121
10.230842
10.20832
10.191461
10.180729
10.17348
10.165913
10.157724
10.148817
10.139069
10.128309
10.116281
10.102559
10.08637
10.066192
10.046123
10.028995
10.014632
10.003005
9.9941533
9.9880392
9.9848214
9.9842892
9.9855011
9.9977571
9.9958503
10.018838
1224.7065
1637.1105
735.89967
523.93155
331.71061
266.894
197.46921
163.8042
131.60634
111.34457
93.669739
80.735989
69.867311
61.268929
54.085843
48.168714
43.183249
38.982107
35.402982
32.333232
29.684355
27.387032
25.384309
23.630163
22.086944
20.72474
19.518408
18.447171
17.493742
16.643518
15.883957
15.204471
14.596653
14.052927
13.566784
13.13263
12.745617
12.401335
12.095471
11.825327
11.586843
11.376952
11.192883
11.032259
10.892335
10.770946
10.666125
10.57586
10.498471
10.432322
10.375976
10.328185
10.287892
10.254222
10.226493
10.204229
10.187226
10.175727
10.168276
10.160589
10.1523
10.143319
10.133532
10.122788
10.110866
10.09742
10.081842
10.062974
10.043467
10.026863
10.012971
10.001746
9.9932044
9.9873588
9.984423
9.9838106
9.9858549
9.9958609
9.9958936
10.016067
1236.3574
1636.0583
728.35865
519.11376
329.95005
264.47028
196.50214
162.48415
130.6848
110.34803
92.830291
79.893526
69.107161
60.542112
53.417456
47.54413
42.606728
38.448145
34.912473
31.882153
29.270628
27.008031
25.037934
23.314267
21.799282
20.463309
19.281309
18.232592
17.300014
16.469147
15.727516
15.064398
14.471611
13.941647
13.468045
13.045262
12.668564
12.333739
12.03608
11.773566
11.541922
11.33811
11.159342
11.003498
10.867738
10.749941
10.64827
10.560703
10.485653
10.421514
10.366875
10.320515
10.281393
10.248647
10.221592
10.199725
10.182757
10.170729
10.163052
10.155248
10.146862
10.137809
10.127983
10.117249
10.105419
10.09221
10.077151
10.05938
10.040523
10.024523
10.011173
10.000407
9.992221
9.9866886
9.9839759
9.9834395
9.9861359
9.9943433
9.9959576
10.013658
1246.619
1634.6625
720.27412
511.62419
328.00002
261.76101
195.03012
160.96869
129.60703
109.19222
91.847522
78.920646
68.228226
59.708917
52.652765
46.833632
41.952961
37.844712
34.353253
31.368715
28.800614
26.578379
24.646112
22.957768
21.475369
20.169572
19.015465
17.99246
17.083575
16.274629
15.553315
14.908645
14.332755
13.818229
13.358672
12.948578
12.583317
12.259133
11.971675
11.717452
11.493238
11.296044
11.12296
10.972291
10.841039
10.727094
10.628823
10.54415
10.471611
10.409634
10.356841
10.312035
10.274196
10.242476
10.216197
10.194841
10.178063
10.165744
10.157806
10.14989
10.141412
10.132292
10.122431
10.111709
10.099962
10.086961
10.072342
10.055476
10.037348
10.022022
10.009278
9.999023
9.9912398
9.9860478
9.9835242
9.9831579
9.986331
9.9932403
9.9960167
10.011679
1255.7605
1632.0365
711.83394
503.533
325.78561
258.83202
193.45523
159.27429
128.37066
107.88344
90.721845
77.819501
67.231319
58.770411
51.780626
46.02314
41.207489
37.159565
33.726272
30.795728
28.278281
26.102668
24.213741
22.565729
21.120257
19.848478
18.725674
17.731379
16.848786
16.064037
15.365211
14.740801
14.183404
13.685729
13.241474
12.845158
12.492111
12.179134
11.901747
11.656563
11.440436
11.250517
11.084377
10.939195
10.812735
10.70282
10.608146
10.526501
10.456595
10.396892
10.346043
10.302883
10.266411
10.235797
10.21037
10.189614
10.173156
10.160792
10.152535
10.144517
10.135956
10.126778
10.116892
10.106187
10.094523
10.081709
10.067465
10.05134
10.034005
10.019413
10.007329
9.9976318
9.9902956
9.9854563
9.9831039
9.9829495
9.9864009
9.9924514
9.9960869
10.010004
1264.0805
1627.0187
703.18809
494.97859
323.14186
255.72199
191.76814
157.41894
126.9751
106.42808
89.454814
76.592329
66.090844
57.697545
50.793907
45.113467
40.375427
36.399117
33.033717
30.165621
27.706337
25.583735
23.743675
22.141101
20.736891
19.502928
18.414775
17.452112
16.59828
15.839773
15.165537
14.563044
14.025574
13.545996
13.118159
12.736643
12.396445
12.095332
11.828566
11.592883
11.385208
11.202674
11.043223
10.903911
10.782632
10.677556
10.586631
10.508081
10.440872
10.383505
10.334661
10.293205
10.258159
10.228706
10.204185
10.184089
10.168032
10.155775
10.147245
10.139135
10.130505
10.121282
10.111383
10.100706
10.089127
10.076489
10.062574
10.047054
10.030566
10.016754
10.005372
9.9962717
9.9894214
9.9849378
9.98275
9.9828211
9.9863306
9.9914516
9.9961332
10.008647
1271.884
1617.878
694.47863
485.99951
319.73644
252.46684
189.95103
155.41797
125.41966
104.82989
88.001627
75.18084
64.79523
56.492736
49.692486
44.105427
39.458495
35.565631
32.278404
29.481464
27.088227
25.025176
23.23943
21.68752
20.32886
19.136407
18.086133
17.157916
16.335173
15.604539
14.954535
14.375508
13.859303
13.398983
12.988606
12.623045
12.297839
12.009083
11.753332
11.527485
11.32859
11.153545
11.00098
10.867669
10.751526
10.651017
10.564093
10.489234
10.424724
10.369704
10.32288
10.283153
10.249562
10.221302
10.197721
10.178322
10.162715
10.150633
10.141945
10.133758
10.125073
10.115821
10.105924
10.09529
10.083808
10.071344
10.057725
10.04271
10.027104
10.014103
10.003452
9.9949792
9.988646
9.9845205
9.9825007
9.9827742
9.9862132
9.9906504
9.9960895
10.007477
1279.4479
1602.0152
685.81984
476.63059
316.12385
249.09649
187.97362
153.28052
123.70419
102.99229
86.329854
73.587339
63.340587
55.154207
48.476453
43.000314
38.459179
34.662216
31.464204
28.747281
26.428458
24.43168
22.705349
21.20544
19.8963
18.748824
17.739527
16.848556
16.05937
15.3591
14.736536
14.182278
13.688402
13.248183
12.855873
12.506512
12.195787
11.919919
11.675596
11.459923
11.270308
11.103933
10.958365
10.83117
10.720116
10.624169
10.541127
10.469758
10.408448
10.355727
10.310893
10.272878
10.240743
10.213688
10.191063
10.172382
10.157257
10.145404
10.136649
10.128403
10.119679
10.110416
10.100541
10.089969
10.0786
10.066316
10.052976
10.038398
10.023694
10.011519
10.001611
9.9937858
9.987989
9.9842258
9.9823925
9.9828226
9.9860571
9.9899861
9.9958802
10.006416
1287.0003
1575.4382
677.29883
466.84559
312.6522
245.63707
185.80303
150.93552
121.6536
100.89795
84.426806
71.803916
61.722755
53.680392
47.146796
41.800549
37.381475
33.693379
30.596662
27.968359
25.726492
23.802543
22.142112
20.701756
19.446454
18.347387
17.381927
16.530728
15.777015
15.108652
14.514765
13.986257
13.515482
13.095968
12.722194
12.389403
12.093448
11.830678
11.597869
11.392242
11.211655
11.053267
10.914873
10.794109
10.688938
10.597539
10.518209
10.450156
10.391834
10.341832
10.2989
10.262538
10.231826
10.205969
10.184297
10.16634
10.151715
10.14013
10.131381
10.123092
10.114349
10.105095
10.095262
10.084774
10.073538
10.06145
10.048388
10.034208
10.02041
10.009058
9.9998898
9.9927173
9.9874611
9.984063
9.9824425
9.9829896
9.9859192
9.9894272
9.9955418
10.005443
1294.7016
1531.7731
668.79754
456.54437
309.21986
242.07087
184.23951
148.26391
119.2416
98.524412
82.277709
69.819955
59.937015
52.070343
45.706085
40.510289
36.231806
32.665418
29.67323
27.144192
24.99168
23.147907
21.559288
20.183189
18.985664
17.937855
17.018419
16.209208
15.492407
14.857048
14.292656
13.790494
13.343237
12.944706
12.589644
12.273531
11.992421
11.742819
11.521559
11.325692
11.153981
11.003323
10.871894
10.757296
10.657525
10.570881
10.495796
10.430825
10.375295
10.327826
10.287123
10.252297
10.222936
10.198249
10.177511
10.16027
10.146151
10.134857
10.126167
10.117856
10.109113
10.099888
10.09012
10.079737
10.068659
10.05679
10.044019
10.030226
10.017323
10.006773
9.9983261
9.9917928
9.9870656
9.9840335
9.9826505
9.983282
9.9858616
9.989032
9.9952285
10.004469
1302.3433
1474.2526
659.63313
445.52369
305.65959
240.16016
181.78347
145.11642
116.44342
95.828144
79.860765
67.622792
57.978758
50.325001
44.160271
39.136243
35.004051
31.575706
28.707139
26.288255
24.233702
22.476897
20.965386
19.657365
18.521187
17.526758
16.654275
15.885872
15.206865
14.605146
14.070688
13.595156
13.171584
12.794116
12.457785
12.158334
11.892063
11.655711
11.44636
11.261366
11.09831
10.954905
10.830151
10.721508
10.626923
10.544791
10.473644
10.412154
10.359132
10.314051
10.275394
10.242345
10.214195
10.190632
10.170796
10.15425
10.140629
10.129637
10.121045
10.112731
10.104008
10.094832
10.085148
10.074895
10.064
10.052375
10.039921
10.026524
10.014493
10.004714
9.9969515
9.9910236
9.9867973
9.9841262
9.9829879
9.9836685
9.9859242
9.98887
9.9948747
10.003425
1309.8546
1429.1908
649.62125
440.63768
304.05817
236.19302
178.37475
141.45113
113.20576
92.784819
77.159105
65.20832
55.851271
48.451974
42.501283
37.674097
33.717578
30.44431
27.712286
25.413423
23.464355
21.800261
20.370429
19.132425
18.056691
17.117416
16.293649
15.568299
14.927363
14.359324
13.854671
13.40552
13.005301
12.648507
12.330476
12.047226
11.7953
11.571648
11.373532
11.198466
11.044233
10.908793
10.790218
10.687254
10.597599
10.519733
10.452263
10.393928
10.343599
10.30076
10.264001
10.232545
10.205719
10.183222
10.164241
10.148357
10.135216
10.124527
10.116057
10.107759
10.099076
10.089967
10.080386
10.070282
10.05959
10.048237
10.036132
10.023163
10.011969
10.00292
9.9957947
9.9904207
9.9866501
9.984321
9.9834134
9.9841159
9.9861291
9.9889204
9.994416
10.00222
1316.8001
1408.4241
641.75199
443.28112
304.08833
230.82816
174.3404
137.16967
109.46874
89.368966
74.164192
62.581836
53.568749
46.446959
40.754191
36.153002
32.393189
29.290285
26.70584
24.534977
22.697115
21.129547
19.780655
18.615385
17.603201
16.719533
15.944495
15.261906
14.658542
14.123554
13.648005
13.2245
12.846892
12.510035
12.209586
11.941842
11.703596
11.492027
11.304579
11.138843
10.992736
10.864393
10.752609
10.654981
10.569954
10.49609
10.432074
10.376706
10.328915
10.288168
10.25318
10.223213
10.197625
10.176118
10.157934
10.142669
10.129982
10.119588
10.111251
10.10299
10.094364
10.08534
10.075877
10.065933
10.055457
10.044392
10.032665
10.020188
10.009786
10.001422
9.9948839
9.9900052
9.986631
9.9846044
9.9839081
9.9846283
9.9863951
9.9888731
9.9938305
10.000707
1321.6645
1418.1175
634.50019
436.74359
299.61827
224.91089
169.36642
132.32987
105.21687
85.585763
70.890841
59.766902
51.130325
44.349109
38.951715
34.60268
31.057466
28.137029
25.708099
23.670333
21.947184
20.475207
19.210717
18.118349
17.169277
16.340375
15.612968
14.971898
14.404802
13.901558
13.453839
13.05477
12.698636
12.380659
12.096802
11.843628
11.618175
11.417873
11.240487
11.08354
10.944986
10.823889
10.717786
10.62508
10.544311
10.474132
10.413302
10.36067
10.315267
10.276434
10.243069
10.214471
10.190024
10.169421
10.151964
10.137267
10.124999
10.114882
10.106683
10.09848
10.089931
10.081008
10.071675
10.061897
10.051635
10.040844
10.029476
10.017626
10.007961
10.000233
9.9942359
9.9898017
9.98677
9.9849979
9.9844715
9.9851914
9.9867641
9.989025
9.9934051
9.9992353
1322.1905
1426.2327
625.32818
426.47803
293.62683
217.84752
163.39013
126.78449
100.42539
81.429169
67.354729
56.767922
48.593247
42.203465
37.134356
33.058776
29.741463
27.011266
24.741537
22.83733
21.22651
19.85363
18.672306
17.651099
16.763106
15.986794
15.304807
14.703083
14.170172
13.69671
13.275007
12.898715
12.562562
12.262129
11.993671
11.753971
11.540218
11.349916
11.181894
11.0333
10.902283
10.787116
10.686176
10.597924
10.520984
10.454103
10.396152
10.345918
10.302838
10.265713
10.233797
10.20643
10.183032
10.163233
10.146426
10.132236
10.120345
10.110482
10.102417
10.094293
10.085844
10.077041
10.067854
10.058251
10.048197
10.037655
10.026583
10.015495
10.006495
9.9993412
9.993832
9.989797
9.9870721
9.9855275
9.9851388
9.9858426
9.9872877
9.9894503
9.9933621
9.9984055
1315.8128
1377.2541
616.49664
415.1318
285.70025
209.51255
156.412
120.57476
95.171925
76.992847
63.65533
53.684488
46.033604
40.073228
35.354762
31.565378
28.482462
25.945088
23.8346
22.062351
20.56118
19.279559
18.177482
17.223549
16.39288
15.665593
15.025686
14.460209
13.958627
13.512335
13.114273
12.758623
12.440555
12.156027
11.901612
11.674361
11.471679
11.291303
11.13119
10.989478
10.864446
10.754505
10.658185
10.573899
10.50032
10.436223
10.380981
10.333149
10.291817
10.256164
10.22548
10.199146
10.176767
10.157661
10.141412
10.12766
10.116097
10.106457
10.098514
10.090494
10.082167
10.073508
10.064489
10.055084
10.045262
10.034989
10.024232
10.013806
10.005383
9.9987263
9.9936379
9.9899448
9.9874847
9.9861382
9.985862
9.9865473
9.9879038
9.9899914
9.9935101
9.9978596
1299.7717
1324.5081
607.88363
401.51277
276.09254
200.11172
148.60368
113.87935
89.646717
72.455835
59.952474
50.651233
43.5577
38.042685
33.680464
30.176842
27.323948
24.973386
23.01552
21.368684
19.971171
18.775723
17.745695
16.852344
16.072887
15.389109
14.78634
14.252694
13.778497
13.355842
12.978241
12.640345
12.33772
12.066662
11.824047
11.607204
11.413602
11.241128
11.087867
10.952054
10.832044
10.726293
10.634067
10.553364
10.482926
10.421609
10.368366
10.322251
10.282415
10.248008
10.218341
10.193041
10.171353
10.152814
10.137023
10.12363
10.112336
10.102881
10.095043
10.087148
10.078964
10.070468
10.061637
10.052447
10.042871
10.032882
10.022451
10.012573
10.004626
9.998379
9.9936351
9.99022
9.9879757
9.9867892
9.9865963
9.9872644
9.9885686
9.9906036
9.9938047
9.9976111
1267.9109
1271.0374
601.06413
385.41243
264.26742
189.32938
139.79489
106.64393
83.87292
67.867318
56.300381
47.717291
41.192459
36.127125
32.121797
28.903147
26.272371
24.099734
22.285405
20.755172
19.453032
18.336127
17.371217
16.5322
15.798352
15.153076
14.582978
14.077185
13.626829
13.224645
12.864659
12.541935
12.252363
11.992494
11.759392
11.551439
11.3656
11.199912
11.052592
10.921994
10.806587
10.704933
10.615686
10.537588
10.469355
10.409887
10.35817
10.313284
10.27474
10.241453
10.212765
10.188093
10.166926
10.148814
10.133367
10.120243
10.10915
10.099833
10.092074
10.084323
10.076299
10.067983
10.059354
10.050391
10.041071
10.03137
10.021262
10.011803
10.004218
9.9982809
9.9937952
9.9905865
9.9885023
9.9874313
9.9872896
9.9879361
9.9892007
9.9911734
9.9940919
9.9974567
1218.295
1206.4982
588.69416
365.71452
248.89224
177.163
130.63598
99.766876
78.758877
64.028663
53.371936
45.436872
39.378717
34.66528
30.931903
27.925268
25.468352
23.434673
21.732115
20.292401
19.064094
18.00784
17.093086
16.295783
15.596803
14.980827
14.435483
13.950712
13.518301
13.131514
12.784808
12.473599
12.194071
11.943022
11.717734
11.515772
11.335064
11.173752
11.030147
10.902679
10.78988
10.690368
10.602838
10.526657
10.460076
10.402038
10.351569
10.307781
10.269871
10.237116
10.208874
10.184574
10.163713
10.145851
10.130603
10.117632
10.106648
10.0974
10.089669
10.082079
10.074232
10.066109
10.057694
10.048968
10.039911
10.030503
10.020725
10.011535
10.004182
9.9984413
9.9941154
9.991031
9.98904
9.9880304
9.9879025
9.9885179
9.9897571
9.9916978
9.9944281
9.9974933
1161.5587
1127.4709
564.52179
343.30627
229.10757
161.39486
118.90301
91.046202
72.269937
59.158472
49.683381
42.62691
37.235761
33.014788
29.644437
26.909694
24.659251
22.784368
21.205369
19.862817
18.711632
17.717107
16.852036
16.094875
15.428664
14.839634
14.316595
13.850395
13.433516
13.059762
12.724009
12.422003
12.150191
11.905576
11.686425
11.489687
11.313414
11.155859
11.015441
10.890683
10.780195
10.68266
10.596834
10.52154
10.455676
10.398216
10.348214
10.304802
10.267195
10.234684
10.206639
10.182496
10.16176
10.143996
10.128823
10.115907
10.104961
10.095732
10.088006
10.080585
10.072917
10.064986
10.056776
10.048271
10.039453
10.030305
10.020808
10.011744
10.004497
9.99884
9.9945746
9.9915274
9.9895521
9.9885305
9.9883518
9.9888939
9.9900742
9.9919135
9.9943753
9.9971467
1124.9917
1170.4639
575.66667
346.58107
229.35743
160.47563
117.77361
90.202829
71.750741
58.888628
49.583077
42.630943
37.295891
33.108047
29.757499
27.032666
24.785055
22.908087
21.323708
19.973695
18.813871
17.810162
16.936032
16.170557
15.496756
14.900894
14.371744
13.900099
13.478379
13.100327
12.760765
12.455386
12.180596
11.933364
11.711108
11.511602
11.332878
11.173076
11.03057
10.903878
10.791608
10.692443
10.605137
10.528511
10.461458
10.402947
10.352021
10.307804
10.2695
10.236391
10.207832
10.183253
10.162148
10.144071
10.128633
10.115493
10.104356
10.094965
10.087096
10.079873
10.07241
10.064693
10.056707
10.048434
10.03986
10.030967
10.021739
10.012556
10.00521
9.9994767
9.99515
9.9920512
9.9900287
9.9889548
9.9887121
9.9891916
9.99032
9.9920661
9.9943533
9.9970109
1162.7717
1239.6087
596.9715
362.12325
238.91951
167.20449
122.47562
93.635961
74.317919
60.862624
51.130296
43.861451
38.284697
33.90971
30.412268
27.570976
25.23038
23.278796
21.634308
20.23573
19.036582
18.001011
17.100947
16.31409
15.622515
15.011741
14.469972
13.987554
13.556547
13.170406
12.823714
12.511976
12.231442
11.978959
11.751853
11.547824
11.364857
11.201235
11.055313
10.925554
10.810527
10.708889
10.61937
10.540773
10.471971
10.411916
10.359634
10.314233
10.274899
10.240898
10.211572
10.186335
10.164668
10.146115
10.130275
10.116799
10.105381
10.095757
10.087699
10.080701
10.073468
10.065985
10.058238
10.050212
10.041891
10.033259
10.024299
10.014994
10.007275
10.001223
9.9966222
9.9932875
9.9910596
9.9898017
9.9893926
9.9897284
9.9907286
9.9923281
9.9944492
9.9970116
30451.458
32859.373
18939.68
13119.79
9518.2596
6937.9946
5061.4294
3711.3064
2738.2351
2036.6988
1523.7368
1147.4305
866.50285
660.83121
501.4752
382.2774
289.61155
219.87789
168.27623
130.36363
102.21416
81.524384
66.235451
54.890531
46.434061
40.037397
35.147148
31.335034
28.308611
25.839005
23.773297
22.017226
20.503815
19.185823
18.029207
17.008999
16.106352
15.306615
14.598037
13.970922
13.417015
12.929118
12.500865
12.126506
11.800771
11.518779
11.275939
11.067769
10.890775
10.742334
10.620385
10.522537
10.444376
10.382729
10.335483
10.300641
10.27576
10.258635
10.245787
10.235394
10.224561
10.21433
10.200658
10.187869
10.167161
10.150434
10.120131
10.102183
10.05744
10.040845
10.008784
10.003276
9.976313
9.9828066
9.9519105
9.9822836
9.9507269
10.004457
9.9632237
10.002897
33320.465
28229.928
21485.565
16275.503
12071.545
8794.3096
6371.2527
4617.3239
3362.3054
2464.0133
1816.6705
1345.8102
1001.2333
747.28023
559.54939
420.36484
317.05672
240.56589
183.90156
141.99868
110.85417
87.867563
70.887319
58.316914
48.983975
41.943809
36.583882
32.430243
29.161765
26.522107
24.326643
22.469052
20.87561
19.49341
18.284538
17.221266
16.282801
15.453084
14.719315
14.070994
13.499227
12.996306
12.555442
12.170539
11.836033
11.546797
11.298055
11.085013
10.903937
10.752039
10.627236
10.526803
10.446186
10.382586
10.333812
10.298004
10.273167
10.256303
10.243807
10.233841
10.22336
10.213525
10.200124
10.187709
10.167166
10.15073
10.120467
10.102737
10.058521
10.042123
10.009709
10.004476
9.9771781
9.9839241
9.953028
9.9830591
9.9520464
10.005428
9.9644169
10.004346
36647.061
20071.441
12942.87
8330.2791
4653.3543
2267.1428
1038.9259
498.44347
280.49643
188.95177
146.39492
121.02193
104.32341
91.059399
80.734344
72.139408
64.642603
58.72868
53.167724
48.725761
44.467723
40.999402
37.782743
34.943032
32.412551
30.059939
27.979764
26.09079
24.386052
22.821185
21.391506
20.101202
18.939474
17.893474
16.952313
16.106314
15.346968
14.666677
14.058634
13.516715
13.035285
12.609183
12.233664
11.904277
11.616827
11.367339
11.152009
10.96674
10.808944
10.676768
10.568801
10.481585
10.410949
10.355301
10.312905
10.282804
10.262572
10.248972
10.238338
10.22962
10.219474
10.210242
10.196509
10.184663
10.163162
10.147697
10.116019
10.100079
10.054269
10.041305
10.007392
10.004902
9.9759786
9.9850522
9.9523416
9.9847774
9.9520025
10.007287
9.9647427
10.005883
33892.87
23405.646
13772.571
7747.0194
3595.8084
1419.7325
561.42301
281.40561
192.93517
152.72558
129.98955
111.55403
98.372651
86.551294
77.398217
69.48704
62.42833
57.0422
51.636684
47.514629
43.323013
40.098607
36.874884
34.225568
31.672284
29.476616
27.400949
25.596335
23.905899
22.380618
21.004122
19.76272
18.644454
17.637155
16.730212
15.914351
15.181505
14.524469
13.936801
13.41269
12.946793
12.534219
12.17045
11.851241
11.57257
11.330621
11.121732
10.941902
10.788771
10.660615
10.555901
10.470532
10.401314
10.346854
10.305801
10.277335
10.258378
10.245709
10.235712
10.227454
10.217614
10.208626
10.195058
10.183332
10.161921
10.146508
10.114947
10.099109
10.054136
10.042005
10.00766
10.006045
9.9765686
9.9864494
9.9532239
9.9862967
9.9529909
10.009082
9.9657102
10.007512
35892.842
23013.312
13328.122
7266.8149
3264.0978
1241.3427
492.55083
259.34002
184.43346
147.32352
125.78441
107.82302
95.232099
83.813252
75.245242
67.451456
61.075573
55.368439
50.528772
46.205571
42.448975
39.055494
36.07671
33.379776
30.975825
28.795906
26.835019
25.045777
23.426319
21.961259
20.638573
19.445296
18.368972
17.398272
16.523283
15.735358
15.026985
14.391402
13.822546
13.314916
12.863442
12.463473
12.110692
11.801028
11.530616
11.295779
11.092978
10.918297
10.769598
10.645267
10.543452
10.459749
10.391858
10.338522
10.299241
10.27233
10.254577
10.242739
10.233352
10.225464
10.215947
10.2071
10.193767
10.182018
10.160836
10.145264
10.11406
10.097978
10.053923
10.041813
10.007874
10.005689
9.9771808
9.9867361
9.9540891
9.9870316
9.9539522
10.010478
9.9666567
10.008956
36454.092
22690.726
12944.338
6712.8302
2741.8346
957.9718
390.60361
227.70036
173.94101
141.20307
121.71165
104.22684
92.312244
81.124032
73.011557
65.417661
59.315198
53.779336
49.139555
44.964969
41.339578
38.096492
35.217619
32.628332
30.30367
28.204275
26.304956
24.580247
23.014771
21.598234
20.319407
19.165101
18.1234
17.183436
16.335752
15.572088
14.885263
14.268797
13.716872
13.224197
12.785901
12.397517
12.054885
11.754073
11.491347
11.263147
11.066042
10.896186
10.751655
10.630926
10.53155
10.449344
10.382689
10.330914
10.293429
10.267953
10.251287
10.240192
10.231335
10.223763
10.21451
10.205773
10.192626
10.180841
10.159845
10.144117
10.113226
10.097036
10.05389
10.042071
10.008264
10.006482
9.9778125
9.9876724
9.9549897
9.988001
9.9549446
10.011965
9.9676169
10.010418
37390.816
22433.484
12513.343
6152.4987
2381.9419
801.6421
343.61219
214.68171
168.58523
137.86907
118.94944
101.75823
90.166117
79.102838
71.252115
63.793944
57.909497
52.51014
48.02365
43.959816
40.448603
37.289588
34.497013
31.979693
29.724923
27.686341
25.844112
24.168272
22.648174
21.273215
20.032056
18.911679
17.900395
16.987644
16.164275
15.422323
14.754877
14.155684
13.619122
13.140076
12.713846
12.336113
12.002848
11.710236
11.454651
11.232636
11.04085
10.875508
10.73489
10.617546
10.520085
10.43924
10.373951
10.324167
10.288349
10.264169
10.248475
10.238027
10.229624
10.222305
10.213271
10.204599
10.191612
10.179753
10.158938
10.143018
10.112452
10.096154
10.05383
10.041995
10.008569
10.006938
9.9784244
9.9883039
9.955896
9.988839
9.9559399
10.013402
9.9685774
10.011852
38148.161
22079.808