/*--------------------------------*- C++ -*----------------------------------*\
  =========                 |
  \\      /  F ield         | OpenFOAM: The Open Source CFD Toolbox
   \\    /   O peration     | Website:  https://openfoam.org
    \\  /    A nd           | Version:  6
     \\/     M anipulation  |
\*---------------------------------------------------------------------------*/
FoamFile
{
    version     2.0;
    format      ascii;
    class       volScalarField;
    location    "950";
    object      p;
}
// * * * * * * * * * * * * * * * * * * * * * * * * * * * * * * * * * * * * * //

dimensions      [1 -1 -2 0 0 0 0];

internalField   nonuniform List<scalar> 
16000
(
99130.688
99188.481
99192.444
99248.064
99260.167
99310.9
99332.119
99378.499
99407.467
99451.286
99486.083
99529.081
99568.067
99611.453
99653.469
99697.888
99742.161
99787.829
99833.812
99880.657
99927.895
99975.657
100023.7
100071.99
100120.36
100168.7
100216.86
100264.7
100312.06
100358.79
100404.74
100449.74
100493.63
100536.26
100577.47
100617.11
100655.05
100691.14
100725.28
100757.35
100787.25
100814.91
100840.25
100863.22
100883.78
100901.9
100917.59
100930.84
100941.66
100950.09
100956.16
100959.92
100961.43
100960.75
100957.94
100953.09
100946.26
100937.53
100926.98
100914.71
100900.76
100885.26
100868.2
100849.82
100829.85
100809.01
100786.06
100763.51
100736.76
100714.37
100680.72
100663.91
100614.71
100619.88
100526.59
100594.78
100390.3
100621.92
100190.13
100677.54
99183.731
99245.66
99249.59
99309.672
99322.113
99376.961
99399.232
99449.209
99479.918
99526.903
99563.924
99609.818
99651.292
99697.42
99742.015
99789.067
99835.89
99884.067
99932.477
99981.657
100031.12
100080.97
100130.95
100181
100230.94
100280.63
100329.91
100378.61
100426.56
100473.6
100519.55
100564.25
100607.51
100649.19
100689.13
100727.18
100763.22
100797.11
100828.75
100858.06
100884.96
100909.39
100931.3
100950.69
100967.53
100981.84
100993.64
101002.97
101009.87
101014.4
101016.63
101016.63
101014.47
101010.25
101004.05
100995.95
100986.04
100974.4
100961.13
100946.3
100930
100912.3
100893.25
100872.97
100851.41
100828.85
100804.86
100780.4
100753.68
100728.2
100697.14
100673.67
100632.37
100622.41
100550.64
100587.05
100423.61
100602.92
100222.14
100663.12
99258.091
99325.07
99329.026
99393.935
99407.125
99466.166
99490.008
99543.57
99576.496
99626.65
99666.271
99715.101
99759.328
99808.258
99855.601
99905.336
99954.79
100005.49
100056.32
100107.78
100159.38
100211.19
100262.93
100314.51
100365.74
100416.46
100466.47
100515.59
100563.65
100610.45
100655.81
100699.56
100741.51
100781.52
100819.42
100855.09
100888.4
100919.25
100947.55
100973.25
100996.28
101016.64
101034.31
101049.3
101061.64
101071.37
101078.56
101083.27
101085.59
101085.6
101083.39
101079.07
101072.74
101064.5
101054.45
101042.69
101029.32
101014.43
100998.1
100980.43
100961.48
100941.34
100920.05
100897.7
100874.29
100849.95
100824.54
100798.41
100770.89
100743.37
100712.92
100685.53
100648.55
100628.5
100570.29
100585.39
100451.02
100588.55
100249.74
100651.25
99355.179
99427.6
99431.614
99501.889
99515.939
99579.649
99605.288
99662.823
99698.273
99751.921
99794.464
99846.517
99893.79
99945.771
99996.098
100048.71
100100.96
100154.29
100207.63
100261.39
100315.1
100368.77
100422.11
100475.02
100527.25
100578.63
100628.95
100678
100725.59
100771.52
100815.59
100857.63
100897.45
100934.91
100969.86
101002.19
101031.8
101058.6
101082.55
101103.61
101121.78
101137.06
101149.49
101159.12
101166.02
101170.28
101172
101171.28
101168.24
101162.99
101155.67
101146.4
101135.3
101122.49
101108.09
101092.21
101074.95
101056.41
101036.69
101015.86
100994
100971.17
100947.44
100922.85
100897.44
100871.25
100844.25
100816.57
100787.94
100758.89
100728.21
100698.45
100663.6
100637.49
100587.55
100587.45
100475.67
100580.25
100277.85
100651.55
99474.64
99553.244
99557.534
99633.924
99649.166
99718.103
99745.977
99807.883
99846.318
99903.773
99949.647
100005.19
100055.83
100111.07
100164.61
100220.24
100275.4
100331.42
100387.26
100443.26
100498.94
100554.27
100608.95
100662.82
100715.63
100767.18
100817.22
100865.55
100911.94
100956.19
100998.1
101037.5
101074.22
101108.11
101139.06
101166.98
101191.79
101213.45
101231.96
101247.32
101259.56
101268.75
101274.96
101278.3
101278.89
101276.85
101272.31
101265.44
101256.37
101245.27
101232.27
101217.53
101201.2
101183.4
101164.27
101143.92
101122.47
101100.02
101076.66
101052.46
101027.49
101001.82
100975.49
100948.54
100921
100892.9
100864.22
100834.99
100805.11
100774.74
100743.39
100712.02
100677.99
100647.88
100603.62
100591.31
100498.1
100576.48
100304.42
100654.5
99619.59
99705.431
99710.028
99793.115
99809.665
99884.209
99914.616
99981.148
100022.92
100084.4
100133.93
100193.15
100247.42
100306.09
100363
100421.74
100479.87
100538.57
100596.85
100654.94
100712.39
100769.08
100824.71
100879.08
100931.91
100982.96
101031.99
101078.76
101123.05
101164.64
101203.34
101238.99
101271.44
101300.57
101326.3
101348.58
101367.36
101382.67
101394.54
101403.03
101408.23
101410.26
101409.26
101405.36
101398.74
101389.57
101378.04
101364.32
101348.6
101331.07
101311.89
101291.23
101269.26
101246.12
101221.94
101196.86
101170.98
101144.41
101117.22
101089.49
101061.29
101032.66
101003.65
100974.27
100944.55
100914.5
100884.1
100853.35
100822.19
100790.63
100758.47
100725.97
100692.12
100659.5
100619.15
100597.56
100519.57
100576.11
100331.05
100661.21
99790.943
99884.997
99889.695
99980.178
99998.251
100078.84
100112.19
100183.67
100229.24
100295.02
100348.6
100411.77
100469.95
100532.25
100592.7
100654.65
100715.78
100777.1
100837.67
100897.63
100956.5
101014.12
101070.17
101124.38
101176.47
101226.17
101273.22
101317.38
101358.41
101396.13
101430.35
101460.92
101487.74
101510.74
101529.86
101545.11
101556.53
101564.17
101568.13
101568.55
101565.58
101559.38
101550.16
101538.12
101523.47
101506.44
101487.23
101466.08
101443.2
101418.78
101393.03
101366.12
101338.23
101309.5
101280.08
101250.09
101219.64
101188.83
101157.73
101126.41
101094.91
101063.29
101031.56
100999.74
100967.84
100935.85
100903.75
100871.51
100839.08
100806.43
100773.43
100740.09
100706.09
100671.97
100634.4
100606.18
100540.63
100577.8
100357.87
100671.54
99988.347
100091.72
100096.7
100195.52
100215.58
100302.84
100339.78
100416.66
100466.65
100537.11
100595.26
100662.69
100725.14
100791.28
100855.45
100920.66
100984.76
101048.57
101111.18
101172.62
101232.42
101290.35
101346.04
101399.21
101449.55
101496.78
101540.62
101580.84
101617.21
101649.57
101677.77
101701.71
101721.33
101736.61
101747.58
101754.3
101756.88
101755.46
101750.21
101741.34
101729.05
101713.6
101695.24
101674.21
101650.79
101625.24
101597.81
101568.76
101538.3
101506.67
101474.07
101440.69
101406.71
101372.27
101337.51
101302.55
101267.49
101232.42
101197.4
101162.49
101127.73
101093.13
101058.73
101024.51
100990.48
100956.61
100922.87
100889.21
100855.59
100821.95
100788.17
100754.2
100719.93
100685.04
100649.26
100616.45
100561.59
100581.47
100386.33
100684.28
100213.06
100327.17
100332.61
100440.83
100463.43
100558.06
100599.32
100682.1
100737.21
100812.77
100876.01
100948.03
101015.07
101085.22
101153.2
101221.65
101288.56
101354.55
101418.75
101481.09
101541.06
101598.39
101652.68
101703.62
101750.87
101794.17
101833.23
101867.84
101897.83
101923.05
101943.42
101958.91
101969.54
101975.35
101976.47
101973.04
101965.27
101953.37
101937.6
101918.24
101895.58
101869.93
101841.59
101810.87
101778.08
101743.52
101707.46
101670.16
101631.89
101592.87
101553.3
101513.37
101473.26
101433.11
101393.04
101353.16
101313.56
101274.3
101235.46
101197.05
101159.11
101121.65
101084.67
101048.16
101012.1
100976.45
100941.17
100906.21
100871.5
100836.99
100802.54
100768.12
100733.59
100698.48
100663.83
100628.15
100582.34
100587.01
100416.5
100698.18
100466.84
100593.33
100599.47
100718.25
100744.06
100846.78
100893.21
100982.4
101043.37
101124.46
101193.32
101270.22
101342.11
101416.37
101488.13
101559.6
101628.96
101696.6
101761.67
101824
101883.06
101938.51
101989.95
102037.05
102079.47
102116.96
102149.27
102176.24
102197.75
102213.73
102224.19
102229.18
102228.82
102223.28
102212.76
102197.52
102177.86
102154.1
102126.58
102095.65
102061.67
102025.02
101986.05
101945.11
101902.53
101858.63
101813.71
101768.04
101721.88
101675.44
101628.94
101582.54
101536.41
101490.68
101445.44
101400.81
101356.83
101313.58
101271.08
101229.35
101188.41
101148.26
101108.87
101070.22
101032.28
100995
100958.33
100922.21
100886.57
100851.32
100816.36
100781.65
100746.96
100712.04
100678.08
100641.01
100602.7
100594.34
100447.93
100712.03
100751.86
100892.55
100899.6
101030.2
101060
101171.56
101224.12
101320.28
101387.91
101474.97
101549.93
101631.98
101708.86
101787.18
101862.46
101936.53
102007.66
102076.06
102140.89
102201.86
102258.45
102310.27
102356.91
102398.05
102433.4
102462.72
102485.87
102502.74
102513.31
102517.64
102515.84
102508.09
102494.63
102475.75
102451.8
102423.13
102390.14
102353.26
102312.91
102269.51
102223.5
102175.27
102125.23
102073.76
102021.19
101967.87
101914.08
101860.1
101806.16
101752.48
101699.25
101646.62
101594.72
101543.66
101493.54
101444.42
101396.35
101349.36
101303.47
101258.68
101214.99
101172.37
101130.79
101090.22
101050.6
101011.89
100974.02
100936.92
100900.51
100864.7
100829.41
100794.57
100759.89
100725.45
100691.92
100654.66
100622.3
100603.04
100479.5
100724.77
101069.37
101226.66
101235.12
101379.06
101413.98
101535.27
101595.15
101698.91
101774.07
101867.55
101949.04
102036.36
102118.18
102200.24
102278.49
102354.31
102426.1
102493.86
102556.77
102614.46
102666.39
102712.18
102751.45
102783.91
102809.35
102827.63
102838.7
102842.61
102839.46
102829.46
102812.88
102790.05
102761.35
102727.22
102688.13
102644.56
102597.01
102545.99
102492
102435.51
102377.01
102316.92
102255.66
102193.62
102131.14
102068.55
102006.12
101944.1
101882.72
101822.15
101762.56
101704.08
101646.81
101590.83
101536.2
101482.98
101431.18
101380.81
101331.87
101284.34
101238.2
101193.4
101149.91
101107.68
101066.64
101026.72
100987.87
100950
100913.03
100876.86
100841.43
100806.62
100772.18
100738.43
100705.22
100668.75
100640.91
100612.57
100510.87
100737.05
101423.03
101599.52
101609.97
101768.82
101810.11
101941.98
102010.43
102122.38
102205.84
102306.05
102394.26
102486.71
102573.06
102658.11
102738.24
102814.38
102885.06
102950.07
103008.63
103060.33
103104.65
103141.24
103169.81
103190.18
103202.26
103206.08
103201.74
103189.48
103169.59
103142.45
103108.53
103068.33
103022.39
102971.29
102915.63
102856
102792.98
102727.15
102659.07
102589.24
102518.15
102446.26
102373.97
102301.64
102229.61
102158.17
102087.57
102018.02
101949.71
101882.78
101817.37
101753.57
101691.44
101631.05
101572.41
101515.55
101460.47
101407.15
101355.56
101305.68
101257.45
101210.82
101165.74
101122.14
101079.95
101039.1
100999.51
100961.11
100923.8
100887.49
100852.12
100817.54
100783.58
100750.68
100717.86
100683.01
100658.68
100622.95
100541.55
100748.55
101816.25
102014.99
102028.18
102203.68
102252.9
102396.17
102474.57
102595.19
102687.56
102794.63
102889.42
102986.42
103076.31
103162.96
103243.11
103317.3
103384.16
103443.36
103494.16
103536.17
103568.96
103592.31
103606.07
103610.24
103604.95
103590.43
103567.03
103535.21
103495.49
103448.49
103394.84
103335.25
103270.4
103201.01
103127.78
103051.38
102972.46
102891.63
102809.46
102726.46
102643.12
102559.86
102477.06
102395.05
102314.12
102234.51
102156.44
102080.06
102005.53
101932.94
101862.39
101793.92
101727.57
101663.36
101601.29
101541.34
101483.49
101427.7
101373.93
101322.11
101272.19
101224.11
101177.79
101133.15
101090.12
101048.63
101008.58
100969.9
100932.49
100896.27
100861.18
100827.04
100793.8
100761.85
100729.63
100697.11
100675.21
100634.07
100571.34
100758.83
102252.81
102477.41
102494.46
102688.4
102747.39
102902.83
102992.84
103122.69
103224.19
103337.75
103438.38
103538.59
103630.13
103715.96
103793.16
103861.94
103921.06
103970.14
104008.57
104036.06
104052.38
104057.52
104051.59
104034.86
104007.75
103970.79
103924.61
103869.94
103807.57
103738.31
103663.02
103582.53
103497.68
103409.28
103318.09
103224.82
103130.14
103034.66
102938.92
102843.42
102748.58
102654.78
102562.35
102471.57
102382.65
102295.79
102211.15
102128.83
102048.93
101971.51
101896.59
101824.21
101754.35
101687
101622.12
101559.68
101499.62
101441.89
101386.42
101333.13
101281.96
101232.82
101185.62
101140.3
101096.76
101054.92
101014.7
100976
100938.75
100902.86
100868.25
100834.77
100802.49
100771.57
100740.23
100710.43
100689.87
100645.61
100599.98
100766.94
102738.02
102992.64
103014.91
103228.77
103299.52
103467.75
103570.82
103710.41
103820.83
103939.51
104044.19
104145.15
104235.15
104316.33
104386.12
104444.5
104490.43
104523.62
104543.7
104550.64
104544.53
104525.71
104494.66
104452.02
104398.58
104335.2
104262.86
104182.54
104095.28
104002.09
103903.97
103801.89
103696.75
103589.39
103480.59
103371.05
103261.4
103152.21
103043.95
102937.06
102831.89
102728.74
102627.87
102529.48
102433.72
102340.73
102250.58
102163.34
102079.04
101997.69
101919.28
101843.79
101771.18
101701.4
101634.4
101570.09
101508.41
101449.28
101392.61
101338.33
101286.34
101236.55
101188.87
101143.21
101099.49
101057.62
101017.51
100979.07
100942.22
100906.89
100872.99
100840.38
100809.26
100779.43
100749.35
100722.5
100702.51
100657.37
100627.1
100772.43
103277.63
103567.32
103597.43
103833.24
103919.31
104101.41
104216.31
104362.26
104481.04
104602.9
104708.45
104806.15
104889.6
104960.37
105016.28
105057.31
105082.78
105092.67
105087.07
105066.35
105031.12
104982.18
104920.48
104847.12
104763.28
104670.19
104569.12
104461.3
104347.94
104230.2
104109.14
103985.77
103860.99
103735.61
103610.37
103485.88
103362.69
103241.28
103122.04
103005.29
102891.3
102780.28
102672.39
102567.76
102466.47
102368.57
102274.09
102183.02
102095.35
102011.04
101930.04
101852.29
101777.72
101706.25
101637.78
101572.24
101509.52
101449.54
101392.19
101337.38
101285.01
101234.98
101187.19
101141.56
101097.98
101056.38
101016.66
100978.74
100942.54
100908
100875
100843.49
100813.66
100785.01
100756.57
100732.66
100712.49
100668.45
100651.98
100775.3
103878.5
104209.65
104252.2
104510.66
104613.8
104806.69
104934.4
105087.6
105210.04
105330.6
105431.12
105518.64
105587.74
105639.57
105672.61
105687.09
105682.92
105660.66
105621.02
105565.01
105493.85
105408.92
105311.71
105203.76
105086.62
104961.83
104830.85
104695.08
104555.8
104414.19
104271.3
104128.07
103985.32
103843.75
103703.99
103566.53
103431.79
103300.13
103171.81
103047.05
102926
102808.78
102695.46
102586.08
102480.64
102379.14
102281.53
102187.76
102097.77
102011.48
101928.79
101849.61
101773.85
101701.39
101632.14
101565.97
101502.79
101442.48
101384.94
101330.06
101277.73
101227.85
101180.32
101135.04
101091.92
101050.88
101011.82
100974.67
100939.35
100905.79
100873.89
100843.67
100815.22
100787.87
100761.43
100740.13
100719.24
100678.2
100673.42
100775.23
104567.11
104941.83
104997.46
105274.44
105391.12
105593.13
105731.23
105887.06
106007.96
106119.27
106205.65
106272.63
106316.24
106337.66
106336.31
106313.09
106268.82
106204.86
106122.76
106024.3
105911.38
105785.96
105650
105505.39
105353.93
105197.33
105037.1
104874.65
104711.2
104547.82
104385.44
104224.85
104066.7
103911.54
103759.81
103611.86
103467.97
103328.33
103193.08
103062.33
102936.11
102814.46
102697.34
102584.73
102476.55
102372.74
102273.21
102177.84
102086.55
101999.2
101915.69
101835.88
101759.66
101686.91
101617.49
101551.28
101488.17
101428.04
101370.76
101316.23
101264.33
101214.97
101168.03
101123.43
101081.06
101040.84
101002.69
100966.53
100932.29
100899.91
100869.28
100840.47
100813.48
100787.58
100763.29
100744.07
100722.64
100686.42
100690.44
100771.85
105342
105758.92
105823.54
106113.91
106259.19
106479.91
106616.45
106762.95
106870.12
106958.6
107016.56
107048.38
107051.84
107028.68
106979.67
106906.74
106811.88
106697.45
106565.91
106419.79
106261.57
106093.66
105918.27
105737.47
105553.1
105366.79
105179.97
104993.86
104809.5
104627.73
104449.26
104274.66
104104.36
103938.72
103777.99
103622.34
103471.88
103326.67
103186.74
103052.06
102922.58
102798.23
102678.92
102564.55
102454.98
102350.09
102249.76
102153.84
102062.19
101974.67
101891.13
101811.43
101735.43
101663
101593.99
101528.28
101465.73
101406.21
101349.62
101295.83
101244.73
101196.21
101150.17
101106.51
101065.15
101026
100988.97
100954
100921.02
100889.96
100860.76
100833.49
100808.04
100783.73
100761.59
100744.27
100723.5
100691.98
100701.67
100764.76
106202.88
106662.89
106758.36
107086.28
107233.62
107439.15
107572.03
107694.61
107772.99
107821.66
107833.35
107812.4
107758.95
107676.07
107566.27
107432.85
107279.03
107108.17
106923.46
106727.96
106524.46
106315.46
106103.18
105889.55
105676.2
105464.49
105255.55
105050.31
104849.47
104653.62
104463.17
104278.43
104099.62
103926.86
103760.22
103599.71
103445.3
103296.92
103154.48
103017.86
102886.92
102761.53
102641.52
102526.73
102417.01
102312.18
102212.08
102116.54
102025.39
101938.47
101855.63
101776.7
101701.53
101629.97
101561.89
101497.14
101435.58
101377.09
101321.55
101268.84
101218.85
101171.46
101126.58
101084.12
101043.99
101006.1
100970.38
100936.76
100905.18
100875.57
100847.9
100822.25
100798.39
100775.79
100755.88
100740.42
100720.46
100692.42
100706.97
100755.06
107194.89
107710.76
107830.31
108149.08
108301.13
108482.62
108585.9
108662.11
108685.95
108670.62
108613.05
108519.06
108391.48
108235.17
108054.38
107853.65
107637.17
107408.84
107172.17
106930.24
106685.7
106440.8
106197.37
105956.94
105720.69
105489.57
105264.3
105045.39
104833.23
104628.06
104430.02
104239.16
104055.49
103878.93
103709.4
103546.77
103390.87
103241.53
103098.58
102961.82
102831.06
102706.08
102586.71
102472.72
102363.94
102260.16
102161.19
102066.85
101976.95
101891.32
101809.8
101732.21
101658.39
101588.2
101521.48
101458.09
101397.9
101340.78
101286.61
101235.27
101186.65
101140.65
101097.16
101056.09
101017.37
100980.9
100946.63
100914.49
100884.42
100856.34
100830.27
100806.25
100783.96
100763.14
100745.35
100731.23
100712.28
100689.1
100705.69
100740.63
108357.86
108897.17
109025.8
109320.81
109444.21
109569.83
109609.96
109607.62
109546.98
109441.47
109292.82
109108.93
108895.29
108658.29
108403.43
108135.84
107859.93
107579.5
107297.68
107017.07
106739.72
106467.23
106200.83
105941.43
105689.68
105446.03
105210.73
104983.93
104765.66
104555.88
104354.48
104161.31
103976.18
103798.87
103629.17
103466.83
103311.62
103163.27
103021.56
102886.23
102757.04
102633.75
102516.15
102403.99
102297.07
102195.18
102098.11
102005.66
101917.65
101833.89
101754.21
101678.44
101606.42
101537.99
101473.01
101411.34
101352.83
101297.37
101244.84
101195.11
101148.09
101103.66
101061.74
101022.23
100985.06
100950.15
100917.44
100886.86
100858.35
100831.87
100807.43
100785.02
100764.33
100745.32
100729.46
100716.45
100699.07
100680.84
100696.88
100720.18
109669.4
110190.44
110297.63
110530.28
110589.12
110619.83
110559.4
110445.23
110272.24
110055.58
109801.75
109520.51
109219.07
108904.38
108582.01
108256.63
107931.95
107610.86
107295.58
106987.72
106688.47
106398.61
106118.64
105848.85
105589.33
105340.06
105100.93
104871.74
104652.25
104442.19
104241.27
104049.17
103865.59
103690.2
103522.7
103362.77
103210.11
103064.42
102925.44
102792.87
102666.45
102545.93
102431.07
102321.62
102217.36
102118.07
102023.55
101933.59
101848
101766.61
101689.23
101615.69
101545.85
101479.53
101416.61
101356.94
101300.39
101246.83
101196.16
101148.25
101103.01
101060.32
101020.12
100982.3
100946.79
100913.53
100882.44
100853.48
100826.58
100801.71
100778.89
100758.05
100738.93
100721.69
100707.52
100695.45
100679.97
100666.28
100680.32
100694.27
110996.23
111512.53
111577.42
111696.33
111640.49
111527.11
111325
111069.04
110764.87
110428.96
110070.59
109699.49
109322.54
108945.46
108572.43
108206.57
107850.06
107504.4
107170.54
106849.01
106540.05
106243.68
105959.75
105688.01
105428.14
105179.76
104942.47
104715.86
104499.49
104292.96
104095.85
103907.75
103728.28
103557.07
103393.75
103237.98
103089.43
102947.79
102812.75
102684.03
102561.36
102444.48
102333.14
102227.09
102126.13
102030.02
101938.56
101851.56
101768.83
101690.19
101615.46
101544.49
101477.12
101413.19
101352.57
101295.13
101240.74
101189.28
101140.63
101094.69
101051.36
101010.54
100972.14
100936.1
100902.32
100870.76
100841.34
100814
100788.71
100765.43
100744.16
100724.83
100707.22
100691.64
100678.89
100667.67
100654.24
100644.36
100655.61
100662.31
112503.84
112836.37
112786.28
112693.83
112455.83
112153.27
111785.74
111382.78
110955.46
110517.71
110077.67
109642.21
109215.68
108801.21
108400.69
108015.28
107645.49
107291.44
106952.99
106629.78
106321.35
106027.19
105746.73
105479.38
105224.55
104981.66
104750.14
104529.45
104319.08
104118.53
103927.34
103745.07
103571.29
103405.62
103247.68
103097.11
102953.59
102816.8
102686.44
102562.22
102443.88
102331.16
102223.81
102121.61
102024.33
101931.76
101843.71
101759.97
101680.38
101604.75
101532.92
101464.74
101400.04
101338.7
101280.57
101225.53
101173.45
101124.22
101077.74
101033.88
100992.57
100953.71
100917.21
100883.01
100851.02
100821.18
100793.45
100767.75
100744.05
100722.33
100702.57
100684.67
100668.52
100654.46
100642.92
100632.54
100621.13
100614.21
100622.43
100624.2
113814.27
113774.76
113520.89
113172.91
112736.84
112259.49
111756.07
111246.34
110739.77
110244.44
109764.61
109303.12
108861.15
108439.12
108036.96
107654.23
107290.26
106944.27
106615.4
106302.78
106005.59
105722.99
105454.18
105198.38
104954.87
104722.99
104502.14
104291.73
104091.24
103900.17
103718.05
103544.44
103378.95
103221.18
103070.78
102927.41
102790.73
102660.46
102536.29
102417.97
102305.24
102197.86
102095.59
101998.23
101905.56
101817.39
101733.52
101653.79
101578.01
101506.03
101437.68
101372.83
101311.32
101253.03
101197.83
101145.58
101096.19
101049.53
101005.51
100964.02
100924.99
100888.31
100853.91
100821.71
100791.66
100763.68
100737.72
100713.72
100691.66
100671.5
100653.21
100636.71
100621.94
100609.22
100598.67
100589.05
100579.4
100574.86
100581.06
100578.29
114193.74
113868.62
113426.37
112906.94
112356.59
111799.12
111248.6
110714.21
110200.23
109709.1
109241.39
108797.01
108375.34
107975.43
107596.08
107236.09
106894.28
106569.55
106260.86
105967.23
105687.77
105421.65
105168.18
104926.71
104696.58
104477.2
104268.01
104068.5
103878.19
103696.63
103523.4
103358.12
103200.4
103049.92
102906.32
102769.31
102638.59
102513.91
102395.03
102281.71
102173.71
102070.81
101972.81
101879.5
101790.69
101706.19
101625.83
101549.43
101476.85
101407.92
101342.49
101280.44
101221.61
101165.89
101113.15
101063.27
101016.15
100971.68
100929.76
100890.29
100853.19
100818.38
100785.77
100755.29
100726.88
100700.48
100676.03
100653.47
100632.78
100613.91
100596.84
100581.49
100567.86
100556.12
100546.27
100537.54
100529.66
100525.59
100527.7
100525.42
112752.04
112500.21
112126.61
111663.11
111180.41
110690.21
110208.82
109741.36
109291.34
108860.07
108447.84
108054.41
107679.16
107321.42
106980.45
106655.46
106345.67
106050.31
105768.66
105500
105243.67
104999
104765.4
104542.4
104329.51
104126.27
103932.24
103746.99
103570.13
103401.28
103240.09
103086.21
102939.34
102799.17
102665.42
102537.84
102416.17
102300.15
102189.53
102084.1
101983.62
101887.9
101796.74
101709.97
101627.39
101548.86
101474.19
101403.25
101335.88
101271.94
101211.3
101153.82
101099.38
101047.86
100999.15
100953.13
100909.71
100868.77
100830.24
100794.01
100760.01
100728.15
100698.36
100670.57
100644.7
100620.72
100598.55
100578.14
100559.47
100542.48
100527.14
100513.42
100501.29
100490.84
100482
100474.47
100468.26
100464.53
100463.98
100462.79
107999.73
109078.82
109256.48
109327.1
109198.69
108997.31
108736.83
108449.02
108144.78
107834.81
107524.42
107217.76
106917.16
106624.28
106340.05
106065.06
105799.59
105543.75
105297.52
105060.76
104833.33
104615.01
104405.51
104204.52
104011.75
103826.91
103649.72
103479.91
103317.22
103161.39
103012.19
102869.37
102732.71
102601.98
102476.98
102357.52
102243.38
102134.32
102030.17
101930.74
101835.87
101745.37
101659.1
101576.9
101498.61
101424.1
101353.23
101285.85
101221.84
101161.08
101103.44
101048.8
100997.05
100948.08
100901.79
100858.07
100816.83
100777.97
100741.4
100707.05
100674.82
100644.64
100616.44
100590.15
100565.7
100543.03
100522.09
100502.82
100485.18
100469.14
100454.64
100441.66
100430.17
100420.18
100411.64
100404.48
100398.74
100394.61
100392.2
100391.13
110357.59
110399.4
110278.94
110033.94
109676.16
109249.59
108781.98
108292.39
107793.27
107291.02
106799.04
106317.3
105855.66
105410.49
104984.6
104591.75
104228.28
103902.12
103608.56
103345.96
103112.99
102906.2
102723.51
102561.92
102419.09
102291.56
102175.79
102069.9
101973.74
101890.86
101816.61
101747.81
101683.81
101623.67
101566.78
101512.65
101460.97
101411.53
101364.17
101318.78
101275.3
101233.65
101193.79
101155.68
101119.25
101084.45
101051.24
101019.56
100989.33
100960.52
100933.03
100906.83
100881.78
100857.91
100834.95
100813.1
100791.79
100771.7
100751.5
100733
100713.11
100696.35
100675.5
100661.26
100637.3
100627.6
100596.79
100595.82
100551.72
100567.07
100497.65
100544.21
100431.66
100531
100348.34
100532.97
100241.88
100555.87
100105.73
100611.32
97202.294
97398.992
97776.709
98183.447
98623.867
99097.59
99503.425
99851.168
100176.4
100468.35
100720.23
100939.93
101129.35
101290.67
101427.28
101540.87
101635.36
101709.9
101766.38
101806.27
101833.02
101846.63
101849.58
101842.16
101826.58
101803.35
101774.88
101742.74
101706.73
101668.72
101628.98
101587.83
101545
101501.51
101458.05
101415.03
101372.78
101331.55
101291.48
101252.69
101215.21
101179.09
101144.32
101110.91
101078.83
101048.06
101018.57
100990.33
100963.3
100937.44
100912.67
100888.98
100866.23
100844.48
100823.46
100803.39
100783.71
100765.07
100746.24
100728.89
100710.18
100694.23
100674.5
100660.63
100637.93
100627.99
100598.82
100596.67
100554.98
100568.39
100503.24
100545.49
100438.61
100532.62
100354.7
100535.38
100246.1
100561.79
100106.39
100619.8
104083.65
104117.32
104116.59
104090
104035.21
103958.47
103866.1
103761.64
103648.68
103531.65
103411.26
103290.29
103169.21
103049.75
102932
102818.51
102706.96
102603.9
102503.19
102411.74
102318.56
102236.35
102151.4
102077.57
102006.03
101941.12
101883.24
101827.8
101776.98
101715.92
101658.4
101604.23
101552.46
101503.12
101455.96
101410.78
101367.42
101325.76
101285.7
101247.17
101210.12
101174.52
101140.33
101107.51
101076.05
101045.92
101017.07
100989.47
100963.06
100937.83
100913.67
100890.58
100868.4
100847.21
100826.7
100807.12
100787.87
100769.66
100751.15
100734.13
100715.64
100699.92
100680.32
100666.53
100643.92
100633.84
100604.77
100602.27
100560.32
100573.25
100508.73
100549.22
100444.4
100535.14
100360.8
100536.97
100251.67
100563.46
100110.36
100622.66
101651.32
101653.48
101661.33
101676.27
101695.33
101714.87
101735
101756.6
101777.98
101799.61
101819.79
101838.92
101855.59
101869.7
101880.01
101886.76
101888.6
101886.63
101880.03
101869.8
101855.75
101838.62
101818.29
101793.04
101763.26
101729.74
101694.03
101656.11
101617.94
101579.89
101541.15
101502.45
101463.83
101425.42
101387.42
101349.97
101313.21
101277.26
101242.21
101208.13
101175.08
101143.1
101112.22
101082.45
101053.8
101026.25
100999.81
100974.44
100950.1
100926.79
100904.41
100882.98
100862.33
100842.54
100823.33
100804.94
100786.77
100769.53
100751.89
100735.67
100717.83
100702.75
100683.58
100670.33
100647.91
100638.32
100609.19
100607.2
100565.12
100578.38
100513.38
100554.42
100448.19
100540.17
100364.5
100541.88
100254.75
100567.93
100112.6
100626.66
102031.98
102039.51
102040.56
102039.19
102036.21
102031.05
102024.29
102016.85
102008.11
101998.52
101987.17
101975.64
101961.46
101946.82
101930.06
101911.53
101892.25
101869.1
101846.3
101819.06
101792.8
101761.84
101731.9
101698.87
101666.83
101632.84
101599.84
101565.27
101531.04
101496.59
101462.2
101427.96
101393.99
101360.38
101327.2
101294.53
101262.43
101230.95
101200.16
101170.11
101140.83
101112.38
101084.79
101058.08
101032.27
101007.37
100983.38
100960.29
100938.08
100916.73
100896.17
100876.41
100857.31
100838.94
100821.03
100803.81
100786.71
100770.42
100753.62
100738.14
100720.94
100706.4
100687.69
100674.78
100652.67
100643.23
100614.3
100612.3
100570.28
100583.28
100518.5
100559.03
100453.38
100544.36
100369.26
100545.47
100258.88
100571.44
100115.46
100629.9
101514.52
101519.65
101524.54
101531.39
101538.36
101545.38
101550.51
101556.71
101560.66
101564.93
101566.58
101568.29
101567.51
101566.79
101563.81
101560.42
101555.13
101549.12
101541.33
101532.7
101522.26
101511.12
101498.02
101483.85
101467.78
101450.47
101431.5
101411.38
101390.01
101367.71
101344.54
101320.66
101296.21
101271.34
101246.18
101220.86
101195.51
101170.26
101145.2
101120.45
101096.08
101072.17
101048.79
101025.98
101003.79
100982.25
100961.38
100941.17
100921.62
100902.73
100884.45
100866.78
100849.6
100832.97
100816.66
100800.88
100785.07
100769.94
100754.18
100739.58
100723.18
100709.27
100691.16
100678.66
100656.97
100647.72
100619.11
100617.08
100575.38
100588.09
100523.37
100563.64
100457.98
100548.6
100373.61
100549.44
100262.58
100574.97
100118.12
100632.98
101330.67
101337.38
101342.33
101348
101353.96
101359.64
101364.33
101369.21
101371.92
101376.02
101377.31
101380.54
101380.88
101382.46
101381.7
101380.88
101378.07
101375.16
101370.62
101365.47
101358.94
101351.47
101342.8
101333.07
101322.23
101310.35
101297.46
101283.57
101268.76
101253.1
101236.64
101219.47
101201.68
101183.37
101164.62
101145.52
101126.18
101106.69
101087.13
101067.6
101048.18
101028.93
101009.93
100991.24
100972.9
100954.95
100937.42
100920.33
100903.67
100887.45
100871.62
100856.22
100841.11
100826.38
100811.79
100797.55
100783.15
100769.24
100754.6
100740.92
100725.39
100712.12
100694.66
100682.54
100661.35
100652.22
100624.02
100621.83
100580.55
100592.78
100528.45
100568.09
100463.24
100552.65
100378.27
100553.16
100266.52
100578.28
100120.87
100635.78
101072.93
101079.71
101085.15
101091.68
101098.42
101105.25
101111.4