/*--------------------------------*- C++ -*----------------------------------*\
  =========                 |
  \\      /  F ield         | OpenFOAM: The Open Source CFD Toolbox
   \\    /   O peration     | Website:  https://openfoam.org
    \\  /    A nd           | Version:  6
     \\/     M anipulation  |
\*---------------------------------------------------------------------------*/
FoamFile
{
    version     2.0;
    format      ascii;
    class       surfaceScalarField;
    location    "950";
    object      phi;
}
// * * * * * * * * * * * * * * * * * * * * * * * * * * * * * * * * * * * * * //

dimensions      [1 0 -1 0 0 0 0];

internalField   nonuniform List<scalar> 
31760
(
-0.00058003232
-0.038273347
0.038853378
-0.0012901735
-0.042412376
0.043122515
-0.0020167952
-0.043527596
0.044254217
-0.0027980197
-0.046061576
0.046842799
-0.0035994701
-0.047892756
0.048694206
-0.0044554893
-0.050333369
0.051189387
-0.0053403048
-0.052549905
0.053434721
-0.0062775032
-0.055093436
0.056030634
-0.0072521694
-0.057607168
0.058581834
-0.0082791446
-0.060335918
0.061362892
-0.0093512687
-0.063126125
0.064198249
-0.010477593
-0.066087756
0.067214079
-0.011655288
-0.069158943
0.070336639
-0.01289033
-0.072389715
0.073624756
-0.014182725
-0.075758397
0.077050792
-0.015536717
-0.07928968
0.080643671
-0.016953567
-0.082979974
0.084396824
-0.01843656
-0.086843251
0.088326244
-0.019987736
-0.090883978
0.092435154
-0.021610159
-0.095112487
0.096734909
-0.0233061
-0.099536663
0.1012326
-0.025078638
-0.10416641
0.10593895
-0.026929773
-0.10901145
0.11086259
-0.028862393
-0.11408231
0.11601493
-0.03087883
-0.11938979
0.12140623
-0.032981159
-0.12494609
0.12704842
-0.035171707
-0.13076285
0.13295339
-0.037452756
-0.13685353
0.13913458
-0.039825914
-0.14323176
0.14560492
-0.042292543
-0.14991228
0.15237891
-0.044854335
-0.15691016
0.15947195
-0.047512051
-0.16424214
0.16689985
-0.050266769
-0.17192479
0.17467951
-0.053118368
-0.17997676
0.18282835
-0.056066774
-0.18841734
0.19136575
-0.059111566
-0.19726655
0.20031135
-0.062251813
-0.20654562
0.20968587
-0.065485372
-0.2162777
0.21951125
-0.068810354
-0.22648623
0.22981121
-0.072223678
-0.23719633
0.24060965
-0.075721978
-0.2484344
0.2519327
-0.079300605
-0.26022849
0.26380712
-0.082954644
-0.27260746
0.2762615
-0.086677594
-0.28560281
0.28932576
-0.090462606
-0.29924617
0.30303118
-0.094301634
-0.31357214
0.31741117
-0.098184926
-0.32861618
0.33249947
-0.10210212
-0.34441613
0.34833332
-0.10604122
-0.36101124
0.36495033
-0.10998807
-0.37844348
0.38239034
-0.11392763
-0.3967559
0.40069546
-0.11784205
-0.41599456
0.41990898
-0.12171163
-0.43620743
0.44007701
-0.12551382
-0.45744506
0.46124725
-0.12922397
-0.47976005
0.48347021
-0.13281361
-0.50320838
0.50679802
-0.13625121
-0.52784852
0.53128612
-0.13950058
-0.55374208
0.55699145
-0.14252189
-0.58095232
0.58397363
-0.14526978
-0.60954686
0.61229475
-0.14769347
-0.63959692
0.6420206
-0.14973579
-0.6711755
0.67321782
-0.15133399
-0.70436192
0.70596012
-0.15241421
-0.73923526
0.74031548
-0.15290072
-0.77588358
0.77637009
-0.15269508
-0.81438918
0.81418354
-0.15171197
-0.85485421
0.85387109
-0.14980832
-0.89734091
0.89543726
-0.14691689
-0.94199952
0.93910809
-0.1427954
-0.98881078
0.98468929
-0.13746971
-1.0380927
1.032767
-0.13047502
-1.0895309
1.0825362
-0.12210953
-1.1440295
1.1356641
-0.11134753
-1.2002207
1.1894587
-0.099191477
-1.2609054
1.2487493
-0.08357154
-1.3210706
1.3054506
-0.066728983
-1.389355
1.3725125
-0.045181689
-1.4515707
1.4300235
-0.022110034
-1.5291409
1.5060692
-1.5943557
1.5656842
-0.00056083898
-0.037712509
-0.0012322865
-0.041740929
-0.0019213968
-0.042838486
-0.0026608612
-0.045322112
-0.0034228508
-0.047130767
-0.0042335364
-0.049522684
-0.0050747524
-0.05170869
-0.0059646998
-0.054203489
-0.0068927824
-0.056679085
-0.0078704574
-0.059358243
-0.0088928938
-0.062103688
-0.0099676077
-0.065013043
-0.011092932
-0.06803362
-0.012274415
-0.071208232
-0.013511819
-0.074520994
-0.014809585
-0.077991914
-0.016168968
-0.081620591
-0.017593458
-0.085418761
-0.019085062
-0.089392374
-0.020646742
-0.093550808
-0.022280874
-0.097902531
-0.023990063
-0.10245722
-0.025777239
-0.10722428
-0.027644531
-0.11221502
-0.02959425
-0.11744007
-0.031629027
-0.12291131
-0.0337509
-0.12864097
-0.035961905
-0.13464253
-0.038263478
-0.14093019
-0.040657593
-0.14751816
-0.043145365
-0.15442239
-0.045727767
-0.16165973
-0.048405414
-0.16924715
-0.051178214
-0.17720396
-0.054046601
-0.18554895
-0.057009617
-0.19430354
-0.060065936
-0.2034893
-0.063214275
-0.21312936
-0.066452278
-0.22324823
-0.069776978
-0.23387163
-0.073185088
-0.24502629
-0.076672391
-0.25674119
-0.080233708
-0.26904614
-0.083863495
-0.28197302
-0.087554982
-0.29555468
-0.091300719
-0.30982641
-0.09509174
-0.32482515
-0.098918317
-0.34058955
-0.10276906
-0.3571605
-0.10663166
-0.37458088
-0.11049157
-0.39289599
-0.11433295
-0.41215318
-0.11813772
-0.43240266
-0.12188545
-0.45369732
-0.12555327
-0.47609224
-0.1291155
-0.49964615
-0.13254309
-0.52442092
-0.13580413
-0.55048104
-0.13886141
-0.57789505
-0.1416738
-0.60673447
-0.14419599
-0.63707472
-0.14637535
-0.66899614
-0.14815501
-0.70258226
-0.14946856
-0.73792171
-0.15024442
-0.77510772
-0.15039989
-0.81423371
-0.14984628
-0.85540782
-0.14847197
-0.89871523
-0.14618414
-0.94428735
-0.14281075
-0.99218417
-0.13829543
-1.042608
-0.13233677
-1.0954896
-0.12502557
-1.1513408
-0.11572242
-1.2095239
-0.10491296
-1.2717148
-0.091222279
-1.3347612
-0.076071006
-1.4045063
-0.056954003
-1.4706878
-0.036329184
-1.5497657
-1.619903
-0.00052954201
-0.037182967
-0.0011783574
-0.041092114
-0.00182887
-0.042187974
-0.0025333636
-0.044617619
-0.0032557174
-0.046408413
-0.0040293725
-0.04874903
-0.0048302928
-0.05090777
-0.0056809777
-0.053352805
-0.0065676121
-0.055792451
-0.007504381
-0.058421475
-0.0084843384
-0.061123731
-0.0095162249
-0.063981157
-0.010598061
-0.066951783
-0.011735072
-0.070071221
-0.012928168
-0.073327897
-0.014180618
-0.076739464
-0.015494725
-0.080306484
-0.016872982
-0.084040505
-0.018318395
-0.087946961
-0.019833292
-0.092035911
-0.021420514
-0.096315308
-0.02308286
-0.10079488
-0.024822115
-0.10548502
-0.026641641
-0.11039549
-0.028543602
-0.11553811
-0.030530095
-0.12092482
-0.032603242
-0.12656783
-0.034764904
-0.13248087
-0.03701707
-0.13867802
-0.039361095
-0.14517414
-0.041797785
-0.1519857
-0.044328624
-0.1591289
-0.046953499
-0.16662227
-0.049673162
-0.17448429
-0.052486938
-0.18273518
-0.055394274
-0.1913962
-0.058393971
-0.20048961
-0.061484252
-0.21003908
-0.064663033
-0.22006945
-0.067927949
-0.23060671
-0.071274917
-0.24167932
-0.074700487
-0.25331562
-0.07819993
-0.2655467
-0.081768008
-0.27840495
-0.085398385
-0.29192431
-0.089083954
-0.30614084
-0.092816959
-0.32109215
-0.096588338
-0.33681817
-0.10038812
-0.35336071
-0.10420475
-0.37076425
-0.10802541
-0.38907533
-0.11183575
-0.40834285
-0.1156193
-0.42861911
-0.11935802
-0.4499586
-0.12303145
-0.4724188
-0.1266163
-0.4960613
-0.13008679
-0.52095043
-0.13341373
-0.5471541
-0.13656424
-0.57474454
-0.13950152
-0.60379719
-0.14218389
-0.63439235
-0.14456531
-0.66661472
-0.14659326
-0.7005543
-0.14820964
-0.73630533
-0.14934883
-0.77396853
-0.14993479
-0.81364775
-0.14989181
-0.85545079
-0.14911825
-0.89948879
-0.14752034
-0.94588527
-0.14496643
-0.99473807
-0.14136546
-1.046209
-0.13650416
-1.1003509
-0.13036407
-1.1574808
-0.12253473
-1.2173532
-0.11323519
-1.2810144
-0.10149102
-1.3465054
-0.088231264
-1.4177661
-0.071589946
-1.4873291
-0.053304987
-1.5680507
-1.6422515
-0.00050051836
-0.036682449
-0.0011314343
-0.040461199
-0.0017496717
-0.041569737
-0.002424917
-0.043942374
-0.0031144236
-0.045718907
-0.0038568996
-0.048006554
-0.0046246168
-0.050140053
-0.005442624
-0.052534799
-0.0062956377
-0.054939438
-0.0071987807
-0.057518333
-0.0081449205
-0.060177591
-0.0091428273
-0.062983251
-0.010190498
-0.065904113
-0.011293642
-0.068968078
-0.012452543
-0.072168996
-0.013671305
-0.075520703
-0.014951588
-0.079026201
-0.016296805
-0.082695287
-0.017709199
-0.086534568
-0.019191886
-0.090553224
-0.020747197
-0.094759997
-0.022377717
-0.099164356
-0.024086435
-0.1037763
-0.025875652
-0.10860628
-0.027747528
-0.11366623
-0.029704631
-0.11896772
-0.031748673
-0.12452378
-0.033881864
-0.13034768
-0.036105579
-0.1364543
-0.03842133
-0.14285839
-0.040830067
-0.14957696
-0.04333251
-0.15662645
-0.045929354
-0.16402543
-0.048620197
-0.17179345
-0.051404762
-0.17995061
-0.054282611
-0.18851835
-0.057252332
-0.19751988
-0.060312263
-0.20697915
-0.063460379
-0.21692133
-0.066693986
-0.2273731
-0.070010166
-0.23836315
-0.073405066
-0.24992072
-0.076874432
-0.26207733
-0.080413491
-0.27486589
-0.084016663
-0.28832113
-0.087677716
-0.30247979
-0.091389633
-0.31738023
-0.095144479
-0.33306332
-0.098933264
-0.34957193
-0.1027459
-0.36695161
-0.10657147
-0.38524976
-0.11039661
-0.40451771
-0.11420762
-0.4248081
-0.11798837
-0.44617785
-0.12172029
-0.46868688
-0.12538351
-0.49239809
-0.1289554
-0.51737853
-0.13240961
-0.5436999
-0.1357174
-0.57143675
-0.13884623
-0.60066837
-0.14175928
-0.63147929
-0.14441534
-0.66395867
-0.14676834
-0.6982013
-0.14876591
-0.73430777
-0.15035012
-0.77238431
-0.15145534
-0.81254253
-0.15200782
-0.85489831
-0.15192292
-0.89957368
-0.15111371
-0.94669448
-0.14946836
-0.99638343
-0.14688612
-1.0487912
-0.14321171
-1.1040253
-0.13837098
-1.1623216
-0.13207907
-1.2236451
-0.12442889
-1.2886645
-0.114689
-1.3562453
-0.1034801
-1.428975
-0.089377929
-1.5014312
-0.073713898
-1.5837147
-1.6614186
-0.00047391364
-0.036208536
-0.001088625
-0.039846488
-0.0016793952
-0.040978967
-0.002330966
-0.043290804
-0.0029935816
-0.045056292
-0.0037114746
-0.047288662
-0.0044531609
-0.049398367
-0.0052462868
-0.051741674
-0.0060741752
-0.054111549
-0.0069524295
-0.056640079
-0.0078742926
-0.059255728
-0.0088485717
-0.062008972
-0.0098733342
-0.06487935
-0.010953905
-0.067887508
-0.012091262
-0.071031638
-0.01328947
-0.074322495
-0.014550325
-0.077765346
-0.015877247
-0.081368366
-0.01727253
-0.085139285
-0.018739038
-0.089086717
-0.02027982
-0.093219215
-0.021897332
-0.097546844
-0.023594321
-0.10207931
-0.025372818
-0.10682778
-0.027235821
-0.11180323
-0.029185082
-0.11701845
-0.031222838
-0.12248603
-0.033350488
-0.12822003
-0.03557004
-0.13423475
-0.037882055
-0.14054638
-0.040288091
-0.14717092
-0.042788402
-0.15412614
-0.045383364
-0.16143047
-0.048072933
-0.16910388
-0.050856697
-0.17716685
-0.053733471
-0.18564158
-0.056702462
-0.19455089
-0.059762163
-0.20391944
-0.06291027
-0.21377323
-0.066144349
-0.22413903
-0.069461947
-0.23504555
-0.072859478
-0.24652319
-0.076333245
-0.25860357
-0.079879213
-0.27131992
-0.083492367
-0.28470798
-0.087167611
-0.29880454
-0.090898616
-0.31364923
-0.094678641
-0.3292833
-0.098500239
-0.34575033
-0.10235494
-0.36309691
-0.10623271
-0.38137199
-0.11012336
-0.40062706
-0.11401432
-0.42091715
-0.11789193
-0.44230023
-0.12174101
-0.46483781
-0.12554378
-0.48859532
-0.12928049
-0.51364183
-0.13292918
-0.54005121
-0.1364647
-0.56790123
-0.13985873
-0.59727434
-0.14307908
-0.62825894
-0.14609016
-0.66094759
-0.14885145
-0.69544001
-0.15131754
-0.73184168
-0.15343743
-0.77026442
-0.1551533
-0.81082667
-0.15640028
-0.85365133
-0.15710612
-0.89886784
-0.15719073
-0.94660987
-0.15655561
-0.99701854
-0.15511211
-1.0502347
-0.1527296
-1.1064078
-0.14932026
-1.1657309
-0.14467157
-1.2282938
-0.13879931
-1.2945368
-0.1311776
-1.363867
-0.12217848
-1.4379741
-0.11069106
-1.5129187
-0.097753754
-1.596652
-1.677314
-0.00045397101
-0.035754566
-0.0010444085
-0.039256052
-0.0016153036
-0.040408073
-0.0022511189
-0.04265499
-0.0028953666
-0.044412045
-0.0035972665
-0.046586763
-0.0043222534
-0.04867338
-0.0050999655
-0.050963962
-0.0059128587
-0.053298656
-0.0067772994
-0.055775639
-0.0076860876
-0.05834694
-0.0086484131
-0.061046647
-0.0096627948
-0.063864968
-0.010734531
-0.066815772
-0.011864805
-0.069901364
-0.013057205
-0.073130095
-0.014314493
-0.076508058
-0.015639456
-0.080043404
-0.017035165
-0.083743575
-0.018504525
-0.087617357
-0.020049892
-0.091673849
-0.021674652
-0.095922085
-0.023380743
-0.10037322
-0.025171193
-0.10503733
-0.027047954
-0.10992647
-0.029013151
-0.11505326
-0.031068847
-0.12043033
-0.033216493
-0.12607238
-0.035457475
-0.13199377
-0.037792893
-0.13821096
-0.040223597
-0.14474022
-0.042749676
-0.15160006
-0.045371614
-0.15880853
-0.048089034
-0.16638646
-0.050901433
-0.17435445
-0.053807998
-0.18273502
-0.056807579
-0.19155131
-0.059898688
-0.20082834
-0.063079429
-0.21059249
-0.066347849
-0.22087061
-0.069701414
-0.23169198
-0.073137311
-0.24308729
-0.076652741
-0.25508814
-0.080243758
-0.2677289
-0.083906739
-0.281045
-0.087637299
-0.29507398
-0.091430669
-0.30985586
-0.095281592
-0.32543238
-0.099183412
-0.34184851
-0.10312967
-0.35915066
-0.1071127
-0.37738896
-0.11112351
-0.39661624
-0.11515241
-0.41688825
-0.119188
-0.43826464
-0.12321748
-0.46080833
-0.12722664
-0.48458615
-0.13119912
-0.50966935
-0.13511611
-0.53613422
-0.13895688
-0.56406046
-0.14269689
-0.59353433
-0.14630997
-0.62464586
-0.14976486
-0.6574927
-0.1530276
-0.69217727
-0.15605925
-0.72881003
-0.15881596
-0.7675077
-0.16124811
-0.80839452
-0.16330093
-0.85159851
-0.16491091
-0.89725786
-0.16600436
-0.94551642
-0.16650592
-0.99651698
-0.16632478
-1.0504159
-0.16536196
-1.1073706
-0.16352116
-1.1675717
-0.16064733
-1.2311676
-0.15670847
-1.2984757
-0.15132168
-1.3692538
-0.14470801
-1.4445877
-0.13596918
-1.5216575
-0.1259631
-1.6066581
-1.6898467
-0.00044050325
-0.035314063
-0.0010124422
-0.038684114
-0.0015700257
-0.03985049
-0.0021972174
-0.042027799
-0.0028308751
-0.043778387
-0.0035249095
-0.045892729
-0.0042422701
-0.04795602
-0.0050139132
-0.05019232
-0.0058223626
-0.052490207
-0.0066837779
-0.054914225
-0.0075917671
-0.057438951
-0.0085550554
-0.060083359
-0.0095725919
-0.062847432
-0.010649613
-0.065738752
-0.011788168
-0.068762808
-0.012991588
-0.071926676
-0.014262529
-0.075237116
-0.015604626
-0.078701307
-0.017020159
-0.082328042
-0.018512628
-0.086124888
-0.020084677
-0.0901018
-0.021738876
-0.094267886
-0.023478295
-0.098633803
-0.025304787
-0.10321084
-0.027220612
-0.10801065
-0.029228127
-0.11304574
-0.03132874
-0.11832972
-0.033524061
-0.12387706
-0.035814942
-0.12970289
-0.038202413
-0.13582349
-0.040687102
-0.14225553
-0.043269301
-0.14901786
-0.045948744
-0.15612908
-0.048725446
-0.16360976
-0.051598521
-0.17148138
-0.054567313
-0.17976622
-0.057630805
-0.18848782
-0.060787255
-0.19767189
-0.064035878
-0.20734386
-0.067374354
-0.21753213
-0.070801077
-0.22826526
-0.074313975
-0.23957439
-0.07791042
-0.25149169
-0.081588231
-0.26405109
-0.085344497
-0.27728873
-0.089175984
-0.2912425
-0.093079126
-0.30595272
-0.097050009
-0.32146149
-0.1010846
-0.33781393
-0.10517747
-0.35505778
-0.1093231
-0.37324333
-0.11351475
-0.39242459
-0.1177452
-0.41265781
-0.12200583
-0.43400401
-0.12628666
-0.4565275
-0.13057662
-0.48029619
-0.13486243
-0.50538354
-0.13912977
-0.53186688
-0.14336126
-0.55982897
-0.14753821
-0.58935738
-0.15163791
-0.62054615
-0.15563587
-0.65349474
-0.15950334
-0.6883098
-0.16320852
-0.72510484
-0.16671514
-0.76400109
-0.16998224
-0.80512742
-0.17296125
-0.84861949
-0.17559942
-0.89461969
-0.17783916
-0.94327668
-0.17961124
-0.9947449
-0.18084081
-1.0491863
-0.18144189
-1.1067695
-0.18133058
-1.167683
-0.18038333
-1.2321149
-0.17854735
-1.3003116
-0.17554174
-1.3722594
-0.17149686
-1.4486326
-0.16567312
-1.5274812
-0.15877644
-1.6135548
-1.6988938
-0.0004320877
-0.034881976
-0.0010011213
-0.038115081
-0.0015520644
-0.039299547
-0.0021777727
-0.041402091
-0.0028091318
-0.043147029
-0.0035038499
-0.045198012
-0.0042233904
-0.047236479
-0.0049994572
-0.049416254
-0.0058148727
-0.051674791
-0.0066854884
-0.05404361
-0.0076059458
-0.056518493
-0.0085842382
-0.059105067
-0.0096205995
-0.06181107
-0.010719924
-0.064639427
-0.011884131
-0.067598601
-0.013117313
-0.070693495
-0.014422153
-0.073932277
-0.015801835
-0.077321626
-0.017259757
-0.08087012
-0.018798464
-0.084586181
-0.020421239
-0.088479025
-0.02213051
-0.092558616
-0.023928799
-0.096835513
-0.025818649
-0.10132099
-0.027801902
-0.10602739
-0.029880167
-0.11096748
-0.032055104
-0.11615478
-0.03432777
-0.12160439
-0.036699319
-0.12733134
-0.039170165
-0.13335264
-0.04174067
-0.13968503
-0.04441087
-0.14634766
-0.047180707
-0.15335925
-0.050049515
-0.16074096
-0.053017093
-0.1685138
-0.056082701
-0.17670062
-0.059244874
-0.18532565
-0.06250335
-0.19441341
-0.065856643
-0.20399057
-0.069303866
-0.21408491
-0.072843379
-0.22472575
-0.076474331
-0.23594344
-0.080195343
-0.24777068
-0.084004881
-0.26024155
-0.08790126
-0.27339235
-0.091882645
-0.28726111
-0.095947575
-0.30188778
-0.10009361
-0.31731546
-0.10431783
-0.3335897
-0.1086177
-0.35075791
-0.1129895
-0.36887153
-0.11742919
-0.3879849
-0.12193187
-0.40815512
-0.12649162
-0.42944426
-0.13110215
-0.45191698
-0.1357547
-0.47564363
-0.1404407
-0.50069755
-0.14514897
-0.52715861
-0.14986719
-0.55511075
-0.15458034
-0.58464423
-0.15927215
-0.61585434
-0.1639228
-0.64884409
-0.16851035
-0.68372225
-0.17300949
-0.72060571
-0.1773913
-0.75961927
-0.18162316
-0.80089556
-0.18566679
-0.84457587
-0.18948028
-0.8908062
-0.19301253
-0.93974443
-0.19621053
-0.9915469
-0.19900936
-1.0463875
-0.20133886
-1.10444
-0.20312971
-1.1658922
-0.20428647
-1.2309581
-0.20474655
-1.2998516
-0.20430745
-1.3726985
-0.20303206
-1.449908
-0.20031474
-1.5301986
-0.19673738
-1.6171321
-1.7042732
-0.00042968704
-0.03445229
-0.001004038
-0.03754073
-0.001556857
-0.038746728
-0.0021900193
-0.04076893
-0.0028291795
-0.042507869
-0.0035350814
-0.044492111
-0.0042686414
-0.046502919
-0.0050612719
-0.048623624
-0.0058973321
-0.050838731
-0.006791601
-0.053149341
-0.0077401279
-0.055569966
-0.008750418
-0.058094778
-0.009823368
-0.06073812
-0.010963696
-0.0634991
-0.012174017
-0.06638828
-0.013458333
-0.069409179
-0.014819507
-0.072571103
-0.016261072
-0.075880062
-0.017785902
-0.07934529
-0.0193973
-0.082974783
-0.021097974
-0.086778352
-0.022890513
-0.090766077
-0.024777118
-0.094948908
-0.026759833
-0.099338275
-0.028840806
-0.10394642
-0.031021219
-0.10878707
-0.033302196
-0.11387381
-0.035684807
-0.11922178
-0.038169509
-0.12484664
-0.040756933
-0.13076522
-0.043446631
-0.13699533
-0.046239023
-0.14355527
-0.049133376
-0.15046489
-0.052129665
-0.15774467
-0.055227399
-0.16541606
-0.058425572
-0.17350244
-0.061724381
-0.18202684
-0.065122853
-0.19101494
-0.068620493
-0.20049293
-0.072217086
-0.21048831
-0.075912579
-0.22103025
-0.079706283
-0.23214973
-0.083598044
-0.24387892
-0.087587922
-0.25625168
-0.091676043
-0.26930423
-0.095861911
-0.28307524
-0.10014543
-0.29760427
-0.1045262
-0.31293469
-0.10900388
-0.32911202
-0.11357748
-0.34618431
-0.11824601
-0.364203
-0.123008
-0.38322292
-0.1278611
-0.40330202
-0.13280279
-0.42450257
-0.13782912
-0.44689064
-0.14293629
-0.47053647
-0.14811819
-0.49551565
-0.15336853
-0.52190827
-0.15867905
-0.54980023
-0.16404014
-0.57928313
-0.16944007
-0.61045442
-0.17486564
-0.64341851
-0.1803012
-0.6782867
-0.18572808
-0.71517883
-0.19112564
-0.75422171
-0.19646906
-0.79555214
-0.20173104
-0.83931389
-0.20687598
-0.88566126
-0.21186985
-0.93475056
-0.21666511
-0.98675164
-0.22121422
-1.0418383
-0.22546332
-1.1001909
-0.22934962
-1.1620059
-0.23280706
-1.2275007
-0.2357777
-1.2968809
-0.23811383
-1.3703624
-0.23983365
-1.4481882
-0.24044644
-1.5295858
-0.24041488
-1.6171637
-1.7057539
-0.00043404682
-0.034018243
-0.0010225946
-0.036952183
-0.001586856
-0.038182467
-0.0022376941
-0.040118093
-0.0028962041
-0.041849359
-0.0036252357
-0.04376308
-0.0043862394
-0.045741916
-0.0052096881
-0.047800176
-0.0060818682
-0.049966551
-0.0070164551
-0.052214755
-0.0080109359
-0.054575485
-0.009072287
-0.057033427
-0.010202337
-0.05960807
-0.011405594
-0.062295843
-0.012685394
-0.06510848
-0.014045191
-0.068049382
-0.015488612
-0.071127681
-0.017018858
-0.074349816
-0.018639297
-0.077724851
-0.020352603
-0.081261478
-0.022161292
-0.084969663
-0.024068013
-0.088859356
-0.026074792
-0.09294213
-0.028183453
-0.097229614
-0.03039502
-0.10173485
-0.032711014
-0.10647107
-0.035132208
-0.11145261
-0.037659042
-0.11669495
-0.040291438
-0.12221424
-0.043029878
-0.12802678
-0.045874102
-0.1341511
-0.048823873
-0.1406055
-0.051878806
-0.14740996
-0.055038985
-0.15458449
-0.058303648
-0.1621514
-0.061673256
-0.17013283
-0.065147378
-0.17855272
-0.068726232
-0.18743608
-0.072410717
-0.19680844
-0.076200949
-0.20669808
-0.080097614
-0.21713359
-0.084102308
-0.22814504
-0.088215889
-0.23976534
-0.092439967
-0.2520276
-0.096775738
-0.26496846
-0.10122548
-0.2786255
-0.10579037
-0.29303938
-0.11047264
-0.30825242
-0.11527371
-0.32431095
-0.1201952
-0.34126282
-0.12523874
-0.35915945
-0.13040528
-0.37805638
-0.13569589
-0.39801141
-0.14111061
-0.41908785
-0.14664994
-0.44135132
-0.15231258
-0.46487382
-0.15809719
-0.48973104
-0.16400152
-0.51600394
-0.17002205
-0.5437797
-0.17615407
-0.57315111
-0.18239214
-0.60421635
-0.18872848
-0.63708217
-0.19515372
-0.67186145
-0.20165743
-0.70867512
-0.20822601
-0.74765313
-0.21484399
-0.78893416
-0.2214914
-0.83266647
-0.22814875
-0.87900392
-0.2347858
-0.92811351
-0.24137443
-0.980163
-0.24787757
-1.0353352
-0.2542534
-1.0938151
-0.26045558
-1.1558037
-0.26644005
-1.2215162
-0.27215295
-1.291168
-0.27750575
-1.3650096
-0.28247653
-1.4432174
-0.286674
-1.5253883
-0.29046211
-1.6133756
-1.7030591
-0.00044665535
-0.033571589
-0.0010596589
-0.036339181
-0.0016465373
-0.037595589
-0.0023264701
-0.039438161
-0.0030173882
-0.041158441
-0.0037831502
-0.042997319
-0.004586859
-0.044938207
-0.0054573646
-0.046929671
-0.0063834552
-0.049040461
-0.0073773842
-0.051220826
-0.008438464
-0.053514405
-0.0095729262
-0.055898965
-0.010783599
-0.058397397
-0.012074923
-0.06100452
-0.013450306
-0.063733096
-0.014913685
-0.066586004
-0.016468602
-0.069572764
-0.018118138
-0.072700281
-0.019865366
-0.075977623
-0.02171294
-0.079413905
-0.023663499
-0.083019104
-0.025718681
-0.086804174
-0.027880317
-0.090780493
-0.030149488
-0.094960444
-0.032527473
-0.099356867
-0.035014787
-0.10398376
-0.037611586
-0.10885581
-0.040318007
-0.11398853
-0.04313424
-0.11939801
-0.046059611
-0.12510141
-0.049094439
-0.13111628
-0.052237996
-0.13746194
-0.055490687
-0.14415727
-0.058852154
-0.15122302
-0.062322984
-0.15868057
-0.065903269
-0.16655255
-0.069594303
-0.17486168
-0.073396968
-0.18363342
-0.077312746
-0.19289267
-0.081343575
-0.20266725
-0.085491851
-0.21298531
-0.089759606
-0.22387728
-0.094150491
-0.23537446
-0.09866694
-0.24751115
-0.10331299
-0.26032241
-0.10809192
-0.27384657
-0.11300807
-0.28812323
-0.11806501
-0.30319548
-0.12326715
-0.31910881
-0.12861876
-0.33591121
-0.13412391
-0.3536543
-0.13978666
-0.37239363
-0.14561101
-0.39218705
-0.15160093
-0.41309793
-0.15775947
-0.43519278
-0.1640901
-0.45854319
-0.1705957
-0.48322543
-0.17727791
-0.50932174
-0.18413879
-0.53691882
-0.19117908
-0.56611081
-0.19839807
-0.59699736
-0.20579531
-0.62968494
-0.2133684
-0.66428835
-0.22111358
-0.70092994
-0.22902583
-0.73974088
-0.23709871
-0.78086128
-0.24532375
-0.82444143
-0.25368815
-0.87063953
-0.26217821
-0.91962345
-0.27077229
-0.97156892
-0.27945074
-1.0266568
-0.28818693
-1.0850789
-0.29695142
-1.1470392
-0.30571415
-1.2127535
-0.31443597
-1.2824462
-0.3230652
-1.3563804
-0.33157506
-1.4347075
-0.33964776
-1.5173156
-0.34756139
-1.605462
-1.6958652
-0.00046725124
-0.033104338
-0.0011150949
-0.035691338
-0.0017361343
-0.03697455
-0.0024576837
-0.038716612
-0.0031955624
-0.040420562
-0.0040133789
-0.042179503
-0.0048771994
-0.044074386
-0.0058133995
-0.045993471
-0.0068138543
-0.048040006
-0.0078892061
-0.050145475
-0.0090405842
-0.052363027
-0.010273711
-0.054665839
-0.011592156
-0.057078951
-0.013000254
-0.059596423
-0.014501892
-0.062231458
-0.016100632
-0.064987265
-0.017800041
-0.067873354
-0.019603017
-0.070897305
-0.021512296
-0.074068343
-0.023530196
-0.077396005
-0.025658559
-0.080890741
-0.027898845
-0.084563888
-0.030252316
-0.088427021
-0.032719435
-0.092493326
-0.035300524
-0.096775778
-0.037995666
-0.10128862
-0.04080477
-0.10604671
-0.043727499
-0.1110658
-0.046763643
-0.11636186
-0.049912904
-0.12195215
-0.053174804
-0.12785438
-0.056549736
-0.13408701
-0.060037901
-0.1406691
-0.063639701
-0.14762122
-0.067356428
-0.15496385
-0.071189505
-0.16271947
-0.075140836
-0.17091035
-0.07921299
-0.17956126
-0.083408389
-0.18869727
-0.08773095
-0.19834469
-0.092184272
-0.20853199
-0.096773104
-0.21928845
-0.10150151
-0.23064605
-0.10637532
-0.24263734
-0.11139981
-0.25529792
-0.11658099
-0.26866539
-0.12192507
-0.28277914
-0.12743847
-0.29768209
-0.1331281
-0.31341917
-0.13900087
-0.33003844
-0.14506365
-0.34759153
-0.1513241
-0.36613319
-0.15778915
-0.385722
-0.16446633
-0.40642074
-0.17136295
-0.42829616
-0.17848621
-0.45141994
-0.18584322
-0.47586842
-0.1934412
-0.50172376
-0.20128626
-0.52907376
-0.20938543
-0.55801164
-0.21774445
-0.58863835
-0.22636864
-0.62106074
-0.23526313
-0.65539387
-0.24443215
-0.69176093
-0.25387928
-0.73029374
-0.26360671
-0.77113385
-0.27361609
-0.81443205
-0.2839072
-0.86034842
-0.29447614
-0.90905451
-0.30531772
-0.96072733
-0.31642265
-1.0155518
-0.32778105
-1.0737205
-0.33937687
-1.1354434
-0.35119601
-1.2009343
-0.36322008
-1.2704221
-0.3754273
-1.3441731
-0.38779245
-1.4223424
-0.40007454
-1.5050335
-0.41246786
-1.5930687
-1.6838196
-0.00049815516
-0.032606183
-0.0011936192
-0.034995874
-0.0018632524
-0.036304917
-0.0026413155
-0.037938549
-0.0034434724
-0.039618405
-0.0043316341
-0.041291341
-0.0052760131
-0.043130007
-0.0063000684
-0.044969416
-0.0073989043
-0.04694117
-0.0085816573
-0.048962722
-0.0098512027
-0.051093482
-0.011212605
-0.053304438
-0.012670301
-0.055621255
-0.014228272
-0.058038452
-0.015890548
-0.060569182
-0.017660544
-0.06321727
-0.019541153
-0.065992745
-0.021535393
-0.068903066
-0.023645179
-0.071958557
-0.02587221
-0.075168974
-0.028217434
-0.078545518
-0.030681685
-0.082099637
-0.033265264
-0.085843443
-0.035968146
-0.089790444
-0.038789902
-0.093954022
-0.041730098
-0.09834842
-0.04478809
-0.10298872
-0.047963574
-0.10789032
-0.051255754
-0.11306968
-0.054664691
-0.11854321
-0.058190767
-0.1243283
-0.061834272
-0.13044351
-0.065596275
-0.1369071
-0.069478343
-0.14373915
-0.073482739
-0.15095945
-0.077612461
-0.15858975
-0.081870258
-0.16665255
-0.08626075
-0.17517077
-0.090788304
-0.18416971
-0.095457988
-0.19367501
-0.10027588
-0.2037141
-0.10524806
-0.21431628
-0.11038155
-0.22551256
-0.11568383
-0.23733506
-0.1211626
-0.24981916
-0.12682643
-0.26300156
-0.13268377
-0.27692181
-0.13874387
-0.29162199
-0.14501646
-0.30714658
-0.15151108
-0.32354382
-0.15823821
-0.3408644
-0.16520826
-0.35916314
-0.17243207
-0.3784982
-0.17992073
-0.39893207
-0.18768577
-0.42053112
-0.19573878
-0.44336693
-0.20409143
-0.46751577
-0.21275583
-0.49305936
-0.22174419
-0.5200854
-0.23106863
-0.54868721
-0.24074184
-0.57896513
-0.25077595
-0.61102662
-0.26118358
-0.64498624
-0.2719768
-0.6809677
-0.28316828
-0.71910227
-0.29477
-0.75953213
-0.30679404
-0.802408
-0.31925086
-0.8478916
-0.33214933
-0.89615604
-0.3455016
-0.94737506
-0.35930874
-1.0017447
-0.3735724
-1.0594569
-0.38829833
-1.1207175
-0.40349104
-1.1857416
-0.4191446
-1.2547686
-0.43526347
-1.3280543
-0.45182747
-1.4057784
-0.46868749
-1.4881735
-0.48596253
-1.5757936
-1.666525
-0.00054000195
-0.032066181
-0.0012973091
-0.034238567
-0.0020317425
-0.035570484
-0.0028833931
-0.037086899
-0.0037697441
-0.038732054
-0.0047494111
-0.040311675
-0.0057982015
-0.042081217
-0.0069359492
-0.043831668
-0.0081612367
-0.045715882
-0.0094816063
-0.047642353
-0.010901559
-0.049673529
-0.012425613
-0.051780384
-0.014058608
-0.05398826
-0.015804196
-0.056292864
-0.017666182
-0.058707196
-0.019647365
-0.061236087
-0.021750399
-0.063889711
-0.023976838
-0.066676627
-0.026328032
-0.069607363
-0.028804732
-0.072692274
-0.031407018
-0.075943232
-0.034134832
-0.079371822
-0.036987167
-0.082991108
-0.039963554
-0.086814058
-0.043062789
-0.090854787
-0.046284129
-0.095127079
-0.049626489
-0.099646358
-0.053089485
-0.10442732
-0.056673239
-0.10948593
-0.060377835
-0.11483862
-0.064204179
-0.12050196
-0.068153756
-0.12649393
-0.072228965
-0.13283189
-0.07643286
-0.13953526
-0.080768809
-0.1466235
-0.085241146
-0.15411741
-0.089855633
-0.16203807
-0.09461751
-0.1704089
-0.099533881
-0.17925334
-0.10461174
-0.18859715
-0.10985908
-0.19846676
-0.11528451
-0.20889085
-0.1208974
-0.21989967
-0.12670719
-0.23152526
-0.13272435
-0.24380199
-0.13895969
-0.25676622
-0.14542464
-0.27045685
-0.15213147
-0.28491516
-0.15909218
-0.30018587
-0.16632024
-0.31631576
-0.1738287
-0.33335594
-0.18163203
-0.35135981
-0.18974477
-0.37038545
-0.1981819
-0.39049494
-0.20695896
-0.41175406
-0.21609243
-0.43423346
-0.22559904
-0.45800917
-0.2354961
-0.48316229
-0.24580175
-0.50977976
-0.25653418
-0.53795477
-0.2677129
-0.56778642
-0.27935735
-0.59938218
-0.29148795
-0.63285564
-0.30412566
-0.66832999
-0.31729165
-0.70593628
-0.3310089
-0.74581489
-0.34529949
-0.78811741
-0.36018643
-0.83300466
-0.37569366
-0.88064881
-0.39184098
-0.93122774
-0.40864886
-0.98493682
-0.42613935
-1.0419664
-0.44432737
-1.1025294
-0.4632334
-1.1668356
-0.48287556
-1.2351264
-0.50328115
-1.3076487
-0.52444062
-1.3846189
-0.54627556
-1.4663386
-0.56886453
-1.5532047
-1.6435226
-0.00059351314
-0.031472668
-0.0014282416
-0.033403839
-0.0022463448
-0.034752381
-0.0031914603
-0.036141784
-0.0041857135
-0.037737801
-0.0052824387
-0.03921495
-0.0064642361
-0.04089942
-0.0077460793
-0.042549826
-0.0091308836
-0.044331078
-0.010624438
-0.046148799
-0.0122326
-0.048065367
-0.013959148
-0.050053837
-0.015808858
-0.052138549
-0.017784744
-0.054316979
-0.019889886
-0.056602053
-0.022126198
-0.058999775
-0.024495103
-0.061520806
-0.026997171
-0.06417456
-0.029632491
-0.066972043
-0.032400325
-0.069924441
-0.035299877
-0.07304368
-0.038329419
-0.07634228
-0.041487811
-0.079832717
-0.044773249
-0.08352862
-0.048184657
-0.087443379
-0.051720599
-0.091591137
-0.055380791
-0.095986166
-0.05916513
-0.10064298
-0.063073801
-0.10557726
-0.067108723
-0.11080369
-0.07127144
-0.11633924
-0.075565629
-0.12219974
-0.079994618
-0.1284029
-0.084563401
-0.13496648
-0.089277374
-0.14190953
-0.094143398