/*--------------------------------*- C++ -*----------------------------------*\
  =========                 |
  \\      /  F ield         | OpenFOAM: The Open Source CFD Toolbox
   \\    /   O peration     | Website:  https://openfoam.org
    \\  /    A nd           | Version:  6
     \\/     M anipulation  |
\*---------------------------------------------------------------------------*/
FoamFile
{
    version     2.0;
    format      ascii;
    class       volScalarField;
    location    "950";
    object      rho;
}
// * * * * * * * * * * * * * * * * * * * * * * * * * * * * * * * * * * * * * //

dimensions      [1 -3 0 0 0 0 0];

internalField   nonuniform List<scalar> 
16000
(
1.1569611
1.1620978
1.1605501
1.1618206
1.1614096
1.1621162
1.1620963
1.1625959
1.1627556
1.1631684
1.1634245
1.163803
1.1641149
1.1644857
1.1648323
1.1652078
1.1655775
1.1659624
1.1663486
1.1667436
1.1671416
1.1675448
1.1679507
1.1683591
1.1687686
1.1691783
1.169587
1.1699935
1.1703964
1.1707947
1.1711868
1.1715716
1.1719477
1.1723137
1.1726685
1.1730108
1.1733394
1.1736533
1.1739514
1.1742329
1.1744969
1.1747428
1.17497
1.1751781
1.1753667
1.1755356
1.1756848
1.1758143
1.1759243
1.1760148
1.1760863
1.1761391
1.1761736
1.1761903
1.1761897
1.1761725
1.1761391
1.1760901
1.1760261
1.1759477
1.1758552
1.1757496
1.1756305
1.1754999
1.1753547
1.1752013
1.1750272
1.1748551
1.1746418
1.1744652
1.1741808
1.1740458
1.1736076
1.1736634
1.1727929
1.1733986
1.171417
1.1735488
1.169235
1.1739827
1.1574766
1.1626218
1.1610068
1.1623411
1.1619135
1.1626679
1.1626483
1.1631833
1.1633544
1.1637954
1.1640692
1.1644723
1.1648051
1.1651988
1.1655672
1.1659647
1.1663559
1.1667618
1.1671684
1.1675829
1.1679997
1.1684204
1.1688425
1.1692658
1.1696884
1.1701095
1.1705276
1.1709413
1.1713493
1.1717501
1.1721423
1.1725245
1.1728954
1.1732535
1.1735976
1.1739265
1.1742391
1.1745344
1.1748115
1.1750697
1.1753084
1.1755271
1.1757254
1.1759032
1.1760605
1.1761972
1.1763136
1.17641
1.1764868
1.1765444
1.1765834
1.1766045
1.1766081
1.1765949
1.1765657
1.1765211
1.1764618
1.1763885
1.1763017
1.176202
1.17609
1.1759661
1.1758307
1.1756846
1.1755268
1.1753594
1.175178
1.1749903
1.1747794
1.1745763
1.1743176
1.1741236
1.1737573
1.1736786
1.1730088
1.1733306
1.1717278
1.1733811
1.1695227
1.1739063
1.1581576
1.1633032
1.1616506
1.1630473
1.1626117
1.1634082
1.1633973
1.1639638
1.1641523
1.1646195
1.164915
1.1653419
1.1656977
1.1661142
1.1665054
1.1669248
1.1673378
1.1677643
1.168191
1.1686242
1.1690585
1.1694953
1.1699318
1.1703677
1.1708009
1.1712303
1.1716544
1.1720715
1.1724803
1.172879
1.1732663
1.1736406
1.1740005
1.1743447
1.1746719
1.1749811
1.1752711
1.1755412
1.1757907
1.176019
1.1762258
1.1764107
1.1765739
1.1767154
1.1768353
1.1769342
1.1770125
1.1770707
1.1771096
1.1771298
1.1771322
1.1771175
1.1770866
1.1770403
1.1769793
1.1769045
1.1768166
1.1767164
1.1766045
1.1764814
1.1763477
1.1762038
1.1760501
1.175887
1.1757143
1.1755325
1.1753398
1.1751386
1.174922
1.174702
1.1744505
1.1742218
1.1738967
1.1737235
1.1731832
1.1733127
1.1719803
1.1732433
1.169775
1.1737784
1.159026
1.1641578
1.1624894
1.1639501
1.1635091
1.1643508
1.1643511
1.164952
1.1651608
1.1656569
1.165977
1.1664301
1.1668116
1.167253
1.1676693
1.1681123
1.1685486
1.1689969
1.1694444
1.1698967
1.1703485
1.1708007
1.1712506
1.1716974
1.172139
1.1725739
1.1730005
1.1734171
1.173822
1.1742135
1.17459
1.1749501
1.1752924
1.1756154
1.1759181
1.1761995
1.1764588
1.1766953
1.1769085
1.1770982
1.1772644
1.1774072
1.1775267
1.1776236
1.1776982
1.1777515
1.1777842
1.1777971
1.1777913
1.1777678
1.1777275
1.1776715
1.1776009
1.1775165
1.1774193
1.1773102
1.17719
1.1770595
1.1769194
1.1767701
1.1766123
1.1764463
1.1762725
1.1760911
1.1759021
1.1757054
1.1755001
1.1752867
1.1750619
1.1748297
1.1745779
1.1743291
1.174026
1.1737976
1.1733344
1.173329
1.1722114
1.1731629
1.1700412
1.1737931
1.1600783
1.1651775
1.1635221
1.16505
1.1646093
1.1654987
1.1655157
1.1661532
1.1663872
1.166914
1.1672625
1.1677438
1.1681538
1.1686218
1.1690649
1.1695326
1.1699932
1.1704636
1.1709318
1.1714025
1.1718707
1.1723366
1.1727976
1.1732523
1.1736986
1.1741349
1.1745592
1.1749697
1.1753646
1.1757422
1.1761008
1.1764391
1.1767555
1.177049
1.1773185
1.1775633
1.1777827
1.1779766
1.1781446
1.178287
1.1784041
1.1784962
1.1785642
1.1786088
1.178631
1.1786319
1.1786126
1.1785744
1.1785185
1.1784463
1.1783588
1.1782574
1.1781432
1.1780174
1.1778809
1.1777348
1.1775798
1.1774168
1.1772465
1.1770694
1.1768859
1.1766965
1.1765013
1.1763006
1.1760942
1.175882
1.1756632
1.1754375
1.1752031
1.1749605
1.1747044
1.1744423
1.1741485
1.1738835
1.1734749
1.1733578
1.1724211
1.1731254
1.1702941
1.173818
1.1613435
1.1664099
1.1647796
1.1663758
1.1659389
1.1668769
1.1669144
1.1675893
1.1678519
1.1684107
1.1687905
1.1693013
1.1697419
1.1702377
1.170709
1.1712022
1.1716875
1.1721799
1.1726683
1.1731563
1.173639
1.1741162
1.174585
1.1750438
1.1754902
1.1759225
1.1763383
1.176736
1.1771134
1.177469
1.177801
1.1781082
1.1783893
1.1786433
1.1788695
1.1790675
1.179237
1.1793781
1.179491
1.1795764
1.179635
1.1796677
1.1796756
1.17966
1.1796223
1.179564
1.1794865
1.1793913
1.1792801
1.1791543
1.1790154
1.1788648
1.1787037
1.1785334
1.178355
1.1781694
1.1779776
1.1777804
1.1775784
1.177372
1.1771618
1.1769479
1.1767306
1.1765099
1.1762857
1.1760577
1.1758252
1.1755875
1.1753431
1.1750915
1.1748297
1.174559
1.1742688
1.1739816
1.1736108
1.1734054
1.1726223
1.1731199
1.1705536
1.1738778
1.1628257
1.1679019
1.1662649
1.167931
1.1675027
1.1684906
1.1685536
1.1692673
1.1695631
1.1701556
1.1705703
1.1711124
1.1715863
1.1721113
1.1726122
1.1731316
1.1736418
1.1741558
1.1746632
1.1751665
1.175661
1.1761459
1.176618
1.1770755
1.1775158
1.1779369
1.1783364
1.1787124
1.179063
1.1793865
1.1796814
1.1799466
1.180181
1.1803842
1.1805557
1.1806954
1.1808038
1.1808813
1.1809287
1.1809471
1.1809377
1.1809021
1.1808418
1.1807586
1.1806542
1.1805304
1.1803892
1.1802322
1.1800614
1.1798784
1.1796848
1.1794821
1.1792718
1.179055
1.178833
1.1786066
1.1783769
1.1781444
1.1779099
1.1776737
1.1774362
1.1771976
1.1769579
1.1767171
1.1764751
1.1762313
1.1759852
1.1757357
1.1754816
1.1752217
1.1749539
1.1746771
1.1743873
1.1740875
1.1737456
1.1734784
1.1728194
1.1731324
1.1708164
1.1739739
1.1645179
1.1696236
1.1679782
1.1697183
1.1693054
1.1703463
1.1704416
1.171197
1.1715317
1.1721607
1.1726148
1.1731908
1.1737007
1.1742567
1.1747888
1.1753348
1.1758697
1.1764041
1.1769283
1.1774439
1.1779461
1.1784335
1.1789027
1.1793517
1.1797776
1.1801782
1.1805512
1.1808947
1.1812067
1.1814859
1.1817311
1.1819413
1.1821162
1.1822554
1.1823594
1.1824284
1.1824636
1.1824659
1.1824369
1.1823782
1.1822915
1.1821791
1.1820428
1.181885
1.1817077
1.1815131
1.1813035
1.1810808
1.180847
1.1806039
1.1803533
1.1800968
1.1798358
1.1795714
1.179305
1.1790373
1.1787692
1.1785013
1.1782343
1.1779683
1.1777037
1.1774405
1.1771787
1.1769182
1.1766587
1.1763997
1.1761404
1.1758798
1.1756165
1.1753493
1.175076
1.1747953
1.1745046
1.1741992
1.1738758
1.1735658
1.1730159
1.1731638
1.1710988
1.1740985
1.1664314
1.1715795
1.1699326
1.1717516
1.1713615
1.1724591
1.1725942
1.1733943
1.1737744
1.1744429
1.1749408
1.1755533
1.1761019
1.1766905
1.1772543
1.1778268
1.1783849
1.1789372
1.1794747
1.1799977
1.1805014
1.1809838
1.1814416
1.1818721
1.1822726
1.1826408
1.1829744
1.1832716
1.1835308
1.1837511
1.1839315
1.1840719
1.1841723
1.1842332
1.1842555
1.1842405
1.1841898
1.1841053
1.183989
1.1838433
1.1836706
1.1834734
1.1832543
1.1830159
1.1827608
1.1824913
1.1822098
1.1819187
1.1816198
1.1813152
1.1810066
1.1806956
1.1803836
1.1800717
1.179761
1.1794523
1.1791464
1.1788438
1.1785449
1.17825
1.1779591
1.1776721
1.1773891
1.1771097
1.1768336
1.1765601
1.1762885
1.1760177
1.1757462
1.1754726
1.1751949
1.1749117
1.1746203
1.1743145
1.1740036
1.1736673
1.1732107
1.1732135
1.1714017
1.1742322
1.1685868
1.1737863
1.1721448
1.1740484
1.1736896
1.1748475
1.1750307
1.175879
1.1763109
1.1770222
1.1775682
1.1782195
1.178809
1.1794308
1.1800261
1.1806233
1.1812018
1.1817677
1.1823124
1.1828354
1.1833317
1.1837987
1.1842331
1.184632
1.1849927
1.1853131
1.185591
1.1858251
1.1860144
1.1861583
1.1862568
1.1863104
1.1863199
1.1862868
1.1862128
1.1860999
1.1859508
1.1857679
1.1855541
1.1853124
1.1850458
1.1847573
1.1844499
1.1841266
1.18379
1.183443
1.1830879
1.182727
1.1823625
1.1819962
1.1816299
1.181265
1.1809028
1.1805444
1.1801907
1.1798425
1.1795001
1.1791642
1.178835
1.1785125
1.1781967
1.1778874
1.1775845
1.1772875
1.176996
1.1767093
1.1764266
1.1761468
1.1758683
1.1755896
1.1753089
1.1750247
1.1747335
1.1744313
1.1741285
1.1737802
1.173402
1.1732814
1.1717207
1.17437
1.1710213
1.1762632
1.1746336
1.176628
1.1763096
1.1775319
1.1777725
1.1786726
1.1791632
1.1799206
1.180519
1.1812112
1.1818426
1.1824973
1.1831221
1.1837405
1.1843338
1.184906
1.1854489
1.1859608
1.1864369
1.1868741
1.1872691
1.187619
1.1879215
1.1881746
1.188377
1.1885278
1.1886268
1.1886745
1.1886717
1.1886199
1.1885211
1.1883777
1.1881924
1.1879683
1.1877087
1.1874171
1.1870969
1.1867518
1.1863852
1.1860006
1.1856014
1.1851905
1.184771
1.1843455
1.1839167
1.1834866
1.1830575
1.1826309
1.1822085
1.1817917
1.1813814
1.1809787
1.1805843
1.1801986
1.1798222
1.1794551
1.1790977
1.1787497
1.178411
1.1780814
1.1777603
1.1774475
1.1771424
1.1768441
1.1765519
1.1762645
1.1759805
1.1756983
1.175416
1.1751322
1.1748428
1.1745471
1.1742499
1.1739015
1.173586
1.1733635
1.1720418
1.1744944
1.1737339
1.1790224
1.1774145
1.1795084
1.1792428
1.180535
1.1808439
1.1818004
1.1823573
1.1831643
1.1838185
1.1845527
1.1852257
1.1859107
1.1865603
1.1871931
1.1877922
1.1883593
1.1888866
1.1893717
1.1898097
1.1901975
1.1905319
1.1908105
1.1910314
1.1911936
1.1912965
1.1913404
1.1913262
1.1912555
1.1911306
1.1909542
1.1907293
1.1904597
1.1901491
1.1898016
1.1894213
1.1890124
1.1885791
1.1881254
1.1876552
1.1871721
1.1866797
1.186181
1.1856791
1.1851766
1.1846758
1.1841789
1.1836877
1.1832038
1.1827285
1.1822628
1.1818078
1.181364
1.180932
1.1805121
1.1801046
1.1797094
1.1793265
1.1789557
1.1785967
1.178249
1.1779122
1.1775857
1.1772689
1.176961
1.176661
1.1763678
1.1760801
1.175796
1.1755139
1.175232
1.1749466
1.1746594
1.1743669
1.174028
1.1737607
1.1734546
1.1723648
1.1746183
1.176748
1.1820968
1.1805209
1.1827228
1.1825233
1.1838902
1.1842787
1.1852956
1.1859253
1.1867844
1.1874959
1.188271
1.1889822
1.1896915
1.190357
1.1909926
1.1915828
1.1921276
1.1926196
1.1930556
1.1934312
1.1937436
1.1939902
1.1941694
1.1942805
1.1943235
1.1942994
1.1942099
1.1940576
1.1938454
1.1935772
1.1932571
1.1928897
1.1924796
1.1920319
1.1915513
1.1910428
1.1905112
1.1899611
1.1893966
1.188822
1.1882409
1.1876567
1.1870726
1.1864913
1.1859152
1.1853464
1.1847868
1.1842379
1.183701
1.1831771
1.1826671
1.1821715
1.1816909
1.1812254
1.1807751
1.1803402
1.1799203
1.1795153
1.1791249
1.1787485
1.1783857
1.1780357
1.177698
1.1773718
1.1770564
1.1767508
1.1764538
1.1761641
1.17588
1.1756
1.1753218
1.1750425
1.1747653
1.1744782
1.1741577
1.1739282
1.1735545
1.1726819
1.174737
1.1800921
1.1855157
1.1839843
1.1863041
1.1861867
1.1876328
1.1881131
1.1891939
1.1899015
1.1908138
1.1915816
1.192393
1.1931343
1.1938566
1.194523
1.1951429
1.1957022
1.1961996
1.1966283
1.196985
1.1972662
1.1974699
1.1975948
1.1976409
1.1976089
1.1975009
1.1973197
1.1970689
1.196753
1.1963767
1.1959455
1.1954651
1.1949413
1.1943798
1.1937865
1.1931671
1.1925268
1.1918708
1.1912038
1.1905302
1.1898538
1.1891783
1.1885069
1.1878422
1.1871869
1.1865428
1.1859118
1.1852953
1.1846946
1.1841104
1.1835436
1.1829946
1.1824637
1.1819511
1.1814569
1.1809808
1.1805226
1.1800821
1.1796588
1.1792522
1.1788618
1.1784868
1.1781266
1.1777804
1.1774475
1.177127
1.1768179
1.1765192
1.1762296
1.1759475
1.1756714
1.1753987
1.1751279
1.1748616
1.1745821
1.1742871
1.1740857
1.1736637
1.1729918
1.174846
1.1837975
1.1893132
1.1878423
1.1902899
1.1902731
1.1918027
1.1923894
1.1935388
1.1943261
1.1952885
1.1961066
1.1969435
1.1976995
1.1984152
1.1990581
1.1996341
1.2001306
1.2005454
1.2008729
1.2011108
1.201257
1.2013113
1.2012744
1.2011485
1.2009369
1.2006441
1.200275
1.1998358
1.1993327
1.1987726
1.1981625
1.1975094
1.1968201
1.1961012
1.1953593
1.1946001
1.1938292
1.1930518
1.1922722
1.1914947
1.1907229
1.1899599
1.1892084
1.1884708
1.1877489
1.1870445
1.1863588
1.1856927
1.1850471
1.1844225
1.1838193
1.1832375
1.1826772
1.1821382
1.1816204
1.1811234
1.1806467
1.1801898
1.1797522
1.1793333
1.1789323
1.1785485
1.1781811
1.1778293
1.1774923
1.1771691
1.176859
1.1765608
1.1762733
1.1759952
1.1757248
1.1754596
1.1751994
1.1749447
1.1746757
1.1744102
1.1742251
1.1737777
1.1732897
1.1749364
1.18791
1.193535
1.1921433
1.1947253
1.1948285
1.1964445
1.19715
1.1983741
1.1992398
1.200241
1.2010947
1.2019373
1.2026821
1.2033602
1.2039433
1.2044346
1.2048237
1.2051088
1.2052862
1.2053557
1.2053179
1.2051754
1.2049319
1.2045928
1.2041644
1.2036539
1.203069
1.2024181
1.2017095
1.2009517
1.200153
1.1993213
1.1984641
1.1975883
1.1967006
1.1958066
1.1949117
1.1940205
1.1931371
1.1922651
1.1914074
1.1905666
1.1897449
1.188944
1.1881652
1.1874095
1.1866778
1.1859706
1.1852882
1.1846307
1.1839981
1.1833903
1.1828068
1.1822474
1.1817116
1.1811987
1.1807082
1.1802395
1.1797918
1.1793643
1.1789564
1.1785671
1.1781957
1.1778412
1.1775028
1.1771796
1.1768707
1.1765751
1.1762919
1.1760197
1.1757568
1.1755011
1.1752534
1.1750108
1.1747562
1.1745228
1.1743462
1.1738945
1.1735733
1.1750045
1.1924798
1.1982301
1.1969499
1.1996778
1.1999374
1.2016488
1.2024555
1.2037275
1.2046684
1.205694
1.2065578
1.2073739
1.2080669
1.2086606
1.2091313
1.2094813
1.2097034
1.209798
1.209765
1.2096078
1.2093308
1.2089407
1.2084451
1.2078531
1.2071743
1.2064188
1.205597
1.204719
1.203795
1.2028343
1.201846
1.2008382
1.1998185
1.1987937
1.1977697
1.1967518
1.1957447
1.1947522
1.1937776
1.1928237
1.1918927
1.1909864
1.1901063
1.1892533
1.1884283
1.1876316
1.1868636
1.1861243
1.1854136
1.1847312
1.1840767
1.1834497
1.1828495
1.1822756
1.1817273
1.1812038
1.1807044
1.1802282
1.1797745
1.1793424
1.1789311
1.1785397
1.1781672
1.1778129
1.1774758
1.1771551
1.1768498
1.176559
1.1762819
1.1760173
1.1757636
1.1755194
1.1752854
1.1750556
1.1748191
1.1746179
1.1744427
1.1740055
1.173835
1.1750494
1.1975757
1.2034569
1.2023446
1.2052157
1.2056523
1.2074263
1.2083595
1.2096812
1.2106567
1.2116703
1.2124962
1.2132297
1.2138072
1.2142469
1.2145316
1.2146648
1.2146447
1.2144759
1.2141638
1.2137168
1.2131446
1.2124585
1.2116707
1.2107938
1.2098406
1.2088237
1.2077551
1.2066465
1.2055084
1.2043506
1.2031818
1.2020098
1.2008414
1.1996825
1.1985383
1.1974129
1.19631
1.1952323
1.1941823
1.1931617
1.192172
1.191214
1.1902885
1.1893958
1.188536
1.1877091
1.1869148
1.1861526
1.1854222
1.1847229
1.1840539
1.1834146
1.1828041
1.1822216
1.1816662
1.1811371
1.1806334
1.1801541
1.1796984
1.1792654
1.1788541
1.1784637
1.1780932
1.1777418
1.1774085
1.1770925
1.176793
1.176509
1.1762398
1.1759845
1.1757414
1.1755101
1.1752906
1.1750748
1.1748597
1.1746873
1.1745082
1.1741046
1.1740631
1.1750661
1.2034374
1.2094075
1.2084971
1.211453
1.2120392
1.2138622
1.2148911
1.2162317
1.217204
1.2181414
1.218856
1.2194225
1.2197936
1.2199853
1.2199894
1.2198143
1.2194657
1.218955
1.2182945
1.2174988
1.2165833
1.2155641
1.2144572
1.2132784
1.2120424
1.2107631
1.2094533
1.2081245
1.2067868
1.2054492
1.2041193
1.2028036
1.2015078
1.2002364
1.198993
1.1977806
1.1966016
1.1954576
1.1943499
1.1932794
1.1922464
1.1912513
1.1902939
1.1893739
1.188491
1.1876444
1.1868336
1.1860578
1.185316
1.1846074
1.183931
1.183286
1.1826711
1.1820856
1.1815283
1.1809983
1.1804946
1.1800162
1.1795622
1.1791317
1.1787236
1.1783371
1.1779713
1.1776253
1.1772981
1.1769891
1.1766973
1.1764219
1.1761622
1.1759174
1.1756861
1.1754687
1.1752641
1.1750638
1.1748717
1.1747223
1.1745404
1.1741893
1.1742457
1.1750514
1.2100213
1.2160196
1.215283
1.2182801
1.2191864
1.2211328
1.2221561
1.2234101
1.2242766
1.2250255
1.2255109
1.2257904
1.2258346
1.2256621
1.2252765
1.2246943
1.2239311
1.2230062
1.2219397
1.2207523
1.2194643
1.2180954
1.2166641
1.2151871
1.2136799
1.2121558
1.2106267
1.2091026
1.2075922
1.2061026
1.2046397
1.2032082
1.2018117
1.2004534
1.1991352
1.1978587
1.196625
1.1954346
1.1942877
1.1931841
1.1921237
1.1911058
1.1901296
1.1891945
1.1882994
1.1874434
1.1866254
1.1858443
1.185099
1.1843883
1.1837111
1.1830662
1.1824526
1.1818691
1.1813145
1.1807879
1.1802882
1.1798144
1.1793655
1.1789405
1.1785384
1.1781585
1.1777997
1.1774612
1.1771422
1.1768419
1.1765595
1.1762942
1.1760455
1.1758123
1.1755939
1.1753909
1.1752014
1.1750178
1.174849
1.1747208
1.1745476
1.1742464
1.1743692
1.1749998
1.2172905
1.2233048
1.2230128
1.2262381
1.2271029
1.2289445
1.229974
1.2310271
1.2316702
1.2320957
1.2322074
1.232057
1.2316372
1.2309764
1.2300933
1.2290152
1.2277684
1.2263803
1.2248771
1.2232839
1.2216235
1.2199168
1.2181818
1.2164346
1.2146886
1.2129551
1.2112435
1.2095615
1.2079151
1.206309
1.2047469
1.2032313
1.2017641
1.2003465
1.1989791
1.197662
1.1963951
1.1951779
1.1940096
1.1928894
1.1918163
1.190789
1.1898065
1.1888673
1.1879703
1.1871141
1.1862973
1.1855186
1.1847767
1.1840703
1.1833981
1.1827588
1.1821513
1.1815742
1.1810266
1.1805072
1.1800149
1.1795488
1.1791079
1.1786911
1.1782975
1.1779263
1.1775765
1.1772475
1.1769383
1.1766482
1.1763765
1.1761226
1.1758857
1.175665
1.1754602
1.1752718
1.1750972
1.1749307
1.1747854
1.1746786
1.1745168
1.1742541
1.1744287
1.1749211
1.2257076
1.231798
1.2317381
1.2348406
1.2358497
1.2374708
1.2382734
1.2389459
1.2391488
1.239051
1.2385981
1.2378501
1.2368239
1.2355616
1.2340967
1.2324668
1.2307058
1.2288461
1.2269162
1.2249416
1.2229441
1.2209421
1.2189509
1.216983
1.2150483
1.2131548
1.2113084
1.2095135
1.2077733
1.20609
1.2044647
1.2028981
1.2013903
1.1999407
1.1985488
1.1972135
1.1959336
1.1947078
1.1935346
1.1924126
1.1913401
1.1903156
1.1893375
1.1884042
1.1875142
1.1866658
1.1858575
1.185088
1.1843556
1.183659
1.1829968
1.1823678
1.1817705
1.1812038
1.1806666
1.1801576
1.1796757
1.17922
1.1787895
1.1783831
1.1780001
1.1776394
1.1773004
1.1769821
1.176684
1.1764052
1.1761452
1.1759033
1.1756789
1.1754712
1.1752802
1.1751061
1.1749458
1.1747959
1.1746719
1.1745802
1.1744326
1.1742255
1.1744183
1.1747902
1.2356159
1.2413278
1.2415525
1.2443909
1.2451987
1.2463467
1.2466494
1.2466763
1.2461945
1.2453593
1.2441632
1.2426799
1.2409498
1.2390269
1.2369554
1.2347776
1.2325295
1.2302423
1.227942
1.2256497
1.2233825
1.2211536
1.2189733
1.2168491
1.2147865
1.2127893
1.2108598
1.2089993
1.2072081
1.2054861
1.2038324
1.202246
1.2007253
1.1992688
1.1978746
1.196541
1.1952659
1.1940474
1.1928835
1.1917724
1.1907121
1.1897007
1.1887363
1.1878172
1.1869417
1.186108
1.1853145
1.1845596
1.1838418
1.1831597
1.1825118
1.1818967
1.1813133
1.1807602
1.1802362
1.1797403
1.1792713
1.1788282
1.1784101
1.178016
1.177645
1.1772963
1.1769692
1.1766628
1.1763766
1.1761099
1.175862
1.1756326
1.1754208
1.1752263
1.175049
1.1748888
1.1747425
1.1746092
1.1745035
1.1744227
1.1742922
1.174141
1.1743312
1.1745934
1.2467845
1.2517305
1.2519372
1.2542006
1.2545418
1.2549011
1.2544022
1.2535146
1.2521206
1.2503775
1.2483233
1.2460442
1.2435963
1.2410377
1.2384136
1.2357625
1.2331146
1.2304941
1.2279189
1.2254027
1.2229552
1.2205831
1.2182906
1.2160802
1.213953
1.2119088
1.2099468
1.2080657
1.2062636
1.2045384
1.2028877
1.2013092
1.1998003
1.1983587
1.1969817
1.1956669
1.194412
1.1932145
1.1920722
1.190983
1.1899446
1.188955
1.1880123
1.1871146
1.18626
1.1854468
1.1846733
1.1839379
1.183239
1.1825753
1.1819453
1.1813476
1.1807809
1.1802441
1.1797359
1.1792553
1.1788011
1.1783725
1.1779684
1.177588
1.1772304
1.1768948
1.1765805
1.1762868
1.1760131
1.1757587
1.1755232
1.1753061
1.1751068
1.174925
1.1747608
1.1746135
1.1744804
1.1743629
1.1742727
1.1742004
1.1740892
1.1739876
1.1741601
1.174333
1.2578289
1.2622975
1.2623754
1.2636499
1.2631181
1.2622831
1.260641
1.2585907
1.2561282
1.2534105
1.2505034
1.2474907
1.2444266
1.2413588
1.238321
1.2353392
1.2324312
1.2296095
1.2268821
1.2242536
1.2217262
1.2193001
1.2169745
1.2147475
1.2126166
1.2105789
1.2086313
1.2067706
1.2049933
1.2032961
1.2016759
1.2001294
1.1986536
1.1972454
1.1959019
1.1946205
1.1933984
1.1922333
1.1911226
1.1900641
1.1890555
1.1880949
1.1871802
1.1863094
1.1854808
1.1846927
1.1839433
1.1832311
1.1825546
1.1819123
1.1813029
1.180725
1.1801774
1.1796588
1.1791682
1.1787045
1.1782666
1.1778537
1.1774647
1.1770989
1.1767555
1.1764336
1.1761326
1.1758518
1.1755907
1.1753486
1.1751253
1.17492
1.1747325
1.1745625
1.1744101
1.1742743
1.1741532
1.1740495
1.1739713
1.1739058
1.173814
1.1737517
1.1738986
1.1740024
1.2698218
1.2730209
1.2723678
1.2717872
1.2698126
1.2674046
1.2644231
1.2611697
1.2577065
1.2541587
1.2505869
1.2470493
1.2435802
1.240206
1.2369422
1.2337986
1.2307796
1.2278867
1.2251189
1.2224736
1.2199476
1.2175366
1.2152365
1.2130426
1.2109503
1.208955
1.2070522
1.2052376
1.2035072
1.201857
1.2002833
1.1987827
1.1973516
1.1959871
1.1946861
1.1934457
1.1922633
1.1911364
1.1900626
1.1890395
1.188065
1.1871371
1.1862537
1.185413
1.1846133
1.1838527
1.1831298
1.182443
1.1817907
1.1811717
1.1805845
1.1800278
1.1795006
1.1790016
1.1785298
1.178084
1.1776634
1.1772669
1.1768938
1.1765432
1.1762144
1.1759066
1.1756191
1.1753513
1.1751027
1.1748728
1.1746611
1.1744672
1.1742907
1.1741315
1.1739895
1.1738637
1.173753
1.1736607
1.1735914
1.1735315
1.173458
1.173425
1.1735421
1.1735961
1.2812198
1.2805441
1.2783882
1.2756038
1.2720517
1.268198
1.2641179
1.2599917
1.2558848
1.2518672
1.2479712
1.244221
1.2406255
1.2371886
1.2339102
1.2307872
1.2278147
1.2249867
1.2222966
1.2197376
1.2173032
1.214987
1.2127824
1.2106833
1.208684
1.2067793
1.2049643
1.2032345
1.2015855
1.2000134
1.1985146
1.1970855
1.1957229
1.1944236
1.1931848
1.1920038
1.1908779
1.1898047
1.1887819
1.1878072
1.1868787
1.1859944
1.1851525
1.1843513
1.1835889
1.1828639
1.1821748
1.18152
1.1808983
1.1803082
1.1797486
1.1792182
1.1787159
1.1782406
1.1777913
1.177367
1.1769668
1.1765897
1.1762351
1.175902
1.1755898
1.1752978
1.1750253
1.1747717
1.1745366
1.1743194
1.1741197
1.1739371
1.1737712
1.1736221
1.1734893
1.1733721
1.1732701
1.1731862
1.1731222
1.1730654
1.1730055
1.1729936
1.1730891
1.1730996
1.2847739
1.281452
1.2778276
1.2736213
1.2691629
1.2646501
1.2601878
1.255853
1.2516776
1.247683
1.2438737
1.24025
1.2368077
1.2335402
1.2304379
1.2274913
1.2246914
1.2220292
1.2194967
1.2170862
1.2147902
1.2126026
1.2105179
1.2085309
1.2066361
1.204829
1.2031049
1.2014598
1.1998899
1.1983914
1.1969611
1.1955959
1.1942927
1.1930488
1.1918616
1.1907285
1.1896473
1.1886159
1.1876324
1.1866948
1.1858013
1.1849501
1.1841395
1.1833679
1.1826336
1.1819353
1.1812714
1.1806406
1.1800416
1.1794732
1.1789341
1.1784233
1.1779396
1.177482
1.1770495
1.1766411
1.176256
1.1758934
1.1755524
1.1752322
1.1749322
1.1746517
1.1743901
1.1741468
1.1739213
1.173713
1.1735216
1.1733467
1.1731879
1.1730451
1.172918
1.1728059
1.1727089
1.1726287
1.1725654
1.1725116
1.1724639
1.1724518
1.1725009
1.1725084
1.2735581
1.2703772
1.2674788
1.2635347
1.2595794
1.2555473
1.2516077
1.2477817
1.2441008
1.2405732
1.2372015
1.2339833
1.2309133
1.2279863
1.2251959
1.2225358
1.2199995
1.2175806
1.2152731
1.2130712
1.2109694
1.2089621
1.2070447
1.2052133
1.203464
1.2017932
1.2001973
1.198673
1.197217
1.1958263
1.1944982
1.1932299
1.1920188
1.1908627
1.1897592
1.1887062
1.1877018
1.186744
1.1858306
1.18496
1.1841302
1.1833398
1.1825871
1.1818706
1.1811889
1.1805407
1.1799246
1.1793394
1.1787839
1.178257
1.1777575
1.1772843
1.1768366
1.1764132
1.1760133
1.1756359
1.1752803
1.1749456
1.1746311
1.1743361
1.1740598
1.1738016
1.1735609
1.1733372
1.1731299
1.1729386
1.1727627
1.172602
1.1724561
1.1723248
1.1722077
1.1721045
1.1720152
1.1719404
1.1718799
1.1718304
1.1717921
1.1717764
1.171791
1.1717991
1.2331938
1.2429364
1.2442577
1.2448025
1.2437049
1.2420289
1.2398716
1.2375005
1.2349988
1.2324555
1.2299112
1.2273993
1.2249377
1.2225391
1.2202106
1.2179566
1.2157792
1.2136791
1.211656
1.2097092
1.2078372
1.2060385
1.2043109
1.2026518
1.2010591
1.1995306
1.1980642
1.1966578
1.1953093
1.1940169
1.1927787
1.1915927
1.1904571
1.1893703
1.1883307
1.1873367
1.1863865
1.1854781
1.1846102
1.1837813
1.1829901
1.1822351
1.1815151
1.1808288
1.1801751
1.1795527
1.1789606
1.1783976
1.1778626
1.1773547
1.1768729
1.1764161
1.1759835
1.1755742
1.1751873
1.174822
1.1744774
1.1741528
1.1738476
1.1735609
1.1732922
1.1730408
1.172806
1.1725874
1.1723843
1.1721964
1.1720231
1.1718641
1.1717189
1.1715873
1.1714689
1.1713634
1.1712707
1.1711909
1.1711236
1.1710681
1.1710247
1.1709954
1.1709814
1.1709793
1.2454376
1.2456181
1.2458218
1.2459367
1.2452705
1.2437425
1.2412996
1.2381437
1.2344943
1.2305063
1.2265066
1.2224255
1.2184158
1.2144697
1.2106742
1.2071719
1.203937
1.2010439
1.1984635
1.1961597
1.1941443
1.1923536
1.1907941
1.1894202
1.188222
1.1871449
1.1861705
1.1852713
1.1844629
1.1837762
1.1831611
1.1825897
1.1820584
1.1815597
1.1810882
1.1806402
1.1802131
1.1798053
1.1794159
1.1790436
1.178688
1.1783489
1.1780254
1.1777175
1.1774247
1.1771466
1.1768826
1.1766323
1.176395
1.1761704
1.1759576
1.1757564
1.1755654
1.1753852
1.1752128
1.1750508
1.1748932
1.1747472
1.1745989
1.1744677
1.1743209
1.1742061
1.1740482
1.1739577
1.1737669
1.1737201
1.173458
1.173495
1.1731028
1.1732943
1.1726311
1.1731286
1.1720273
1.1730347
1.1712126
1.1730521
1.1700585
1.1732232
1.1683871
1.1737141
1.1031778
1.1077516
1.1142617
1.1217128
1.1298757
1.1380909
1.144955
1.1505807
1.1555049
1.1597796
1.1634255
1.166596
1.1693499
1.1717385
1.1738213
1.1756022
1.1771607
1.1784358
1.1795133
1.1803467
1.1810363
1.181521
1.1818862
1.1820879
1.1821913
1.1821759
1.182096
1.1819465
1.1817476
1.1815139
1.1812481
1.1809571
1.1806407
1.1803113
1.1799769
1.1796425
1.1793121
1.1789886
1.1786741
1.1783694
1.1780754
1.1777927
1.1775212
1.1772611
1.1770124
1.176775
1.1765485
1.1763328
1.1761274
1.1759322
1.1757464
1.1755701
1.1754019
1.1752425
1.1750892
1.1749446
1.1748029
1.1746712
1.1745363
1.1744162
1.1742811
1.1741741
1.1740275
1.1739403
1.1737626
1.1737128
1.1734683
1.1734922
1.1731261
1.1732962
1.1726786
1.1731299
1.1720901
1.1730395
1.171272
1.1730647
1.1700954
1.1732686
1.1683937
1.1737814
1.2035821
1.2041415
1.2061687
1.2088608
1.2100271
1.2094409
1.2082012
1.2066743
1.2049912
1.2032653
1.2015356
1.1998474
1.1982078
1.1966405
1.1951466
1.1937305
1.1924047
1.1911923
1.1901104
1.1891038
1.1881502
1.1872842
1.1864465
1.1857077
1.1850314
1.1844141
1.1838937
1.1833918
1.1829531
1.1823999
1.1818865
1.1814113
1.1809642
1.1805441
1.180147
1.1797701
1.1794112
1.1790686
1.1787412
1.1784274
1.1781273
1.1778404
1.1775658
1.177304
1.1770543
1.1768164
1.17659
1.1763749
1.1761705
1.1759766
1.1757923
1.1756178
1.1754514
1.1752939
1.1751425
1.1749997
1.1748596
1.1747293
1.1745956
1.1744763
1.1743419
1.1742346
1.1740887
1.1739995
1.1738233
1.1737682
1.173527
1.1735424
1.1731786
1.1733351
1.1727343
1.1731543
1.1721515
1.1730475
1.1713353
1.1730595
1.1701567
1.173264
1.1684377
1.1737918
1.166184
1.1660614
1.1682005
1.1731302
1.1768686
1.1779872
1.1785343
1.1789776
1.1793845
1.1798864
1.1803542
1.1808121
1.1812282
1.1816163
1.1818627
1.1822202
1.182224
1.1825774
1.1824884
1.1827258
1.1825581
1.1826937
1.182518
1.1824959
1.1822577
1.1820891
1.1817746
1.1815363
1.1812513
1.1809674
1.1806738
1.1803762
1.1800758
1.1797743
1.1794742
1.1791774
1.1788853
1.1785996
1.1783209
1.1780503
1.1777888
1.1775365
1.1772938
1.1770608
1.1768376
1.1766241
1.1764203
1.176226
1.176041
1.175865
1.1756973
1.175538
1.1753858
1.1752413
1.1751019
1.17497
1.1748398
1.1747186
1.1745929
1.1744811
1.1743529
1.1742517
1.1741099
1.1740259
1.1738517
1.1738013
1.1735602
1.1735804
1.1732151
1.1733757
1.1727689
1.1731963
1.1721765
1.1730884
1.1713649
1.1731003
1.1701805
1.1732975
1.1684573
1.1738199
1.1736728
1.1751043
1.1785296
1.1832298
1.1852222
1.1856974
1.1855333
1.1854139
1.1852927
1.1851913
1.1850484
1.1849187
1.1847557
1.1845997
1.1844211
1.1842329
1.1840398
1.1838137
1.183596
1.1833203
1.1830934
1.18276
1.1824928
1.1821645
1.1818851
1.1815735
1.181301
1.1809973
1.1807062
1.1804151
1.1801268
1.1798421
1.1795618
1.1792863
1.1790159
1.1787511
1.1784922
1.1782394
1.1779929
1.1777533
1.1775211
1.1772965
1.1770796
1.1768707
1.1766699
1.1764774
1.176293
1.1761169
1.1759487
1.1757883
1.1756351
1.1754892
1.1753493
1.1752162
1.1750871
1.1749646
1.174843
1.1747292
1.1746104
1.1745042
1.1743813
1.1742839
1.1741463
1.1740641
1.1738932
1.1738426
1.1736046
1.1736224
1.1732604
1.1734143
1.1728162
1.173231
1.1722279
1.1731178
1.1714102
1.1731223
1.170222
1.1733179
1.1684864
1.1738389
1.1674032
1.1687551
1.1724474
1.1772357
1.1798002
1.1804015
1.1803111
1.1803904
1.1804467
1.1805297
1.1805492
1.1805873
1.1805913
1.1806073
1.1805961
1.1805893
1.1805606
1.1805327
1.1804848
1.1804398
1.1803679
1.1803088
1.1802196
1.1801303
1.1800148
1.1798927
1.1797483
1.1795984
1.1794356
1.1792644
1.1790849
1.1788991
1.178708
1.1785129
1.1783152
1.1781161
1.1779168
1.1777184
1.1775216
1.1773278
1.1771377
1.176952
1.1767711
1.1765955
1.1764256
1.1762617
1.1761039
1.1759523
1.1758067
1.1756672
1.1755334
1.1754052
1.1752816
1.1751633
1.1750478
1.1749374
1.1748269
1.1747229
1.174613
1.1745142
1.1743982
1.1743061
1.1741738
1.1740948
1.1739281
1.1738784
1.1736441
1.1736605
1.1733024
1.1734521
1.1728566
1.1732662
1.1722649
1.173149
1.1714488
1.1731501
1.1702557
1.1733398
1.1685125
1.1738575
1.1665654
1.1682569
1.172379
1.1770445
1.1790509
1.179441
1.1793925
1.1794173
1.1793929
1.1794298
1.1794161
1.1794456
1.1794331
1.1794462
1.1794304
1.1794213
1.1793907
1.1793637
1.1793212
1.1792745
1.1792179
1.1791509
1.1790767
1.1789931
1.178903
1.1788045
1.1787002
1.1785877
1.1784687
1.1783434
1.1782123
1.1780762
1.1779357
1.1777915
1.1776443
1.177495
1.1773441
1.1771926
1.1770408
1.1768899
1.1767406
1.1765934
1.1764487
1.1763072
1.1761692
1.176035
1.175905
1.1757792
1.1756576
1.1755403
1.1754268
1.1753175
1.1752112
1.1751085
1.1750073
1.1749098
1.174811
1.1747171
1.1746165
1.1745253
1.1744166
1.1743296
1.1742031
1.1741267
1.1739647
1.1739151
1.1736854
1.1736989
1.1733462
1.173489
1.1729014
1.1733001
1.1723122
1.1731783
1.1714915
1.1731751
1.1702933
1.1733595
1.1685398
1.1738737