/*--------------------------------*- C++ -*----------------------------------*\
  =========                 |
  \\      /  F ield         | OpenFOAM: The Open Source CFD Toolbox
   \\    /   O peration     | Website:  https://openfoam.org
    \\  /    A nd           | Version:  6
     \\/     M anipulation  |
\*---------------------------------------------------------------------------*/
FoamFile
{
    version     2.0;
    format      ascii;
    class       volScalarField;
    location    "950";
    object      T;
}
// * * * * * * * * * * * * * * * * * * * * * * * * * * * * * * * * * * * * * //

dimensions      [0 0 0 1 0 0 0];

internalField   nonuniform List<scalar> 
16000
(
297.79673
296.65967
297.06456
296.9078
297.04832
297.01994
297.08817
297.0994
297.14497
297.17057
297.20902
297.24081
297.27751
297.31237
297.34927
297.38597
297.42367
297.46165
297.50021
297.53911
297.57837
297.61786
297.65751
297.6972
297.73685
297.77633
297.81553
297.85433
297.89258
297.93016
297.96693
298.00276
298.03751
298.07104
298.10323
298.13394
298.16305
298.19047
298.21607
298.23977
298.26149
298.28116
298.29871
298.31411
298.32733
298.33833
298.34712
298.35369
298.35807
298.36028
298.36036
298.35835
298.35431
298.34831
298.34042
298.33069
298.3192
298.30605
298.29134
298.27515
298.25759
298.23876
298.21872
298.19769
298.17562
298.1531
298.12951
298.10662
298.08178
298.06041
298.03319
298.01768
297.98357
297.98455
297.9299
297.97737
297.87642
298.0191
297.8391
298.07279
297.82182
296.69548
297.1172
296.95756
297.10325
297.07499
297.14622
297.15918
297.20703
297.23487
297.2754
297.30954
297.34832
297.38549
297.4245
297.46341
297.50321
297.54328
297.58384
297.62467
297.66575
297.70695
297.74818
297.78931
297.83023
297.87081
297.9109
297.95038
297.98909
298.02689
298.06364
298.09919
298.1334
298.16612
298.19724
298.22663
298.25417
298.27977
298.30332
298.32476
298.34402
298.36106
298.37583
298.38832
298.39852
298.40643
298.41208
298.41549
298.4167
298.41577
298.41275
298.4077
298.4007
298.39183
298.38118
298.36881
298.35482
298.33928
298.32231
298.304
298.28445
298.26375
298.24198
298.21929
298.19575
298.17166
298.14691
298.12232
298.09693
298.07319
298.0471
298.02695
297.99797
297.98829
297.94624
297.97189
297.89601
298.00575
297.86074
298.04962
297.86827
296.75755
297.18862
297.02754
297.17741
297.15095
297.22459
297.24021
297.29018
297.32077
297.36348
297.40027
297.44134
297.48103
297.52235
297.56363
297.60566
297.64793
297.69056
297.73336
297.77627
297.81915
297.86187
297.90431
297.94632
297.98776
298.02846
298.06829
298.10706
298.14464
298.18086
298.21558
298.24864
298.27992
298.30928
298.33661
298.36181
298.38479
298.40548
298.42383
298.43979
298.45335
298.46449
298.47324
298.4796
298.48361
298.48533
298.48482
298.48213
298.47735
298.47055
298.46183
298.45127
298.43897
298.42503
298.40955
298.39259
298.37426
298.35466
298.33389
298.31205
298.28923
298.2655
298.24099
298.21579
298.19011
298.16402
298.13793
298.11162
298.08617
298.06003
298.03713
298.01033
297.99492
297.96007
297.97157
297.91293
297.99844
297.87842
298.04751
297.93474
296.84449
297.27935
297.118
297.27174
297.24765
297.32374
297.34238
297.39465
297.42824
297.47334
297.51298
297.55652
297.59887
297.64264
297.68639
297.73072
297.77522
297.81992
297.86465
297.90929
297.9537
297.99774
298.04124
298.08405
298.126
298.16691
298.20661
298.24494
298.28173
298.31681
298.35003
298.38125
298.41033
298.43717
298.46166
298.48371
298.50327
298.52028
298.53472
298.54659
298.55588
298.56263
298.56689
298.5687
298.56814
298.56529
298.56025
298.55309
298.54393
298.53288
298.52002
298.50549
298.48937
298.4718
298.45286
298.43264
298.41125
298.38878
298.36534
298.34101
298.31589
298.29005
298.26358
298.2366
298.20924
298.18165
298.15409
298.12661
298.09974
298.07298
298.04818
298.02213
298.00284
297.97283
297.97356
297.92712
297.99452
297.89391
298.04469
298.02086
296.95812
297.39002
297.22983
297.38691
297.3662
297.44461
297.4669
297.52158
297.55859
297.60628
297.64907
297.69529
297.74051
297.78689
297.83324
297.87997
297.92674
297.97351
298.0201
298.06637
298.11215
298.15726
298.20153
298.24477
298.28679
298.32741
298.36643
298.40369
298.439
298.47219
298.50313
298.53167
298.5577
298.58112
298.60185
298.61982
298.63502
298.64743
298.65705
298.66391
298.66807
298.66959
298.66856
298.66506
298.65921
298.65111
298.6409
298.62869
298.61462
298.5988
298.58136
298.56244
298.54213
298.52057
298.49788
298.47413
298.44943
298.42387
298.39756
298.37059
298.34302
298.31494
298.28643
298.25757
298.22849
298.19935
298.17034
298.1416
298.11345
298.08584
298.05963
298.03361
298.01183
297.98477
297.97788
297.94026
297.99304
297.90825
298.04723
298.12826
297.09607
297.52211
297.36456
297.52444
297.50802
297.58866
297.61513
297.67237
297.71313
297.76364
297.8098
297.8589
297.90714
297.95626
298.00528
298.05445
298.10346
298.15222
298.20053
298.24822
298.29508
298.34091
298.38552
298.42869
298.47021
298.50988
298.54751
298.5829
298.61589
298.6463
298.67401
298.6989
298.72086
298.73984
298.75578
298.76866
298.77849
298.7853
298.78914
298.79009
298.78824
298.7837
298.77661
298.76708
298.75527
298.74133
298.7254
298.70764
298.6882
298.66722
298.64484
298.6212
298.59643
298.57065
298.54398
298.51652
298.48835
298.45957
298.43027
298.40054
298.37045
298.34006
298.30944
298.27867
298.24785
298.21712
298.18667
298.15665
298.12729
298.09872
298.07137
298.04497
298.02139
297.99626
297.98442
297.95273
297.99344
297.92116
298.05201
298.25865
297.24891
297.67687
297.52352
297.68562
297.6744
297.75721
297.78838
297.84837
297.8932
297.94678
297.99652
298.04871
298.10012
298.1521
298.20383
298.25543
298.30662
298.35722
298.40702
298.45581
298.50336
298.54944
298.59381
298.63625
298.67652
298.71442
298.74975
298.78231
298.81194
298.83849
298.86186
298.88195
298.89869
298.91207
298.92207
298.92873
298.9321
298.93227
298.92933
298.92343
298.91469
298.90329
298.88938
298.87314
298.85476
298.83442
298.81229
298.78855
298.76336
298.7369
298.7093
298.68072
298.65128
298.62112
298.59033
298.55904
298.52731
298.49523
298.46289
298.43036
298.39771
298.36499
298.33226
298.29957
298.26702
298.23473
298.20286
298.17158
298.14109
298.11155
298.08325
298.05631
298.03149
298.0072
297.99145
297.96503
297.99537
297.93365
298.05815
298.41285
297.42371
297.85449
297.7071
297.87099
297.866
297.95109
297.98756
298.05062
298.09992
298.15689
298.21049
298.26601
298.32074
298.37568
298.43014
298.48412
298.53731
298.5895
298.64045
298.68989
298.73756
298.78321
298.82657
298.8674
298.90546
298.94054
298.97243
299.00096
299.02599
299.04741
299.06512
299.0791
299.08932
299.09582
299.09864
299.09788
299.09365
299.0861
299.07539
299.06171
299.04524
299.02621
299.00481
298.98127
298.9558
298.92861
298.89989
298.86985
298.83866
298.8065
298.77351
298.73986
298.70566
298.67103
298.63609
298.60093
298.56564
298.53026
298.49489
298.45959
298.42441
298.3894
298.35459
298.32003
298.28581
298.25201
298.21878
298.1863
298.15474
298.12427
298.09513
298.06759
298.04194
298.01821
297.99979
297.97716
297.99835
297.9461
298.06437
298.59119
297.62394
298.05594
297.91637
298.0818
298.08412
298.17174
298.21413
298.28069
298.33485
298.3956
298.45332
298.51241
298.57057
298.62852
298.68564
298.74181
298.79672
298.8501
298.90165
298.95107
298.99807
299.04237
299.0837
299.12178
299.15639
299.18731
299.21437
299.23743
299.25637
299.27114
299.28171
299.28809
299.29035
299.28857
299.28289
299.27347
299.26048
299.24416
299.22471
299.20238
299.17743
299.1501
299.12065
299.08932
299.05636
299.02199
298.98644
298.9499
298.91257
298.87461
298.83618
298.79743
298.75847
298.71942
298.68037
298.64141
298.60261
298.56402
298.5257
298.48771
298.45009
298.41287
298.37608
298.33975
298.30393
298.26871
298.23422
298.20062
298.16807
298.13676
298.1069
298.07877
298.05255
298.029
298.00878
297.98919
298.00222
297.95834
298.07156
298.79336
297.85067
298.28287
298.15307
298.31983
298.33055
298.42105
298.46997
298.54051
298.59994
298.66484
298.72691
298.78973
298.85136
298.91225
298.9718
299.02982
299.08595
299.13985
299.19119
299.23964
299.28488
299.32659
299.3645
299.39836
299.42793
299.45306
299.47359
299.48944
299.50056
299.50696
299.5087
299.50588
299.49862
299.48713
299.4716
299.45227
299.42942
299.40332
299.37427
299.34256
299.30848
299.27233
299.2344
299.19496
299.15426
299.11255
299.07005
299.02697
298.98349
298.93978
298.89598
298.85223
298.80863
298.76528
298.72227
298.67966
298.63751
298.59586
298.55475
298.51422
298.47431
298.43502
298.39638
298.3584
298.32113
298.28461
298.24898
298.21436
298.18095
298.14889
298.11842
298.08977
298.06318
298.0396
298.01831
298.001
298.0068
297.97039
298.07778
299.01588
298.10584
298.53708
298.41909
298.5871
298.60734
298.70118
298.75725
298.83231
298.89737
298.96676
299.03334
299.09997
299.16495
299.22851
299.29007
299.34932
299.40585
299.45929
299.50926
299.55539
299.59735
299.63482
299.66755
299.69529
299.71789
299.7352
299.74718
299.75381
299.75514
299.75128
299.74237
299.72862
299.71027
299.68761
299.66092
299.63055
299.59683
299.56012
299.52074
299.47907
299.43542
299.39012
299.34347
299.29577
299.24728
299.19823
299.14886
299.09935
299.04987
299.00059
298.95162
298.90309
298.85508
298.80767
298.76093
298.71491
298.66964
298.62515
298.58147
298.53861
298.4966
298.45544
298.41513
298.37568
298.33711
298.29946
298.26283
298.22735
298.19318
298.16051
298.12954
298.10045
298.07364
298.04989
298.02809
298.01243
298.01184
297.98232
298.08407
299.26319
298.39126
298.82053
298.71652
298.88591
298.91681
299.01463
299.07846
299.15862
299.22965
299.3038
299.37492
299.44524
299.51322
299.57892
299.64169
299.70117
299.75689
299.80842
299.85535
299.89732
299.93398
299.96506
299.99033
300.00963
300.02286
300.03001
300.0311
300.02625
300.01563
299.99947
299.97803
299.95165
299.92068
299.8855
299.84651
299.80411
299.75873
299.71075
299.66059
299.60861
299.55517
299.50062
299.44526
299.38938
299.33324
299.27706
299.22105
299.16539
299.11022
299.05568
299.00188
298.9489
298.89682
298.84568
298.79554
298.74641
298.69833
298.65129
298.60531
298.56039
298.51652
298.47372
298.43197
298.39126
298.35159
298.31299
298.27554
298.23935
298.20459
298.17143
298.14008
298.11069
298.08376
298.05977
298.03784
298.02334
298.01713
297.99322
298.08905
299.5393
298.70964
299.13594
299.04822
299.21928
299.26199
299.36453
299.43667
299.52245
299.59966
299.67866
299.7541
299.82768
299.89795
299.96479
300.02751
300.08567
300.13874
300.18629
300.2279
300.26322
300.29196
300.3139
300.32893
300.33698
300.33808
300.33235
300.31999
300.30124
300.27643
300.24593
300.21016
300.16956
300.12462
300.0758
300.02359
299.96848
299.91091
299.85135
299.79021
299.72789
299.66474
299.60111
299.53728
299.47353
299.4101
299.34719
299.28497
299.22359
299.16319
299.10385
299.04566
298.98867
298.93294
298.87849
298.82535
298.77351
298.72297
298.67373
298.62578
298.57909
298.53368
298.4895
298.44655
298.40482
298.36428
298.32495
298.28688
298.25017
298.21498
298.18149
298.14987
298.12032
298.09335
298.06911
298.04735
298.03356
298.02269
298.00355
298.09316
299.84664
299.06432
299.48668
299.41765
299.59081
299.6464
299.75451
299.83541
299.92717
300.01053
300.09416
300.1733
300.24922
300.32048
300.38682
300.44751
300.50203
300.54987
300.59058
300.6238
300.64926
300.66676
300.67623
300.67768
300.67124
300.65712
300.63562
300.6071
300.57202
300.53086
300.48416
300.43248
300.37638
300.31643
300.25322
300.18727
300.11912
300.04925
299.97814
299.9062
299.83382
299.76134
299.68907
299.61729
299.54623
299.47608
299.40702
299.33918
299.27269
299.20762
299.14405
299.08203
299.02157
298.9627
298.90543
298.84974
298.79562
298.74305
298.69199
298.64243
298.59433
298.54768
298.50243
298.45857
298.41607
298.37491
298.33508
298.29661
298.25958
298.22414
298.19047
298.15873
298.12916
298.10222
298.07781
298.05643
298.04269
298.02814
298.01314
298.09617
300.18792
299.45899
299.8765
299.82865
300.00453
300.074
300.18864
300.27857
300.37638
300.46544
300.55293
300.63451
300.71109
300.78121
300.84452
300.90022
300.94783
300.98685
301.01693
301.03782
301.0494
301.05167
301.04476
301.0289
301.00446
300.97187
300.93166
300.88443
300.8308
300.77146
300.70707
300.63832
300.56589
300.49042
300.41253
300.3328
300.25177
300.16992
300.0877
300.00552
299.92371
299.8426
299.76243
299.68345
299.60583
299.52973
299.45528
299.38257
299.31167
299.24264
299.1755
299.11026
299.04693
298.9855
298.92593
298.8682
298.81228
298.75812
298.70568
298.6549
298.60576
298.55821
298.51221
298.46774
298.42475
298.38322
298.34314
298.3045
298.26737
298.23188
298.19819
298.16648
298.13702
298.11016
298.08568
298.06486
298.05093
298.03359
298.02241
298.0975
300.5664
299.89835
300.31016
300.28595
300.46532
300.5495
300.67163
300.77019
300.87365
300.96723
301.05696
301.13875
301.21323
301.27892
301.33541
301.38197
301.41817
301.44367
301.45829
301.46201
301.45497
301.43745
301.40987
301.37277
301.3268
301.27266
301.21113
301.14302
301.06914
300.99033
300.90738
300.82107
300.73212
300.64121
300.54898
300.45598
300.36273
300.26968
300.17723
300.08573
299.99546
299.90669
299.81961
299.73439
299.65117
299.57004
299.49109
299.41435
299.33985
299.26761
299.19763
299.12987
299.06431
299.00091
298.93962
298.88039
298.82317
298.76789
298.71449
298.66291
298.6131
298.56501
298.51859
298.47381
298.43062
298.38899
298.3489
298.31034
298.27334
298.23799
298.20446
298.17292
298.14371
298.11699
298.09258
298.07231
298.0579
298.03903
298.03091
298.09682
300.98519
300.3883
300.79376
300.7957
300.97959
301.07901
301.2096
301.31396
301.42187
301.51779
301.60687
301.68527
301.75336
301.80976
301.85412
301.88586
301.9048
301.91086
301.90419
301.88515
301.85425
301.81214
301.75962
301.69757
301.62695
301.54874
301.46394
301.37356
301.27856
301.17985
301.0783
300.97471
300.86981
300.76425
300.65863
300.55345
300.44915
300.34613
300.24471
300.14515
300.04767
299.95246
299.85964
299.76932
299.68157
299.59644
299.51394
299.43409
299.35686
299.28223
299.21015
299.14058
299.07346
299.00871
298.94628
298.88609
298.82807
298.77214
298.71822
298.66625
298.61615
298.56788
298.52138
298.4766
298.43349
298.39203
298.35218
298.31392
298.27727
298.24229
298.2091
298.17789
298.149
298.12251
298.09836
298.07858
298.06328
298.04399
298.03832
298.09435
301.44659
300.93717
301.33506
301.36544
301.5536
301.66758
301.80233
301.91403
302.02322
302.1176
302.2011
302.27041
302.32571
302.36595
302.39097
302.40061
302.39507
302.37476
302.34033
302.29262
302.23263
302.16145
302.08028
301.99034
301.89289
301.78912
301.68022
301.56729
301.45134
301.33333
301.2141
301.09441
300.97492
300.8562
300.73876
300.62301
300.50929
300.39789
300.28905
300.18294
300.07969
299.97941
299.88216
299.78796
299.69684
299.60879
299.52376
299.44174
299.36265
299.28644
299.21304
299.14236
299.07433
299.00885
298.94585
298.88523
298.8269
298.77077
298.71677
298.66481
298.61481
298.56671
298.52044
298.47596
298.43322
298.39218
298.3528
298.31508
298.279
298.2446
298.21194
298.18122
298.15274
298.12654
298.10284
298.08346
298.06697
298.04808
298.04421
298.09035
301.96476
301.55923
301.94329
302.00448
302.19261
302.31892
302.45889
302.57232
302.67709
302.76323
302.83347
302.88524
302.91886
302.93382
302.93051
302.90937
302.87127
302.81727
302.74866
302.66685
302.57334
302.4697
302.35746
302.23813
302.11313
301.9838
301.85137
301.71693
301.58147
301.44585
301.31084
301.17705
301.04504
300.91526
300.78806
300.66375
300.54254
300.42463
300.31013
300.19912
300.09166
299.98776
299.88741
299.7906
299.69728
299.60737
299.52083
299.43755
299.35747
299.28047
299.20647
299.13537
299.06706
299.00144
298.9384
298.87785
298.81969
298.76382
298.71014
298.65856
298.60902
298.56142
298.51571
298.47182
298.4297
298.38933
298.35066
298.31367
298.27836
298.24473
298.21282
298.18278
298.15481
298.12895
298.10576
298.0867
298.06932
298.05132
298.0486
298.08462
302.54555
302.25334
302.61886
302.70611
302.89536
303.04299
303.17865
303.28587
303.37701
303.44432
303.49023
303.51301
303.51361
303.49239
303.45058
303.38952
303.31093
303.21664
303.1086
302.98879
302.85918
302.72163
302.57789
302.4296
302.27821
302.12502
301.97117
301.81764
301.66527
301.51475
301.36666
301.22147
301.07956
300.94121
300.80665
300.67603
300.54946
300.42699
300.30865
300.19444
300.08433
299.97826
299.87616
299.77795
299.68354
299.59282
299.5057
299.42205
299.34177
299.26474
299.19083
299.11993
299.05193
298.9867
298.92414
298.86414
298.80658
298.75136
298.69839
298.64756
298.59879
298.55201
298.50714
298.46412
298.42289
298.38342
298.34566
298.30961
298.27525
298.24257
298.21159
298.18242
298.15514
298.12975
298.10701
298.08816
298.07059
298.05374
298.05095
298.07727
303.19682
303.02176
303.36155
303.49729
303.7016
303.83007
303.95292
304.04112
304.10547
304.13982
304.14723
304.12726
304.08201
304.01309
303.92291
303.81386
303.68855
303.54955
303.39937
303.24037
303.07474
302.90444
302.73124
302.55664
302.38196
302.2083
302.03657
301.86753
301.70177
301.53977
301.38189
301.22841
301.07951
300.93532
300.7959
300.6613
300.53148
300.40641
300.28603
300.17025
300.05898
299.95209
299.84948
299.75101
299.65655
299.56598
299.47915
299.39593
299.31619
299.23979
299.16659
299.09648
299.02931
298.96498
298.90335
298.84431
298.78775
298.73356
298.68164
298.63188
298.58421
298.53853
298.49477
298.45287
298.41277
298.37441
298.33778
298.30283
298.26958
298.23799
298.2081
298.17999
298.15362
298.12895
298.1068
298.08802
298.06996
298.05374
298.05217
298.06912
303.92696
303.8891
304.23837
304.37535
304.55578
304.66942
304.76396
304.81485
304.8341
304.81747
304.76959
304.69195
304.58824
304.46158
304.31556
304.15356
303.97887
303.79449
303.60315
303.40728
303.20894
303.00993
302.81172
302.61552
302.42232
302.2329
302.04786
301.86764
301.69259
301.52291
301.35877
301.20022
301.04729
300.89995
300.75813
300.62176
300.49072
300.36488
300.24411
300.12826
300.01718
299.91071
299.8087
299.71099
299.61741
299.52782
299.44206
299.35998
299.28143
299.20625
299.13432
299.0655
298.99965
298.93664
298.87635
298.81866
298.76345
298.71062
298.66006
298.61166
298.56535
298.52104
298.47864
298.43809
298.39932
298.3623
298.32697
298.29331
298.26131
298.23096
298.20228
298.17532
298.15002
298.12637
298.10511
298.08649
298.06783
298.05171
298.05158
298.06041
304.75979
304.87908
305.18197
305.31459
305.46306
305.53534
305.57561
305.56529
305.51684
305.42966
305.31025
305.16243
304.99141
304.80164
304.59755
304.38298
304.1614
303.93575
303.70852
303.48173
303.25705
303.03579
302.81895
302.60731
302.40142
302.20169
302.00835
301.82158
301.64142
301.46787
301.30089
301.14036
300.98618
300.83818
300.6962
300.56007
300.42961
300.30461
300.18491
300.0703
299.96061
299.85563
299.75519
299.65912
299.56723
299.47935
299.39532
299.31499
299.23818
299.16476
299.09457
299.02748
298.96335
298.90205
298.84345
298.78744
298.7339
298.68271
298.63379
298.58702
298.54232
298.49959
298.45878
298.41979
298.38257
298.34706
298.31323
298.28103
298.25044
298.22145
298.19409
298.16838
298.14423
298.12173
298.10153
298.08342
298.06501
298.0493
298.0484
298.05065
305.68895
305.94006
306.18609
306.28356
306.36581
306.36675
306.32393
306.2271
306.0903
305.91703
305.71576
305.49227
305.25273
305.00215
304.74495
304.4847
304.22435
303.96621
303.71204
303.46321
303.22069
302.98516
302.75711
302.53679
302.32436
302.11983
301.92317
301.73425
301.55293
301.37902
301.21231
301.05258
300.8996
300.75313
300.61294
300.4788
300.35046
300.2277
300.11031
299.99807
299.89076
299.78818
299.69014
299.59645
299.50693
299.42139
299.33967
299.26161
299.18703
299.11581
299.04778
298.9828
298.92075
298.86149
298.8049
298.75086
298.69926
298.64999
298.60294
298.55803
298.51516
298.47424
298.4352
298.39797
298.36248
298.32868
298.29651
298.26594
298.23692
298.20946
298.18356
298.15921
298.13634
298.11509
298.09595
298.07846
298.06075
298.04592
298.0436
298.04093
306.68345
307.02799
307.18572
307.20877
307.18704
307.08168
306.92711
306.72284
306.48462
306.21955
305.93695
305.64321
305.34412
305.04395
304.7461
304.45307
304.16667
303.88817
303.61841
303.3579
303.10691
302.86553
302.63372
302.41133
302.19817
301.99397
301.79847
301.61137
301.43235
301.26111
301.09736
300.94078
300.79108
300.64798
300.5112
300.38048
300.25556
300.13619
300.02214
299.91318
299.80909
299.70966
299.61471
299.52402
299.43743
299.35475
299.27581
299.20045
299.12852
299.05986
298.99434
298.93181
298.87215
298.81522
298.76091
298.7091
298.65968
298.61255
298.5676
298.52475
298.48391
298.44499
298.40792
298.37262
298.33903
298.30709
298.27675
298.24797
298.2207
298.19493
298.17064
298.14781
298.12638
298.10651
298.08853
298.07185
298.05524
298.04172
298.03769
298.03111
307.91441
308.06804
308.08652
307.98049
307.81039
307.56856
307.28558
306.96955
306.63527
306.29065
305.94336
305.59829
305.25922
304.92863
304.60818
304.29889
304.00129
303.71559
303.44176
303.1796
302.92884
302.68911
302.46002
302.24116
302.03209
301.8324
301.64167
301.45949
301.28549
301.11929
300.96055
300.80892
300.66408
300.52574
300.39361
300.2674
300.14686
300.03175
299.92182
299.81685
299.71662
299.62093
299.52959
299.4424
299.35918
299.27977
299.204
299.13172
299.06277
298.997
298.93428
298.87449
298.81748
298.76314
298.71135
298.662
298.615
298.57022
298.52759
298.487
298.44838
298.41164
298.37671
298.34352
298.312
298.2821
298.25376
298.22693
298.20158
298.17768
298.1552
298.13409
298.11431
298.09602
298.07938
298.06377
298.04853
298.03634
298.03095
298.02234
308.74324
308.81503
308.65183
308.37946
308.05082
307.67991
307.28961
306.89036
306.49229
306.10084
305.72017
305.35251
304.99918
304.66075
304.33731
304.02863
303.73428
303.45372
303.18635
302.93157
302.68876
302.45735
302.23673
302.02635
301.82566
301.63419
301.45146
301.27705
301.11056
300.9516
300.79981
300.65487
300.51645
300.38426
300.25802
300.13747
300.02235
299.91242
299.80746
299.70726
299.61161
299.52031
299.43319
299.35006
299.27075
299.19511
299.12297
299.05418
298.98862
298.92613
298.86658
298.80986
298.75584
298.7044
298.65544
298.60885
298.56452
298.52237
298.4823
298.44422
298.40805
298.37372
298.34115
298.31028
298.28104
298.25337
298.22722
298.20255
298.17931
298.15747
298.13699
298.11783
298.09997
298.08351
298.06849
298.05435
298.04087
298.03037
298.02442
298.01341
308.94795
308.87615
308.55311
308.15315
307.72754
307.29236
306.86093
306.44004
306.034
305.6447
305.27298
304.9188
304.5818
304.26121
303.95622
303.66601
303.38973
303.12661
302.8759
302.6369
302.40894
302.19143
301.98384
301.78568
301.59648
301.41581
301.24326
301.07844
300.92099
300.77058
300.62688
300.48958
300.35841
300.23308
300.11334
299.99895
299.88966
299.78527
299.68559
299.59042
299.49958
299.41289
299.33018
299.25129
299.17605
299.10433
299.03597
298.97083
298.90879
298.84971
298.79347
298.73996
298.68905
298.64065
298.59464
298.55093
298.50942
298.47002
298.43264
298.39721
298.36363
298.33185
298.30178
298.27336
298.24653
298.22124
298.19743
298.17505
298.15406
298.13443
298.11612
298.09908
298.08331
298.06885
298.05568
298.04345
298.03216
298.02311
298.01682
298.00807
307.77698
307.86329
307.53319
307.21375
306.84159
306.46615
306.09054
305.72413
305.36894
305.02683
304.69819
304.38308
304.08121
303.79222
303.51569
303.25118
302.99819
302.75626
302.5249
302.30366
302.09209
301.88972
301.69618
301.51112
301.33419
301.16503
301.0033
300.8487
300.70091
300.55964
300.42462
300.29557
300.17227
300.05446
299.94193
299.83447
299.73187
299.63392
299.54041
299.45115
299.36599
299.28474
299.20727
299.1334
299.063
298.99594
298.93208
298.87129
298.81345
298.75844
298.70614
298.65646
298.60928
298.5645
298.52202
298.48176
298.44362
298.40751
298.37335
298.34107
298.31059
298.28184
298.25475
298.22926
298.20531
298.18285
298.16182
298.14217
298.12388
298.10688
298.09116
298.07667
298.06341
298.05137
298.04053
298.03073
298.02202
298.01492
298.00954
298.0039
304.53176
305.13117
305.28843
305.3391
305.24045
305.08132
304.87597
304.64691
304.40375
304.15437
303.90354
303.65458
303.40972
303.17044
302.9377
302.71213
302.49406
302.28368
302.08102
301.88605
301.69867
301.51871
301.34598
301.18024
301.02123
300.86873
300.72251
300.58234
300.44801
300.3193
300.19602
300.07796
299.96494
299.85679
299.75333
299.6544
299.55983
299.46946
299.38313
299.30069
299.222
299.14692
299.07531
299.00706
298.94204
298.88013
298.82122
298.76518
298.71192
298.66133
298.61331
298.56776
298.52458
298.48369
298.445
298.40842
298.37387
298.34127
298.31055
298.28162
298.25444
298.22891
298.205
298.18263
298.16175
298.14231
298.12426
298.10755
298.09215
298.07801
298.0651
298.05339
298.04286
298.0335
298.02527
298.01814
298.01212
298.0073
298.00372
298.00109
308.03506
308.1085
307.72438
307.00932
306.17577
305.35944
304.64987
304.05064
303.5428
303.10598
302.69804
302.33682
302.013
301.71824
301.43975
301.18104
300.93829
300.71741
300.51159
300.32564
300.15316
299.99971
299.85824
299.73119
299.61479
299.51261
299.4187
299.33438
299.25597
299.18576
299.12272
299.06453
299.01031
298.95921
298.91072
298.86441
298.82
298.77724
298.73599
298.69617
298.6577
298.62048
298.58453
298.54977
298.51615
298.48364
298.45221
298.42182
298.39242
298.36399
298.33647
298.3098
298.28393
298.25882
298.2344
298.21064
298.18739
298.16474
298.14238
298.12071
298.09888
298.07818
298.05636
298.03691
298.01426
297.99711
297.97232
297.95961
297.92848
297.92483
297.88796
297.89859
297.84575
297.8824
297.80564
297.88277
297.7835
297.90634
297.80567
297.94421
306.21942
305.57458
304.97777
304.21891
303.38259
302.64494
302.06655
301.64321
301.33871
301.10533
300.91614
300.75455
300.61062
300.47747
300.34978
300.23124
300.11322
300.00872
299.90143
299.80739
299.71118
299.62835
299.5448
299.47167
299.39924
299.33466
299.27122
299.21397
299.15794
299.10495
299.05494
299.00709
298.9607
298.91566
298.87196
298.82953
298.78835
298.74839
298.70961
298.67205
298.63565
298.60039
298.56625
298.53322
298.50124
298.47028
298.44033
298.41133
298.38326
298.35607
298.32973
298.30417
298.27934
298.2552
298.23168
298.20876
298.18628
298.16434
298.14262
298.12152
298.10023
298.07995
298.05857
298.03939
298.01713
298.00005
297.97564
297.96288
297.93229
297.92821
297.8923
297.90203
297.8502
297.88596
297.80934
297.88676
297.7866
297.91229
297.80596
297.95216
300.61605
300.57591
300.07046
299.32662
298.87846
298.80099
298.8399
298.9154
299.00539
299.09456
299.17528
299.24431
299.30109
299.34474
299.37513
299.39856
299.40509
299.40753
299.38442
299.36963
299.3364
299.31325
299.27467
299.24397
299.20462
299.1696
299.1308
299.09492
299.05626
299.01653
298.97694
298.93756
298.89809
298.85893
298.82033
298.78242
298.74529
298.70902
298.67362
298.63922
298.60572
298.57315
298.54157
298.51086
298.48106
298.45215
298.42412
298.39692
298.37052
298.34491
298.32004
298.29586
298.27231
298.24938
298.22695
298.20508
298.18351
298.16249
298.14149
298.12121
298.10042
298.08092
298.05978
298.0414
298.01906
298.00295
297.97799
297.96641
297.93444
297.93252
297.89405
297.90677
297.85161
297.89122
297.81107
297.89268
297.78738
297.91837
297.80643
297.95799
302.9763
303.0167
302.49174
301.26715
300.36327
300.13623
300.05615
300.00695
299.96649
299.90219
299.84289
299.78309
299.72659
299.66972
299.63695
299.56672
299.57138
299.47623
299.47923
299.38907
299.38998
299.30521
299.28769
299.2205
299.19358
299.13734
299.10934
299.05936
299.01946
298.97906
298.93906
298.90017
298.86219
298.82509
298.78883
298.75337
298.7187
298.6848
298.65174
298.61948
298.58798
298.55729
298.52741
298.49835
298.4701
298.44265
298.41597
298.39006
298.36488
298.3404
298.31659
298.29341
298.27079
298.24873
298.22709
298.20596
298.18505
298.16464
298.14415
298.12437
298.10393
298.08482
298.06388
298.04581
298.02351
298.00765
297.98254
297.97123
297.93929
297.93726
297.89883
297.91145
297.85651
297.89565
297.81446
297.89694
297.79044
297.92307
297.80807
297.96268
302.17687
301.83517
300.96737
299.76606
299.25196
299.11554
299.13675
299.14496
299.14959
299.14696
299.1494
299.148
299.14722
299.1434
299.13903
299.13181
299.12364
299.11247
299.1002
299.08958
299.06948
299.06243
299.04232
299.02743
299.00334
298.98185
298.95411
298.9284
298.90077
298.87265
298.844
298.81492
298.78553
298.75598
298.72639
298.69689
298.66758
298.63854
298.60991
298.5817
298.55393
298.52668
298.49998
298.47386
298.44833
298.4234
298.39907
298.37532
298.35214
298.32953
298.30744
298.28585
298.26469
298.24397
298.22357
298.20356
298.18365
298.16417
298.14448
298.12545
298.1056
298.08711
298.06654
298.04899
298.02681
298.01147
297.9862
297.97546
297.94288
297.94186
297.90234
297.9161
297.85838
297.90058
297.81697
297.90189
297.79206
297.92828
297.80907
297.96741
302.25546
301.925
300.99468
299.79083
299.15745
299.02418
299.06215
299.06034
299.05747
299.04927
299.04899
299.04418
299.04065
299.03426
299.02803
299.01952
299.01091
299.00001
298.98888
298.9746
298.96177
298.94368
298.92728
298.90798
298.88969
298.86938
298.84962
298.82813
298.80617
298.78358
298.76046
298.73689
298.71297
298.68879
298.66443
298.63995
298.61544
298.59096
298.56664
298.54247
298.51848
298.49477
298.47138
298.44834
298.42568
298.40342
298.38157
298.36013
298.33909
298.31846
298.29819
298.27828
298.25867
298.23938
298.22026
298.20143
298.18257
298.16403
298.14517
298.12689
298.10766
298.08973
298.06957
298.05245
298.03048
298.01548
297.99021
297.97978
297.94718
297.94638
297.90672
297.92057
297.86248
297.90521
297.81998
297.9064
297.79442
297.93315
297.81031
297.97176
301.92454
301.51171
300.4722
299.29665
298.80293
298.72072
298.74651
298.75454
298.76839
298.77085
298.77776
298.77957
298.78341
298.78454
298.78605
298.78568
298.78482
298.78282
298.7799
298.77627
298.77109
298.76577
298.75875
298.75098
298.74156
298.73122
298.7194
298.70669
298.69288
298.67816
298.66257
298.64618
298.62907
298.61134
298.59307
298.57435
298.55527
298.53592
298.51642
298.49679
298.47707
298.45737
298.43774
298.41822
298.39885
298.37967
298.36068
298.3419
298.32333
298.30498
298.28682
298.26886
298.25103
298.23336
298.21572
298.19823
298.18057
298.16311
298.14519
298.12774
298.10923
298.09192
298.07226
298.05561
298.03392
298.01926
297.99408
297.98392
297.95118
297.95076
297.90975
297.925
297.86592
297.90974
297.82288
297.91089
297.79647
297.93792
297.81146
297.97596
301.78433