/*--------------------------------*- C++ -*----------------------------------*\
  =========                 |
  \\      /  F ield         | OpenFOAM: The Open Source CFD Toolbox
   \\    /   O peration     | Website:  https://openfoam.org
    \\  /    A nd           | Version:  6
     \\/     M anipulation  |
\*---------------------------------------------------------------------------*/
FoamFile
{
    version     2.0;
    format      ascii;
    class       volVectorField;
    location    "950";
    object      U;
}
// * * * * * * * * * * * * * * * * * * * * * * * * * * * * * * * * * * * * * //

dimensions      [0 1 -1 0 0 0 0];

internalField   nonuniform List<vector> 
16000
(
(150.18168 1.2895655e-15 -17.299115)
(158.2877 -1.1512104e-15 -11.285273)
(155.20114 4.4517437e-18 -16.333469)
(156.62658 4.0264149e-18 -12.260404)
(155.43469 0 -15.250389)
(155.83967 -9.1974655e-16 -12.93408)
(155.25639 8.7052837e-16 -14.487747)
(155.29539 0 -13.276804)
(154.93636 -1.8984813e-19 -13.985919)
(154.82523 1.7955487e-19 -13.377067)
(154.55205 3.4012848e-19 -13.642486)
(154.37346 -6.5972829e-16 -13.325351)
(154.13019 6.2541399e-16 -13.375296)
(153.91969 4.9251389e-18 -13.183435)
(153.68322 5.6249231e-16 -13.132739)
(153.45596 -5.3381325e-16 -12.985629)
(153.21758 -1.0142845e-15 -12.886405)
(152.98026 9.6236118e-16 -12.74816)
(152.73757 0 -12.621815)
(152.49373 8.690957e-16 -12.477428)
(152.24709 -8.26231e-16 -12.331849)
(151.99932 -7.8646236e-16 -12.175309)
(151.75039 -7.2484989e-19 -12.013047)
(151.50125 -3.4350971e-19 -11.842046)
(151.2524 6.6622267e-16 -11.66387)
(151.00466 0 -11.47769)
(150.75876 6.1441648e-16 -11.284036)
(150.51551 -5.7520745e-16 -11.082814)
(150.27575 -5.4353107e-19 -10.874351)
(150.04034 -5.1790929e-19 -10.658863)
(149.81015 -5.0577772e-16 -10.436729)
(149.58607 4.8145021e-16 -10.208356)
(149.36899 -1.4370552e-17 -9.9742457)
(149.15977 -1.2848481e-17 -9.7349626)
(148.95928 8.3623181e-16 -9.4911463)
(148.76832 -1.5959598e-15 -9.2434975)
(148.58768 7.6088424e-16 -8.9927787)
(148.4181 1.135404e-17 -8.7398036)
(148.26025 1.0837136e-17 -8.4854283)
(148.11474 0 -8.2305422)
(147.9821 -1.2336402e-18 -7.976056)
(147.8628 1.1781018e-18 -7.7228892)
(147.75723 -5.7527975e-16 -7.4719588)
(147.66567 5.5158115e-16 -7.2241647)
(147.58835 5.2505846e-16 -6.9803781)
(147.52541 -5.0263766e-16 -6.7414287)
(147.4769 -9.3807398e-19 -6.5080936)
(147.44279 0 -6.2810859)
(147.423 4.3911322e-16 -6.0610467)
(147.41734 -4.1986288e-16 -5.848536)
(147.42559 0 -5.6440281)
(147.44744 0 -5.4479034)
(147.48251 2.2976785e-17 -5.260458)
(147.53035 -1.3736814e-18 -5.081896)
(147.59053 2.1049293e-17 -4.9123185)
(147.66257 0 -4.7517378)
(147.74597 0 -4.6000845)
(147.84006 0 -4.4572134)
(147.94418 0 -4.322895)
(148.05759 -3.6075551e-17 -4.1968537)
(148.17968 -3.2549618e-17 -4.0787146)
(148.30953 0 -3.9681529)
(148.44678 2.9938843e-17 -3.8645947)
(148.58986 0 -3.7678616)
(148.73935 -3.1019089e-17 -3.67689)
(148.89117 -4.2683694e-16 -3.5922948)
(149.04941 4.0692345e-16 -3.511392)
(149.20173 -3.0546362e-18 -3.4377747)
(149.36542 3.7589391e-16 -3.3631944)
(149.50267 -3.8149968e-16 -3.301757)
(149.67615 0 -3.2253917)
(149.76787 -3.3523138e-16 -3.1839434)
(149.98338 6.4596794e-16 -3.0795384)
(149.95688 -3.1176419e-16 -3.1003023)
(150.30593 4.693867e-18 -2.8925048)
(149.966 0 -3.136725)
(150.62675 -1.402547e-16 -2.5237026)
(149.63038 1.7199438e-17 -3.5197561)
(150.83941 1.3152975e-16 -1.6211021)
(149.15642 -3.2077051e-17 -4.7098046)
(149.82294 -1.2997432e-15 -18.971709)
(157.9437 1.1623279e-15 -12.691315)
(154.67694 -4.393077e-18 -17.973935)
(156.18647 1.0542224e-15 -13.67035)
(154.91495 -1.0045925e-15 -16.817039)
(155.35702 7.3320156e-18 -14.355259)
(154.73024 0 -15.986043)
(154.77748 0 -14.694028)
(154.39364 7.8199707e-16 -15.426847)
(154.27751 -7.6303451e-16 -14.773206)
(153.98791 7.0096007e-16 -15.033874)
(153.799 -6.7432637e-16 -14.687522)
(153.54245 0 -14.719673)
(153.32012 6.0183578e-16 -14.503002)
(153.07151 -5.752632e-16 -14.428772)
(152.83243 0 -14.256449)
(152.58264 0 -14.130642)
(152.3342 0 -13.965161)
(152.081 -9.2148086e-16 -13.809918)
(151.82715 8.8925832e-16 -13.635899)
(151.57128 0 -13.459231)
(151.31503 8.0435833e-16 -13.270694)
(151.05857 -7.5278029e-16 -13.075194)
(150.80289 -7.2798509e-16 -12.869989)
(150.54864 3.2132957e-17 -12.656548)
(150.29673 6.385635e-16 -12.434191)
(150.04798 6.4756992e-16 -12.203471)
(149.80331 -1.2050615e-15 -11.964412)
(149.56364 1.1389681e-15 -11.717421)
(149.3299 -5.2546806e-16 -11.462833)
(149.10302 5.1712556e-16 -11.201144)
(148.88394 -9.85502e-16 -10.932889)
(148.67357 9.5410261e-16 -10.658709)
(148.47279 -8.8168329e-16 -10.379313)
(148.28244 4.2696346e-16 -10.095487)
(148.10331 0 -9.8080818)
(147.93614 2.4297415e-17 -9.5180117)
(147.78157 -1.1577054e-17 -9.2262374)
(147.6402 -7.1849924e-16 -8.9337591)
(147.51252 7.1716537e-16 -8.6416025)
(147.39893 0 -8.3508072)
(147.29976 -6.1514961e-16 -8.0624095)
(147.21522 3.6602545e-17 -7.7774331)
(147.14546 1.1215498e-15 -7.4968698)
(147.09051 -5.3552605e-16 -7.2216704)
(147.05035 -5.1160168e-16 -6.9527292)
(147.02483 5.192498e-16 -6.6908743)
(147.01379 -4.0858158e-16 -6.4368551)
(147.01694 8.3666101e-16 -6.191337)
(147.03397 -4.2648174e-16 -5.9548902)
(147.0645 0 -5.7279891)
(147.1081 0 -5.5110051)
(147.16429 -2.3287379e-17 -5.304207)
(147.23253 -7.1286167e-16 -5.1077752)
(147.31226 6.6068265e-16 -4.9217817)
(147.40297 6.1170781e-16 -4.7461908)
(147.5041 -6.6467898e-20 -4.5808832)
(147.615 -6.7252472e-16 -4.4256632)
(147.73498 0 -4.2802517)
(147.86332 3.4245992e-17 -4.1443014)
(147.99936 -3.2821297e-17 -4.0173953)
(148.14233 -6.2868331e-17 -3.8990954)
(148.29165 -4.5171389e-16 -3.7888508)
(148.44634 9.5710165e-20 -3.6862215)
(148.60605 4.1523159e-16 -3.590431)
(148.7687 0 -3.5013234)
(148.935 -4.0745129e-16 -3.4174294)
(149.09911 3.9114291e-16 -3.3398876)
(149.26685 -4.6938662e-17 -3.2646604)
(149.42073 3.8314844e-16 -3.1980127)
(149.58762 -6.9309519e-16 -3.1255555)
(149.71054 3.7491818e-16 -3.0743787)
(149.89195 3.2040746e-16 -2.9859062)
(149.93844 -1.2289446e-19 -2.9783678)
(150.2008 -3.2015199e-16 -2.8074816)
(150.00448 2.6853728e-16 -2.983172)
(150.4981 -2.715864e-16 -2.4733279)
(149.72652 -1.6729668e-17 -3.3251335)
(150.6965 1.6052846e-17 -1.6179732)
(149.30477 3.1263869e-17 -4.4213573)
(149.30423 1.3145845e-15 -20.674437)
(157.41162 -8.56297e-21 -14.156797)
(154.01186 -1.1453285e-15 -19.617077)
(155.59503 1.0609011e-15 -15.149806)
(154.25228 7.9318913e-18 -18.386325)
(154.71754 9.4905291e-16 -15.837224)
(154.05449 -1.811922e-15 -17.492643)
(154.10142 1.3007026e-17 -16.158737)
(153.69632 8.1038903e-16 -16.881437)
(153.57029 1.1981189e-17 -16.204542)
(153.26525 -7.3850328e-16 -16.441047)
(153.06329 6.8871514e-16 -16.074899)
(152.79323 0 -16.078528)
(152.55749 0 -15.839511)
(152.2962 -5.8809869e-16 -15.735335)
(152.04442 5.5796349e-16 -15.536747)
(151.78281 0 -15.379727)
(151.52288 1.5742944e-17 -15.184292)
(151.25912 -1.4937856e-17 -14.996076)
(150.99544 8.8097386e-16 -14.788921)
(150.73077 4.4613525e-19 -14.577154)
(150.46677 -7.9601696e-16 -14.352732)
(150.2038 7.6979679e-16 -14.119921)
(149.94294 -7.4361584e-16 -13.876453)
(149.68498 -7.3009865e-16 -13.623639)
(149.43092 6.9457781e-16 -13.361028)
(149.18172 2.0089642e-17 -13.089207)
(148.93838 3.8201656e-17 -12.808362)
(148.7019 3.6382187e-17 -12.519017)
(148.4733 -5.7145969e-16 -12.221664)
(148.25355 4.9469825e-16 -11.916955)
(148.04362 5.3452315e-16 -11.605595)
(147.84443 -4.7923244e-16 -11.288399)
(147.65686 -4.5697375e-16 -10.966252)
(147.4817 8.7111691e-16 -10.640119)
(147.31968 -8.3057716e-16 -10.311031)
(147.17144 -3.7140638e-16 -9.9800698)
(147.03754 7.5528687e-16 -9.6483614)
(146.91841 0 -9.3170594)
(146.81441 -6.8743998e-16 -8.9873278)
(146.72577 6.1479065e-16 -8.6603311)
(146.65262 0 -8.3372122)
(146.59499 -3.7315131e-17 -8.0190837)
(146.55282 0 -7.7070069)
(146.52593 6.8074666e-17 -7.4019843)
(146.5141 0 -7.1049421)
(146.51699 -3.1002982e-17 -6.8167231)
(146.53421 4.9319706e-20 -6.5380752)
(146.56532 1.1317144e-16 -6.2696467)
(146.60983 0 -6.0119787)
(146.66719 0 -5.7655041)
(146.73685 0 -5.5305444)
(146.8182 0 -5.3073105)
(146.91063 0 -5.0959094)
(147.01346 8.6200279e-17 -4.8963546)
(147.1261 4.1191228e-17 -4.7085483)
(147.24797 6.303913e-16 -4.5322888)
(147.37842 -6.0309079e-16 -4.3673064)
(147.51674 -7.2123906e-17 -4.2132526)
(147.6622 0 -4.0697031)
(147.81415 6.6019516e-17 -3.9361749)
(147.9719 5.6875907e-16 -3.8121427)
(148.13481 -5.446136e-16 -3.6970184)
(148.30213 0 -3.590218)
(148.47325 -5.5512606e-17 -3.4910403)
(148.64688 -1.0633729e-16 -3.3989596)
(148.82246 4.074925e-16 -3.3130112)
(148.99692 -3.9068744e-16 -3.2331284)
(149.17117 4.6812856e-17 -3.1573412)
(149.33698 -3.5917507e-16 -3.0876887)
(149.50428 9.9103687e-20 -3.0176696)
(149.64625 2.8952617e-16 -2.9592323)
(149.81192 0 -2.8830407)
(149.89744 0 -2.8542143)
(150.11236 1.8320595e-17 -2.7179485)
(150.01061 1.7645261e-17 -2.8263696)
(150.38647 2.9654948e-17 -2.4138749)
(149.78245 -1.1451777e-16 -3.1103055)
(150.58229 1.1409042e-16 -1.6014871)
(149.33771 -6.0400905e-17 -4.1931604)
(148.631 3.1786296e-17 -22.417119)
(156.70131 9.4728929e-18 -15.65048)
(153.19469 1.183321e-15 -21.294361)
(154.85117 4.6885496e-19 -16.658827)
(153.4351 -1.0341506e-15 -19.982891)
(153.92278 -9.7461821e-16 -17.346569)
(153.22207 9.2304222e-16 -19.021025)
(153.26711 -1.3626212e-17 -17.646826)
(152.8398 8.3964995e-16 -18.353413)
(152.70235 -7.5786792e-16 -17.653823)
(152.38107 -7.4187102e-16 -17.86125)
(152.16492 1.3839278e-15 -17.47421)
(151.88068 -6.6651554e-16 -17.44539)
(151.63083 1.9780453e-17 -17.181689)
(151.35644 0 -17.044089)
(151.09171 0 -16.816169)
(150.81826 -5.4119978e-16 -16.624499)
(150.5471 4.9775782e-16 -16.395648)
(150.27329 0 -16.17089)
(150.00058 9.5746207e-16 -15.926923)
(149.72823 -9.0978577e-16 -15.676349)
(149.45794 4.4890236e-20 -15.412263)
(149.19025 0 -15.138366)
(148.92636 -4.7494075e-17 -14.852858)
(148.6672 -7.2253312e-16 -14.556946)
(148.4139 6.4426094e-16 -14.250427)
(148.1675 -6.9537059e-16 -13.933966)
(147.92912 5.8389765e-16 -13.607943)
(147.69982 -3.704402e-17 -13.273038)
(147.48068 -3.5339312e-17 -12.929937)
(147.27269 -5.0456713e-16 -12.579478)
(147.07684 4.8045347e-16 -12.222573)
(146.89402 0 -11.860236)
(146.72505 0 -11.493558)
(146.57065 0 -11.123704)
(146.43145 -5.2886463e-17 -10.751892)
(146.30794 -5.0339231e-17 -10.379389)
(146.20053 8.1659398e-16 -10.007486)
(146.10948 -9.1497218e-17 -9.6374831)
(146.03494 -6.5493637e-16 -9.2706765)
(145.97692 4.1629057e-17 -8.908337)
(145.93534 6.357772e-16 -8.5516933)
(145.91 -5.3059928e-16 -8.2019203)
(145.90059 -5.7868936e-16 -7.860119)
(145.90672 -6.9018749e-17 -7.5273089)
(145.92792 9.8803595e-16 -7.2044127)
(145.96366 -3.7716352e-16 -6.8922506)
(146.01333 -5.9989625e-17 -6.5915314)
(146.07631 4.0107907e-16 -6.3028491)
(146.15193 -5.4710511e-16 -6.0266791)
(146.23951 -4.1788068e-16 -5.7633788)
(146.33833 3.9911396e-16 -5.5131876)
(146.44772 0 -5.2762303)
(146.56694 7.281689e-16 -5.0525205)
(146.69528 -7.8269199e-16 -4.8419777)
(146.83206 0 -4.6444218)
(146.97666 6.352534e-16 -4.4595666)
(147.12845 -9.8675153e-16 -4.287047)
(147.28673 5.0794537e-16 -4.1264363)
(147.45078 5.549348e-16 -3.9772305)
(147.61998 -1.3281167e-16 -3.8388695)
(147.79366 -5.0758209e-16 -3.7107517)
(147.97124 -4.8538389e-16 -3.5922264)
(148.15207 5.8056494e-16 -3.4826202)
(148.33551 -4.4430162e-16 -3.3812077)
(148.52061 1.0640378e-16 -3.2873022)
(148.70647 4.0704776e-16 -3.2000663)
(148.89107 -3.8957972e-16 -3.1189664)
(149.07356 5.5971671e-16 -3.0427769)
(149.24939 0 -2.97179)
(149.42126 0 -2.9028864)
(149.57639 0 -2.8407935)
(149.73715 0 -2.7711544)
(149.84939 1.5085266e-16 -2.7287624)
(150.03177 -2.8930137e-16 -2.6189428)
(150.00135 3.4741123e-16 -2.6742143)
(150.29386 -3.6654307e-16 -2.3430368)
(149.8155 4.9736599e-16 -2.9004405)
(150.485 -3.7329846e-16 -1.5703419)
(149.36434 -9.8484828e-20 -3.9248672)
(147.80626 1.3766587e-15 -24.192487)
(155.79557 5.249594e-19 -17.173604)
(152.21928 -1.2213473e-15 -22.99538)
(153.94528 0 -18.203219)
(152.45691 -1.6460502e-17 -21.596842)
(152.96152 -3.1041152e-17 -18.887467)
(152.22447 0 -20.563021)
(152.26313 -8.6147143e-16 -19.159074)
(151.81404 8.4210039e-16 -19.836061)
(151.66206 -8.2276933e-16 -19.118618)
(151.32422 7.5584341e-16 -19.288037)
(151.09193 -3.8898187e-20 -18.880432)
(150.79291 0 -18.813054)
(150.52785 6.24965e-16 -18.522325)
(150.23993 -6.1190891e-16 -18.346429)
(149.96184 0 -18.085499)
(149.67657 5.5193566e-16 -17.854634)
(149.39444 -5.5676658e-16 -17.588074)
(149.11121 4.9811308e-16 -17.322208)
(148.83046 4.4403242e-16 -17.03686)
(148.55182 -8.7136684e-16 -16.742842)
(148.27702 -2.6707866e-17 -16.434443)
(148.00684 5.0898159e-17 -16.114837)
(147.74257 -9.7180412e-20 -15.78272)
(147.48533 0 -15.439247)
(147.23632 -8.7920924e-20 -15.084498)
(146.99673 0 -14.719265)
(146.76772 3.9692934e-17 -14.344165)
(146.55044 0 -13.960079)
(146.34597 3.5904709e-17 -13.567928)
(146.15532 0 -13.168781)
(145.97943 0 -12.763786)
(145.81913 6.214424e-17 -12.354192)
(145.67513 0 -11.941316)
(145.54802 -4.5081482e-16 -11.52654)
(145.43827 4.8308103e-16 -11.111285)
(145.34619 0 -10.697001)
(145.27194 -4.8723817e-17 -10.285136)
(145.21558 -6.508064e-16 -9.8771289)
(145.17698 6.2029654e-16 -9.4743836)
(145.15592 -6.7589497e-16 -9.0782507)
(145.15203 7.2502104e-16 -8.6900125)
(145.16485 -7.6819234e-16 -8.3108675)
(145.19382 5.8608642e-16 -7.9419156)
(145.23827 -1.3984049e-16 -7.5841493)
(145.29751 6.6623487e-17 -7.2384435)
(145.37077 -1.2712351e-16 -6.9055502)
(145.45725 1.2140953e-16 -6.5860945)
(145.55612 -4.6314799e-16 -6.2805735)
(145.66656 9.944709e-16 -5.9893562)
(145.78774 -5.7684608e-20 -5.7126868)
(145.91884 -5.0338278e-16 -5.450688)
(146.05906 1.9224663e-16 -5.203367)
(146.20763 0 -4.9706216)
(146.36377 0 -4.7522495)
(146.52675 0 -4.5479671)
(146.69593 -6.3891235e-16 -4.3573909)
(146.8707 4.5784934e-16 -4.1800527)
(147.05038 1.4572619e-16 -4.0154318)
(147.2343 -1.3927263e-16 -3.862943)
(147.42184 1.3302144e-16 -3.7219451)
(147.61241 -7.6275218e-16 -3.5917622)
(147.80546 9.7193666e-16 -3.4716777)
(148.00043 -1.0450404e-15 -3.3609477)
(148.19674 9.9892527e-16 -3.2587974)
(148.39361 -2.1235796e-16 -3.1644494)
(148.59013 -6.0878851e-16 -3.0770717)
(148.78472 0 -2.995925)
(148.97594 -1.8555269e-16 -2.9200312)
(149.16079 1.7752539e-16 -2.8489461)
(149.33885 0 -2.7810112)
(149.50376 0 -2.7174376)
(149.66431 -1.5558311e-16 -2.6519448)
(149.79368 -2.9793545e-16 -2.6000664)
(149.95691 -2.8524707e-16 -2.5107693)
(149.97778 6.8379151e-17 -2.5235575)
(150.20953 -6.5544728e-17 -2.2589306)
(149.82849 2.5167177e-16 -2.6921843)
(150.39573 -6.0158478e-17 -1.5302021)
(149.35601 2.2731722e-16 -3.6745765)
(146.81858 1.3750445e-15 -25.998278)
(154.70894 -1.2551981e-15 -18.728241)
(151.07147 1.8802045e-17 -24.720911)
(152.86309 0 -19.782046)
(151.3041 1.6720378e-17 -23.226043)
(151.82051 1.0420772e-15 -20.456617)
(151.04873 -9.2703113e-16 -22.114526)
(151.07698 -5.6594284e-17 -20.689664)
(150.6067 0 -21.323436)
(150.43758 -8.1266804e-16 -20.591087)
(150.08305 7.1810812e-17 -20.713532)
(149.83315 2.2381499e-17 -20.284024)
(149.51903 6.4896123e-16 -20.171739)
(149.23814 0 -19.850321)
(148.93663 6.2367352e-16 -19.630767)
(148.64529 -1.146721e-15 -19.332107)
(148.34871 1.1240392e-15 -19.05687)
(148.05647 -5.0031482e-16 -18.74744)
(147.76511 0 -18.435221)
(147.47803 3.0086491e-17 -18.10318)
(147.19526 -9.1622824e-16 -17.760437)
(146.91862 1.7414613e-15 -17.402449)
(146.64908 -1.707449e-15 -17.031966)
(146.3881 8.8548903e-16 -16.648184)
(146.13692 -7.4898509e-16 -16.25229)
(145.89687 7.1202243e-16 -15.844678)
(145.66922 0 -15.426337)
(145.4552 -6.045563e-16 -14.998163)
(145.25596 6.1356372e-16 -14.56129)
(145.07257 7.3100689e-17 -14.116923)
(144.906 6.9584964e-17 -13.666397)
(144.75708 -5.9570867e-16 -13.211135)
(144.62651 9.4515256e-16 -12.752644)
(144.51484 1.3018941e-19 -12.292484)
(144.42246 -9.142775e-16 -11.832262)
(144.34959 5.4434117e-16 -11.373598)
(144.29628 0 -10.918112)
(144.26243 3.9519223e-16 -10.467394)
(144.24778 -4.707099e-16 -10.022987)
(144.25192 0 -9.5863667)
(144.2743 -6.8386891e-16 -9.1589232)
(144.31425 8.1648323e-17 -8.7419433)
(144.37102 5.4347781e-16 -8.3365991)
(144.44376 0 -7.943937)
(144.53154 1.4108823e-16 -7.5648697)
(144.63341 6.7307276e-16 -7.2001716)
(144.74839 -5.1345574e-16 -6.8504765)
(144.87547 1.2108582e-19 -6.5162778)
(145.01366 -4.6695276e-16 -6.1979318)
(145.16199 8.9086393e-16 -5.8956607)
(145.3195 -8.3442904e-20 -5.6095598)
(145.48529 -1.0134178e-16 -5.3396035)
(145.65849 -1.9330049e-16 -5.0856546)
(145.83826 1.8455291e-16 -4.8474716)
(146.02382 1.7609445e-16 -4.6247183)
(146.21443 6.7189171e-16 -4.4169835)
(146.40942 -6.4142455e-16 -4.2237755)
(146.60823 0 -4.0445257)
(146.81023 0 -3.8786082)
(147.01478 1.3944346e-16 -3.7253558)
(147.22133 5.3254362e-16 -3.5840475)
(147.42934 -2.5438126e-16 -3.4539357)
(147.63831 -4.855103e-16 -3.3342411)
(147.84778 -2.3173852e-16 -3.224159)
(148.05723 2.2145165e-16 -3.1228637)
(148.26605 4.2292049e-16 -3.029516)
(148.47337 8.0783837e-16 -2.9432548)
(148.67788 -3.8592361e-16 -2.8632398)
(148.87802 3.6856799e-16 -2.7885493)
(149.07138 -7.044494e-16 -2.7184389)
(149.25636 -3.3649313e-16 -2.6517548)
(149.42935 3.2169479e-16 -2.5882112)
(149.59263 1.5370937e-16 -2.5253134)
(149.73421 1.4695958e-16 -2.4678099)
(149.88472 -2.8104814e-16 -2.3926697)
(149.94148 1.3443936e-16 -2.3737099)
(150.13012 1.2861624e-16 -2.165652)
(149.83125 -4.928533e-16 -2.4871006)
(150.3142 2.944898e-16 -1.4796476)
(149.33368 0 -3.4151951)
(145.65057 2.2155367e-17 -27.835543)
(153.51205 -1.2373124e-15 -20.314027)
(149.7407 3.7722244e-17 -26.459241)
(151.59278 1.1470202e-15 -21.386306)
(149.96601 -1.0895566e-15 -24.858049)
(150.48798 1.0598753e-15 -22.044412)
(149.68367 -6.086531e-17 -23.664282)
(149.69691 2.8766222e-17 -22.228064)
(149.20616 0 -22.804577)
(149.01708 8.2708122e-16 -22.05984)
(148.64568 -8.8145581e-16 -22.126263)
(148.37669 0 -21.672669)
(148.04714 7.4888182e-16 -21.508875)
(147.74992 -6.6830282e-16 -21.152202)
(147.43493 6.3456846e-16 -20.883108)
(147.13073 -6.3954817e-16 -20.541111)
(146.82372 5.0030049e-16 -20.215607)
(146.52272 -1.0857904e-15 -19.857284)
(146.22508 5.1551093e-16 -19.492676)
(145.93411 -4.9004511e-16 -19.107818)
(145.65021 5.2364706e-16 -18.71031)
(145.3753 -5.5379823e-17 -18.296748)
(145.11061 -5.2640848e-17 -17.869582)
(144.8577 -4.9916526e-17 -17.428538)
(144.61797 0 -16.974923)
(144.39284 4.5136434e-17 -16.509501)
(144.18362 6.8782898e-16 -16.033527)
(143.99155 -7.3567405e-16 -15.548235)
(143.81775 5.4454586e-16 -15.055071)
(143.66322 -1.4783203e-16 -14.555566)
(143.52879 -6.3371381e-16 -14.051363)
(143.41511 -1.5287968e-19 -13.544183)
(143.32269 -5.1045071e-16 -13.035807)
(143.2518 4.8579334e-16 -12.528046)
(143.20254 1.1576008e-16 -12.022722)
(143.17483 -1.099927e-16 -11.521633)
(143.16838 0 -11.02654)
(143.18273 -3.9936365e-16 -10.539132)
(143.21726 4.753573e-16 -10.061011)
(143.27121 -7.245842e-16 -9.5936678)
(143.34368 8.6297918e-16 -9.1384719)
(143.43367 -1.6428643e-16 -8.696652)
(143.54009 7.830904e-16 -8.2692908)
(143.66182 -1.3435105e-15 -7.8573172)
(143.79766 -1.4225198e-16 -7.4615029)
(143.94642 4.068484e-16 -7.082464)
(144.1069 0 -6.7206623)
(144.27794 1.2336664e-16 -6.3764108)
(144.45838 0 -6.0498811)
(144.64715 -2.2400355e-16 -5.7411106)
(144.84319 0 -5.4500133)
(145.04554 -4.0711046e-16 -5.1763883)
(145.25329 1.9416775e-16 -4.9199317)
(145.4656 -3.7019547e-16 -4.6802458)
(145.68169 -1.7646955e-16 -4.4568498)
(145.90084 0 -4.2491932)
(146.1224 0 -4.0566709)
(146.34584 0 -3.8786096)
(146.57061 -5.8437714e-16 -3.7142838)
(146.79616 2.7901184e-16 -3.5629413)
(147.02196 1.6604455e-19 -3.4237888)
(147.24759 5.0759668e-16 -3.2960114)
(147.4726 0 -3.1787743)
(147.6966 6.9291621e-16 -3.0712213)
(147.91917 -6.6128022e-16 -2.9724821)
(148.13982 -2.1016459e-16 -2.8816725)
(148.3578 -2.0054627e-16 -2.7978961)
(148.572 7.660669e-16 -2.7202557)
(148.78087 -3.6559327e-16 -2.6478238)
(148.9823 -5.2318509e-16 -2.5797343)
(149.17425 2.191576e-19 -2.5149522)
(149.35414 2.1237813e-19 -2.452685)
(149.52127 1.5170322e-15 -2.3918069)
(149.67132 -5.7944278e-16 -2.3317191)
(149.81534 5.5314458e-16 -2.2657688)
(149.8983 0 -2.2237802)
(150.05248 5.0454531e-16 -2.0633409)
(149.82406 -4.8278922e-16 -2.2857904)
(150.23373 0 -1.419574)
(149.29742 2.1401102e-16 -3.1645124)
(144.293 1.4153766e-15 -29.702168)
(152.12866 -2.597148e-15 -21.922178)
(148.22195 -3.9459548e-17 -28.201787)
(150.12695 -7.0357688e-19 -23.01139)
(148.43499 1.106981e-15 -26.485785)
(148.95476 -1.0457705e-15 -23.644215)
(148.1197 2.011165e-15 -25.204698)
(148.11239 -9.3668947e-16 -23.765696)
(147.60136 0 -24.270623)
(147.38906 0 -23.514361)
(147.0002 9.9608817e-17 -23.515422)
(146.71051 -7.5559428e-16 -23.033882)
(146.36511 7.6087946e-16 -22.811352)
(146.05121 0 -22.413363)
(145.72307 0 -22.087922)
(145.40684 6.119265e-16 -21.695676)
(145.09085 -5.0798734e-16 -21.312947)
(144.78321 0 -20.898556)
(144.48207 5.2365707e-16 -20.474495)
(144.19068 -4.9705158e-16 -20.029707)
(143.90986 -5.8960321e-17 -19.570518)
(143.64162 5.6017248e-17 -19.094628)
(143.38743 5.3229386e-17 -18.604342)
(143.14896 0 -18.099955)
(142.92771 0 -17.582998)
(142.72512 0 -17.054673)
(142.54252 0 -16.51658)
(142.38108 0 -15.970349)
(142.2418 7.0827592e-16 -15.417794)
(142.1255 -5.2392931e-16 -14.860809)
(142.03278 0 -14.301376)
(141.96402 6.0952525e-16 -13.741526)
(141.91938 8.8716129e-20 -13.183309)
(141.8988 6.3550227e-20 -12.628771)
(141.90199 -9.3328291e-16 -12.079912)
(141.92845 4.4422604e-16 -11.53867)
(141.97747 5.2865816e-16 -11.006887)
(142.04818 -4.0251776e-16 -10.486287)
(142.13954 -3.8319006e-16 -9.9784579)
(142.25039 -3.6480234e-16 -9.4848326)
(142.37945 -1.7348289e-16 -9.0066794)
(142.52538 6.6178126e-16 -8.545093)
(142.68677 -1.5767404e-16 -8.1009898)
(142.8622 -4.5025811e-16 -7.6751101)
(143.05024 1.4300809e-16 -7.2680191)
(143.24947 6.8111053e-16 -6.8801132)
(143.45854 -2.596522e-16 -6.5116294)
(143.67613 2.4731706e-16 -6.1626538)
(143.901 -2.3557663e-16 -5.8331343)
(144.13197 2.2442806e-16 -5.5228918)
(144.36797 0 -5.2316326)
(144.60801 -1.4790009e-19 -4.9589616)
(144.85117 -1.9428998e-16 -4.7043936)
(145.09664 1.8518692e-16 -4.4673652)
(145.34369 -3.5322795e-16 -4.247246)
(145.59164 0 -4.0433473)
(145.8399 -3.2092155e-16 -3.8549468)
(146.08799 3.0570605e-16 -3.6812672)
(146.33549 -1.1664334e-15 -3.5214984)
(146.58189 5.562176e-16 -3.3748037)
(146.82678 5.3001523e-16 -3.2403272)
(147.06978 -2.5275148e-16 -3.1171957)
(147.31057 4.8176241e-16 -3.0045282)
(147.54881 -9.1877465e-16 -2.9014281)
(147.78419 -4.378725e-16 -2.8069906)
(148.01632 8.3522755e-16 -2.7202993)
(148.2446 1.0014576e-19 -2.6404299)
(148.46805 3.7959662e-16 -2.5664494)
(148.68527 3.6186628e-16 -2.4974144)
(148.89429 0 -2.4323957)
(149.09298 9.86474e-16 -2.3703556)
(149.27898 -1.881681e-15 -2.3104132)
(149.45053 1.0572553e-19 -2.2516185)
(149.60643 8.552796e-16 -2.1916245)
(149.74702 -1.3594154e-15 -2.1315134)
(149.84881 2.24201e-19 -2.0735498)
(149.97666 2.4738908e-16 -1.9515444)
(149.8099 -4.720352e-16 -2.0881814)
(150.1552 1.1258736e-15 -1.3542931)
(149.26183 -2.078396e-16 -2.9151633)
(142.73713 0 -31.59552)
(150.54584 -1.3213097e-15 -23.551311)
(146.50231 1.263717e-15 -29.948033)
(148.45178 3.714656e-17 -24.655504)
(146.69731 1.1607965e-15 -28.105365)
(147.20603 -3.2456397e-17 -25.251166)
(146.34192 -1.0059182e-15 -26.729548)
(146.30809 8.9303013e-16 -25.29429)
(145.77676 -9.0147983e-16 -25.712683)
(145.53793 -9.079564e-16 -24.943315)
(145.131 -3.9154435e-19 -24.869002)
(144.81924 7.6682983e-16 -24.353437)
(144.45783 1.3896763e-19 -24.063902)
(144.12744 -6.8985801e-16 -23.616691)
(143.78712 6.538839e-16 -23.226795)
(143.46056 7.7703197e-17 -22.775815)
(143.13806 6.6277223e-16 -22.327584)
(142.82708 -5.5868386e-16 -21.848605)
(142.52659 -5.3066507e-16 -21.356843)
(142.23982 4.4044075e-16 -20.843938)
(141.96797 -4.7838974e-16 -20.315239)
(141.71318 4.5406713e-16 -19.769527)
(141.47708 -4.3151487e-16 -19.20914)
(141.26142 3.0708814e-16 -18.634992)
(141.06773 0 -18.048971)
(140.89742 7.4007348e-16 -17.452772)
(140.7517 -7.0303095e-16 -16.848428)
(140.63157 -6.6840562e-16 -16.238019)
(140.53778 -1.7247275e-19 -15.623771)
(140.47085 6.0382751e-16 -15.007965)
(140.43101 5.7421122e-16 -14.392925)
(140.41824 -5.4591834e-16 -13.780978)
(140.43226 1.2996736e-16 -13.174412)
(140.47252 -4.9380993e-16 -12.575455)
(140.53823 8.2211432e-16 -11.986225)
(140.62839 -4.4685008e-16 -11.408719)
(140.74182 -7.4408e-16 -10.844775)
(140.87714 4.0455257e-16 -10.296059)
(141.03289 0 -9.7640491)
(141.20746 -1.8335269e-16 -9.2500218)
(141.3992 -6.9738823e-16 -8.7550518)
(141.60642 6.6403371e-16 -8.2800085)
(141.82742 7.8991384e-16 -7.8255609)
(142.06051 -7.524766e-16 -7.3921844)
(142.30408 -2.8625769e-16 -6.9801705)
(142.55654 6.8246334e-16 -6.5896399)
(142.8164 2.5971205e-16 -6.220556)
(143.08227 2.4760502e-16 -5.8727396)
(143.35285 2.3574244e-16 -5.545884)
(143.62696 -1.7365835e-19 -5.2395706)
(143.90351 -6.4180911e-16 -4.9532831)
(144.18155 6.1108233e-16 -4.6864217)
(144.46022 3.8796056e-16 -4.4383158)
(144.73876 -7.397732e-16 -4.208236)
(145.01651 3.5221321e-16 -3.9954048)
(145.29289 -6.7114985e-16 -3.7990051)
(145.56739 1.5987397e-15 -3.6181984)
(145.83962 -3.0484075e-16 -3.4521176)
(146.10925 -2.9032705e-16 -3.2998784)
(146.37591 -2.7652643e-16 -3.1605706)
(146.63926 0 -3.033287)
(146.89902 -7.5322914e-16 -2.9171092)
(147.15495 -4.7817608e-16 -2.8111215)
(147.40681 1.3674192e-15 -2.7143997)
(147.65438 4.3412297e-16 -2.6260164)
(147.89737 -4.1360074e-16 -2.5450366)
(148.13532 -1.5760029e-15 -2.4705181)
(148.36741 -3.7511197e-16 -2.4015092)
(148.59236 3.576776e-16 -2.3370546)
(148.80837 0 -2.276185)
(149.0133 9.7293536e-16 -2.2178581)
(149.20473 -6.1798502e-16 -2.1612069)
(149.38071 8.8277924e-16 -2.1049812)
(149.54067 -8.4068644e-16 -2.0469954)
(149.68021 1.864089e-19 -1.9906322)
(149.79476 5.0864954e-16 -1.9234557)
(149.90229 2.4216302e-16 -1.8313898)
(149.79029 0 -1.8957304)
(150.07696 -2.196903e-16 -1.2855042)
(149.22323 0 -2.6710951)
(140.96724 -1.4802331e-15 -33.514039)
(148.74604 -4.1972278e-17 -25.199117)
(144.5644 -4.0193544e-17 -31.692613)
(146.54852 -3.7678258e-17 -26.314409)
(144.73485 -3.5676742e-17 -29.709606)
(145.22281 -1.0808688e-15 -26.857361)
(144.33152 1.0858375e-15 -28.229739)
(144.26509 6.0378643e-17 -26.802318)
(143.7134 9.7331155e-16 -27.118771)
(143.44507 -7.5840945e-16 -26.331898)
(143.01967 -1.0267614e-16 -26.171437)
(142.6851 8.2719716e-16 -25.613306)
(142.30815 -7.8320932e-16 -25.247221)
(141.96239 0 -24.740834)
(141.61197 0 -24.276845)
(141.27811 -7.0716387e-16 -23.756916)
(140.95311 4.468678e-16 -23.233412)
(140.64387 0 -22.679904)
(140.35016 -6.0390485e-16 -22.110964)
(140.07521 1.0180551e-15 -21.52071)
(139.82055 2.7176984e-19 -20.913863)
(139.58842 -8.0244346e-16 -20.290275)
(139.38054 4.3531404e-16 -19.652521)
(139.19865 -7.2380937e-16 -19.0022)
(139.04419 8.8327982e-16 -18.341679)
(138.9184 -9.3364405e-17 -17.673223)
(138.82224 0 -16.999363)
(138.75636 0 -16.322668)
(138.72112 4.7914761e-16 -15.645793)
(138.71655 7.8983492e-20 -14.971397)
(138.74237 1.4452502e-16 -14.302116)
(138.798 -1.0969213e-15 -13.640513)
(138.88256 5.2166874e-16 -12.989045)
(138.99491 -4.9557999e-16 -12.350023)
(139.13366 5.8917218e-16 -11.725584)
(139.29725 -4.4802365e-16 -11.117663)
(139.48393 6.3899561e-16 -10.527978)
(139.69183 0 -9.958014)
(139.91899 0 -9.4090199)
(140.16342 3.6677294e-16 -8.8820037)
(140.4231 -1.7462426e-16 -8.3777413)
(140.69603 -8.3016446e-16 -7.896782)
(140.98027 -1.5786735e-16 -7.439462)
(141.27394 1.0528908e-15 -7.0059213)
(141.57527 2.8633014e-16 -6.5961183)
(141.8826 -1.0901483e-15 -6.2098497)
(142.19437 0 -5.8467687)
(142.50917 -7.407104e-16 -5.5064041)
(142.82574 4.7040272e-16 -5.1881775)
(143.14291 2.2397637e-16 -4.8914209)
(143.45968 4.26119e-16 -4.6153921)
(143.77516 -8.1197805e-16 -4.3592892)
(144.0886 7.7298591e-16 -4.1222628)
(144.39933 -1.104627e-15 -3.9034271)
(144.70682 3.5061808e-16 -3.7018699)
(145.01059 3.3385895e-16 -3.51666)
(145.31026 0 -3.3468589)
(145.60555 0 -3.1915244)
(145.89623 5.7642465e-16 -3.0497092)
(146.18206 5.4880256e-16 -2.9204513)
(146.46281 -5.2296269e-16 -2.8028042)
(146.73831 4.9742884e-16 -2.6958204)
(147.0084 -4.7385425e-16 -2.5985631)
(147.27294 4.5095022e-16 -2.5100949)
(147.53179 -1.2886574e-15 -2.4294795)
(147.78476 -8.1760621e-16 -2.3557763)
(148.03153 1.1677189e-15 -2.288038)
(148.27142 3.7041881e-16 -2.2253092)
(148.50333 0 -2.1666305)
(148.72558 6.7096287e-16 -2.1110085)
(148.93608 -6.3872627e-16 -2.0574288)
(149.13233 0 -2.0050058)
(149.31244 -5.7833559e-16 -1.9521878)
(149.47518 -5.5029474e-16 -1.8977297)
(149.61512 0 -1.8440282)
(149.73751 0 -1.7734812)
(149.83023 0 -1.7040232)
(149.76678 -4.5130309e-16 -1.7096278)
(150.00317 0 -1.2140405)
(149.19357 -7.7525729e-16 -2.4294587)
(138.96388 -4.7058817e-17 -35.455457)
(146.70891 0 -26.862013)
(142.38816 -1.2655347e-15 -33.428797)
(144.39571 1.2659237e-15 -27.981904)
(142.52665 0 -31.289385)
(142.98328 -1.0985403e-15 -28.452123)
(142.06665 9.7294855e-16 -29.693583)
(141.96152 0 -28.274867)
(141.38937 8.7156573e-16 -28.473464)
(141.08907 -9.3412458e-16 -27.661337)
(140.64519 5.1951795e-17 -27.40287)
(140.28799 7.3966317e-16 -26.790825)
(139.89699 -9.298344e-17 -26.336968)
(139.53841 -6.1869857e-16 -25.75914)
(139.1816 5.867531e-16 -25.209582)
(138.84545 8.0053023e-17 -24.608578)
(138.52423 -5.2698802e-16 -23.998391)
(138.22432 0 -23.358956)
(137.94626 6.7562897e-17 -22.702178)
(137.69326 1.92714e-16 -22.024467)
(137.46711 -1.2200841e-16 -21.330279)
(137.27002 -2.3102763e-16 -20.620573)
(137.1037 0 -19.898362)
(136.9697 1.0417148e-16 -19.166014)
(136.86921 -9.8499056e-17 -18.42648)
(136.80309 9.3488818e-17 -17.682653)
(136.77184 0 -16.937601)
(136.77557 -1.6906037e-16 -16.19438)
(136.81402 -4.8101192e-16 -15.456044)
(136.88655 4.5629305e-16 -14.72557)
(136.99218 -1.4433363e-16 -14.005816)
(137.12961 0 -13.299474)
(137.29724 3.9143488e-16 -12.609034)
(137.49321 -6.1990681e-16 -11.936752)
(137.71549 1.1819538e-16 -11.284628)
(137.96187 -2.2414612e-16 -10.654383)