/*--------------------------------*- C++ -*----------------------------------*\
| =========                 |                                                 |
| \\      /  F ield         | OpenFOAM: The Open Source CFD Toolbox           |
|  \\    /   O peration     | Version:  5.0                                   |
|   \\  /    A nd           | Web:      www.OpenFOAM.org                      |
|    \\/     M anipulation  |                                                 |
\*---------------------------------------------------------------------------*/
FoamFile
{
    version     2.0;
    format      ascii;
    class       volScalarField;
    location    "0";
    object      k;
}
// * * * * * * * * * * * * * * * * * * * * * * * * * * * * * * * * * * * * * //

dimensions      [0 2 -2 0 0 0 0];

internalField   nonuniform List<scalar> 
12225
(
0.362817
0.343986
0.327751
0.30981
0.29541
0.283469
0.275525
0.270279
0.270336
0.271889
0.276029
0.280767
0.289803
0.295857
0.306571
0.313498
0.325489
0.330218
0.440187
0.468697
0.461606
0.448367
0.450346
0.458304
0.474568
0.498499
0.524396
0.552076
0.580711
0.606116
0.633762
0.653803
0.679606
0.692968
0.717787
0.724526
0.390541
0.417873
0.420232
0.416827
0.411629
0.407801
0.40802
0.410032
0.414557
0.42139
0.430709
0.439707
0.451139
0.461135
0.472776
0.483487
0.493414
0.505767
0.377546
0.386982
0.391407
0.391343
0.390221
0.387895
0.385663
0.384079
0.382882
0.382894
0.383383
0.38432
0.386285
0.388461
0.390892
0.39422
0.396506
0.400916
0.374562
0.37609
0.378412
0.378666
0.378263
0.377204
0.375489
0.373737
0.37201
0.370454
0.369257
0.368105
0.367378
0.366801
0.366439
0.366325
0.366341
0.366683
0.373814
0.372709
0.372645
0.372384
0.37176
0.370816
0.369553
0.368082
0.366571
0.364976
0.363528
0.362063
0.360755
0.359528
0.358396
0.357425
0.356436
0.355777
0.373782
0.371742
0.370386
0.369287
0.368234
0.367114
0.365915
0.364587
0.363238
0.361808
0.360423
0.359024
0.357679
0.356383
0.355122
0.353967
0.352794
0.351803
0.37382
0.37156
0.369634
0.367976
0.366501
0.365108
0.363775
0.362429
0.361108
0.359767
0.358451
0.357145
0.355865
0.354624
0.353403
0.352252
0.351101
0.350054
0.373832
0.371553
0.369449
0.367525
0.365776
0.364154
0.362645
0.361199
0.359818
0.358474
0.35717
0.355904
0.354668
0.353477
0.352309
0.351198
0.350099
0.349075
0.373831
0.37156
0.369418
0.367405
0.365529
0.363773
0.362133
0.360585
0.359122
0.357728
0.356395
0.355119
0.353889
0.352712
0.351571
0.350483
0.349422
0.348422
0.373829
0.37156
0.369413
0.367378
0.365458
0.363645
0.361937
0.360324
0.358799
0.357353
0.35598
0.354673
0.353425
0.352237
0.351096
0.35001
0.348961
0.347971
0.373828
0.371558
0.369409
0.36737
0.365439
0.363609
0.361876
0.360234
0.358678
0.357202
0.3558
0.354469
0.353201
0.351995
0.350843
0.349748
0.348696
0.347702
0.373827
0.371556
0.369405
0.367365
0.36543
0.363593
0.361851
0.360197
0.358626
0.357134
0.355716
0.354368
0.353085
0.351865
0.350701
0.349595
0.348536
0.347532
0.373826
0.371555
0.369401
0.367359
0.365422
0.363583
0.361837
0.360178
0.3586
0.357101
0.355674
0.354317
0.353025
0.351795
0.350622
0.349506
0.34844
0.347427
0.373826
0.371553
0.369398
0.367355
0.365416
0.363575
0.361826
0.360164
0.358584
0.357081
0.355651
0.35429
0.352993
0.351758
0.35058
0.349458
0.348388
0.347368
0.373826
0.371552
0.369396
0.367351
0.36541
0.363567
0.361817
0.360153
0.358571
0.357067
0.355634
0.35427
0.352971
0.351734
0.350554
0.349429
0.348356
0.347333
0.373825
0.371551
0.369394
0.367348
0.365406
0.363562
0.36181
0.360145
0.358561
0.357055
0.355621
0.354256
0.352955
0.351716
0.350534
0.349407
0.348333
0.347307
0.373825
0.371551
0.369393
0.367346
0.365403
0.363558
0.361805
0.360139
0.358554
0.357047
0.355612
0.354245
0.352943
0.351702
0.35052
0.349392
0.348316
0.347289
0.373825
0.37155
0.369393
0.367345
0.365402
0.363557
0.361804
0.360137
0.358552
0.357043
0.355607
0.35424
0.352938
0.351696
0.350513
0.349384
0.348307
0.34728
0.373825
0.371551
0.369393
0.367347
0.365404
0.363559
0.361806
0.360139
0.358554
0.357046
0.355611
0.354244
0.352941
0.3517
0.350516
0.349388
0.348311
0.347284
0.373825
0.371551
0.369395
0.367349
0.365407
0.363563
0.361811
0.360145
0.358562
0.357055
0.355621
0.354255
0.352954
0.351715
0.350533
0.349406
0.348332
0.347306
0.373826
0.371552
0.369397
0.367352
0.365412
0.36357
0.361822
0.360161
0.358583
0.357083
0.355656
0.354298
0.353006
0.351774
0.350601
0.349482
0.348416
0.347397
0.373826
0.371554
0.369399
0.367359
0.365428
0.363602
0.361875
0.36024
0.35869
0.35722
0.355823
0.354493
0.353226
0.352018
0.350865
0.349762
0.34871
0.3477
0.373828
0.371551
0.369412
0.367417
0.365556
0.363819
0.362189
0.360651
0.359188
0.357793
0.356456
0.355171
0.353935
0.352745
0.3516
0.350495
0.349435
0.348409
0.373824
0.371554
0.369604
0.367892
0.366339
0.364892
0.363494
0.362122
0.360761
0.359413
0.358081
0.35677
0.355488
0.354238
0.353029
0.351855
0.350734
0.349645
0.373788
0.371991
0.371112
0.370265
0.36936
0.368312
0.367049
0.36563
0.364121
0.362576
0.361031
0.359523
0.358074
0.356683
0.355382
0.354142
0.35301
0.351925
0.374338
0.375569
0.377776
0.377861
0.377291
0.375889
0.373838
0.371644
0.369508
0.367485
0.365666
0.364087
0.362713
0.361538
0.360612
0.359821
0.359292
0.358804
0.379003
0.394321
0.398267
0.396583
0.392547
0.38761
0.383646
0.38046
0.378271
0.376856
0.376502
0.376755
0.377405
0.378703
0.380449
0.382429
0.384834
0.387145
0.408413
0.427549
0.422415
0.411063
0.402231
0.397928
0.398562
0.401123
0.405993
0.413047
0.421006
0.429839
0.438848
0.448204
0.457322
0.466568
0.475339
0.4842
0.366042
0.353412
0.341986
0.330209
0.318982
0.308382
0.299409
0.291676
0.285405
0.280335
0.276685
0.27387
0.272316
0.271179
0.271217
0.271478
0.272195
0.273397
0.000521306
0.00307276
0.005767
0.00813769
0.0103777
0.0129016
0.0158328
0.0193414
0.0235246
0.0283672
0.0337676
0.0395854
0.0456783
0.0519193
0.0582009
0.0644344
0.0705473
0.0764819
0.0821941
0.0876542
0.0928463
0.0977677
0.102426
0.106835
0.111003
0.114915
0.118541
0.121914
0.124938
0.127173
0.12834
0.127947
0.125455
0.119172
0.123334
0.127917
0.132369
0.134783
0.138635
0.142133
0.145297
0.146772
0.147506
0.158235
0.16382
0.172186
0.179574
0.187722
0.195766
0.204118
0.212563
0.221207
0.229992
0.238947
0.248056
0.257326
0.266752
0.276335
0.286073
0.295965
0.306008
0.316201
0.326539
0.337021
0.347641
0.358396
0.36928
0.380289
0.391416
0.402656
0.414001
0.425445
0.436978
0.448595
0.460284
0.472039
0.483848
0.495703
0.507593
0.519507
0.531434
0.543364
0.555283
0.567181
0.579044
0.590859
0.602612
0.614289
0.625875
0.637351
0.648701
0.659904
0.670938
0.681779
0.692406
0.7028
0.712957
0.722908
0.732725
0.742268
0.751602
0.760689
0.769533
0.778117
0.786434
0.794472
0.802221
0.809671
0.816813
0.823637
0.830137
0.836302
0.842127
0.847603
0.852724
0.857485
0.86188
0.865904
0.869553
0.872823
0.875712
0.878217
0.880337
0.88207
0.883416
0.884375
0.884942
0.885109
0.884952
0.884441
0.883482
0.8821
0.880325
0.878273
0.875911
0.873124
0.870005
0.866541
0.862744
0.858624
0.854188
0.849448
0.844421
0.839105
0.833513
0.827655
0.821542
0.815185
0.808597
0.801788
0.794771
0.787559
0.780164
0.7726
0.764877
0.757011
0.749012
0.740895
0.732672
0.72436
0.715979
0.707561
0.699229
0.692148
0.688041
0.684501
0.680981
0.677432
0.673851
0.67024
0.6666
0.662929
0.659218
0.655449
0.651584
0.647544
0.643167
0.638022
0.631161
0.60541
0.00269941
0.0113688
0.0173232
0.0217419
0.0256224
0.0293997
0.0334298
0.0379205
0.0429611
0.0485399
0.0545793
0.0609721
0.0676062
0.0743786
0.0812013
0.0880013
0.0947194
0.101309
0.107738
0.113982
0.120034
0.125895
0.131575
0.137089
0.142454
0.147687
0.152802
0.15777
0.162489
0.166884
0.170903
0.174515
0.178092
0.182793
0.190753
0.199273
0.208072
0.217357
0.227737
0.239333
0.251733
0.265086
0.281508
0.294567
0.306405
0.319129
0.332173
0.345664
0.35948
0.373638
0.388111
0.402906
0.418016
0.433444
0.449188
0.465251
0.481632
0.498333
0.515354
0.532694
0.550354
0.568332
0.586626
0.605234
0.624152
0.643377
0.662902
0.682724
0.702834
0.723225
0.74389
0.764818
0.785999
0.807422
0.829075
0.850946
0.873019
0.895281
0.917716
0.940306
0.963036
0.985886
1.00884
1.03187
1.05496
1.0781
1.10125
1.12439
1.1475
1.17055
1.19351
1.21636
1.23905
1.26156
1.28384
1.30584
1.3275
1.34875
1.36954
1.39005
1.41025
1.43011
1.44962
1.46875
1.48748
1.5058
1.52367
1.54108
1.55801
1.57443
1.59032
1.60568
1.62047
1.63468
1.6483
1.66131
1.67369
1.68543
1.69652
1.70695
1.7167
1.72577
1.73415
1.74182
1.7488
1.75507
1.76063
1.76548
1.76963
1.77307
1.7758
1.7777
1.77876
1.77925
1.77921
1.77836
1.77682
1.77459
1.7717
1.76814
1.76393
1.75909
1.75363
1.74756
1.74091
1.73369
1.72591
1.71759
1.70876
1.69944
1.68964
1.67939
1.6687
1.65761
1.64614
1.6343
1.62212
1.60962
1.59683
1.58378
1.57048
1.55696
1.54331
1.52978
1.51667
1.50358
1.49037
1.47707
1.46368
1.45022
1.4367
1.42313
1.40952
1.39586
1.38211
1.36826
1.35411
1.33968
1.32353
1.2874
0.00580473
0.0197176
0.0276902
0.0335957
0.038816
0.043891
0.0491228
0.0546882
0.0606682
0.0670671
0.0738363
0.0808997
0.0881739
0.0955808
0.103054
0.110538
0.117994
0.125391
0.132715
0.139961
0.147138
0.154266
0.16138
0.168525
0.175758
0.183147
0.190743
0.198585
0.206689
0.215071
0.223745
0.232769
0.242314
0.252769
0.264211
0.27651
0.289646
0.303492
0.318003
0.333258
0.349087
0.365643
0.38243
0.398683
0.414995
0.431712
0.448834
0.466378
0.484326
0.502672
0.521408
0.540533
0.560044
0.57994
0.600222
0.620889
0.641942
0.66338
0.685203
0.70741
0.729998
0.752966
0.77631
0.800027
0.824111
0.848557
0.873358
0.898507
0.923994
0.949811
0.975947
1.00239
1.02913
1.05614
1.08343
1.11096
1.13872
1.1667
1.19488
1.22323
1.25173
1.28037
1.30911
1.33794
1.36683
1.39575
1.42468
1.45358
1.48243
1.5112
1.53985
1.56836
1.59669
1.6248
1.65267
1.68027
1.70755
1.7345
1.7611
1.78734
1.81319
1.83862
1.8636
1.8881
1.91208
1.93553
1.95841
1.9807
2.00236
2.02337
2.04371
2.06335
2.08227
2.10044
2.11785
2.13446
2.15028
2.16526
2.17941
2.1927
2.20512
2.21666
2.22731
2.23706
2.24591
2.25384
2.26085
2.26695
2.27214
2.2764
2.27973
2.2821
2.2834
2.28389
2.2836
2.28236
2.28022
2.2772
2.27331
2.26857
2.26301
2.25662
2.24944
2.24148
2.23277
2.22332
2.21316
2.20231
2.19081
2.17866
2.16591
2.15257
2.13868
2.12427
2.10936
2.09399
2.07818
2.06197
2.04538
2.02845
2.0112
1.99369
1.97597
1.95822
1.94058
1.92289
1.90508
1.88715
1.86912
1.85101
1.83286
1.81467
1.79646
1.77826
1.76007
1.74192
1.72374
1.70567
1.68643
1.65508
0.0094118
0.0276907
0.037549
0.0447334
0.0509934
0.0569812
0.0630308
0.0693293
0.0759682
0.0829687
0.0903035
0.0979183
0.105749
0.113734
0.121821
0.129971
0.138157
0.146367
0.154599
0.162865
0.171193
0.179618
0.188191
0.196973
0.206029
0.215423
0.225212
0.235441
0.246137
0.257316
0.268988
0.281177
0.293944
0.307383
0.321531
0.336386
0.351925
0.368111
0.384919
0.402322
0.420262
0.438671
0.457391
0.47633
0.495571
0.515187
0.535212
0.555665
0.576553
0.597878
0.619642
0.641844
0.664486
0.687569
0.711092
0.735058
0.759466
0.784318
0.809611
0.835347
0.861523
0.888136
0.915184
0.942663
0.970567
0.998891
1.02763
1.05677
1.0863
1.11622
1.14651
1.17716
1.20816
1.23949
1.27112
1.30306
1.33527
1.36773
1.40042
1.43333
1.46642
1.49966
1.53305
1.56653
1.60009
1.6337
1.66732
1.70092
1.73447
1.76794
1.80128
1.83448
1.86748
1.90027
1.93279
1.96503
1.99695
2.02851
2.05968
2.09043
2.12072
2.15051
2.17977
2.20847
2.23656
2.26401
2.29079
2.31686
2.3422
2.36676
2.39053
2.41346
2.43554
2.45674
2.47702
2.49637
2.51476
2.53218
2.5486
2.564
2.57837
2.5917
2.60397
2.61518
2.62531
2.63436
2.64232
2.6492
2.655
2.6597
2.6633
2.66577
2.66701
2.66732
2.66661
2.66481
2.66196
2.65807
2.65316
2.64725
2.64037
2.63252
2.62374
2.61405
2.60347
2.59203
2.57975
2.56668
2.55282
2.53823
2.52292
2.50693
2.4903
2.47306
2.45524
2.43688
2.41801
2.39868
2.3789
2.35874
2.33821
2.31737
2.29629
2.27508
2.25384
2.23251
2.21104
2.18946
2.16777
2.14602
2.12423
2.10244
2.08068
2.059
2.03743
2.01607
1.99496
1.9743
1.953
1.9242
0.0130699
0.0351861
0.0467884
0.0551501
0.0623305
0.0690805
0.0757779
0.0826335
0.0897592
0.0971988
0.104949
0.112978
0.121241
0.129693
0.138296
0.14702
0.155852
0.164788
0.173838
0.183024
0.192381
0.20195
0.211786
0.221946
0.23249
0.243476
0.254952
0.266955
0.279508
0.292622
0.3063
0.320548
0.335381
0.350824
0.36689
0.383578
0.400879
0.418791
0.437291
0.456359
0.47596
0.496048
0.51658
0.537532
0.558911
0.580731
0.603006
0.625748
0.648968
0.67267
0.696861
0.721543
0.74672
0.772394
0.798568
0.825244
0.852424
0.880108
0.908298
0.936994
0.966194
0.995897
1.0261
1.0568
1.08799
1.11967
1.15183
1.18445
1.21754
1.25108
1.28505
1.31945
1.35425
1.38944
1.42501
1.46092
1.49716
1.53371
1.57054
1.60762
1.64493
1.68244
1.72011
1.75792
1.79583
1.83381
1.87182
1.90983
1.94779
1.98568
2.02345
2.06106
2.09847
2.13565
2.17256
2.20915
2.24538
2.28122
2.31661
2.35152
2.38591
2.41973
2.45294
2.48549
2.51736
2.54849
2.57885
2.6084
2.6371
2.66492
2.69181
2.71775
2.7427
2.76664
2.78953
2.81135
2.83206
2.85165
2.8701
2.88738
2.90348
2.91837
2.93206
2.94451
2.95574
2.96572
2.97446
2.98195
2.9882
2.99321
2.99695
2.99939
3.00047
3.00049
2.99929
2.99686
2.99324
2.98843
2.98247
2.97537
2.96716
2.95786
2.94749
2.9361
2.92369
2.91032
2.896
2.88077
2.86467
2.84773
2.82999
2.81148
2.79225
2.77233
2.75176
2.73059
2.70885
2.68659
2.66385
2.64066
2.61708
2.59315
2.56894
2.54455
2.52003
2.49538
2.47059
2.44568
2.42068
2.39563
2.37057
2.34554
2.3206
2.29581
2.27126
2.24708
2.2234
2.20043
2.17723
2.14907
0.0165771
0.0420197
0.055192
0.064627
0.0726357
0.0800522
0.0872961
0.0946033
0.102108
0.109877
0.117932
0.126263
0.134845
0.14365
0.152652
0.161834
0.171189
0.180721
0.190445
0.20039
0.210589
0.221086
0.231931
0.243175
0.254871
0.267064
0.279796
0.293096
0.306982
0.321464
0.336542
0.352217
0.368489
0.385362
0.402838
0.420917
0.439597
0.458875
0.478742
0.499185
0.520188
0.541732
0.563798
0.586377
0.609464
0.633062
0.657176
0.681812
0.70698
0.732685
0.758935
0.785735
0.813091
0.841006
0.869486
0.898534
0.928153
0.958345
0.989113
1.02046
1.05238
1.08488
1.11796
1.1516
1.18582
1.22059
1.25593
1.29181
1.32822
1.36516
1.40261
1.44056
1.47899
1.51787
1.5572
1.59694
1.63708
1.67758
1.71842
1.75956
1.80099
1.84265
1.88453
1.92658
1.96876
2.01104
2.05337
2.09572
2.13804
2.18029
2.22242
2.2644
2.30616
2.34767
2.38889
2.42975
2.47022
2.51024
2.54976
2.58874
2.62713
2.66487
2.70194
2.73826
2.7738
2.80852
2.84236
2.87528
2.90724
2.93821
2.96813
2.99697
3.02469
3.05127
3.07666
3.10083
3.12376
3.14543
3.16579
3.18484
3.20256
3.21892
3.23391
3.24752
3.25973
3.27055
3.27997
3.28798
3.29459
3.2998
3.3036
3.30591
3.3068
3.30643
3.30467
3.30155
3.2971
3.29132
3.28425
3.27591
3.26633
3.25554
3.24357
3.23044
3.2162
3.20088
3.18451
3.16714
3.14879
3.12953
3.10937
3.08837
3.06657
3.04402
3.02076
2.99683
2.97229
2.94717
2.92153
2.89541
2.86885
2.84193
2.81469
2.78721
2.75956
2.73175
2.7038
2.67572
2.64757
2.61938
2.59121
2.56312
2.53517
2.50747
2.48011
2.45328
2.42714
2.40193
2.37678
2.34802
0.0198019
0.0480673
0.0626095
0.072993
0.0817336
0.0897329
0.0974448
0.105127
0.112935
0.120955
0.12923
0.137773
0.146578
0.155633
0.164925
0.174447
0.184197
0.194187
0.204435
0.214968
0.225821
0.237035
0.248653
0.26072
0.273279
0.286369
0.300023
0.314266
0.329114
0.344575
0.360653
0.377348
0.394657
0.412581
0.431117
0.450267
0.470027
0.490399
0.511377
0.532959
0.555137
0.577904
0.601253
0.625178
0.64968
0.674757
0.700414
0.726657
0.753493
0.78093
0.808975
0.837636
0.86692
0.896833
0.927382
0.958573
0.99041
1.0229
1.05604
1.08984
1.1243
1.15942
1.1952
1.23163
1.26872
1.30646
1.34484
1.38385
1.42349
1.46374
1.50458
1.546
1.58798
1.6305
1.67353
1.71706
1.76105
1.80547
1.8503
1.89549
1.94102
1.98684
2.03292
2.07921
2.12567
2.17226
2.21893
2.26564
2.31233
2.35895
2.40546
2.4518
2.49792
2.54376
2.58928
2.63441
2.6791
2.72329
2.76693
2.80996
2.85232
2.89398
2.93486
2.97492
3.01411
3.05237
3.08965
3.1259
3.16108
3.19514
3.22803
3.25972
3.29016
3.31931
3.34714
3.37361
3.39869
3.42235
3.44457
3.46532
3.48457
3.50232
3.51854
3.53322
3.54635
3.55793
3.56794
3.5764
3.58329
3.58863
3.59241
3.59454
3.59516
3.59431
3.59194
3.58806
3.58271
3.5759
3.56767
3.55804
3.54705
3.53472
3.52109
3.5062
3.49009
3.47279
3.45435
3.43481
3.41421
3.39261
3.37004
3.34655
3.32219
3.29702
3.27107
3.24441
3.21709
3.18915
3.16064
3.13163
3.10215
3.07227
3.04206
3.01157
2.98087
2.94999
2.91896
2.88782
2.85662
2.8254
2.79423
2.76318
2.73235
2.70183
2.67177
2.64236
2.61381
2.58631
2.55908
2.52892
0.0226516
0.0532512
0.0689481
0.080139
0.0895051
0.0980013
0.106108
0.1141
0.122148
0.130357
0.138788
0.147472
0.156422
0.16564
0.175126
0.184881
0.194912
0.205233
0.215863
0.22683
0.238166
0.249908
0.262093
0.274761
0.287947
0.301684
0.315999
0.330915
0.346446
0.362604
0.379393
0.396815
0.414871
0.43356
0.452884
0.472841
0.493434
0.514663
0.536529
0.559033
0.582173
0.60595
0.630362
0.655411
0.681097
0.707425
0.734398
0.762025
0.790313
0.819272
0.84891
0.879237
0.910262
0.941993
0.97444
1.00761
1.04151
1.07615
1.11152
1.14765
1.18452
1.22215
1.26053
1.29967
1.33955
1.38017
1.42153
1.46362
1.50643
1.54994
1.59414
1.63901
1.68453
1.73067
1.77741
1.82473
1.87258
1.92094
1.96977
2.01903
2.06868
2.11868
2.16899
2.21955
2.27032
2.32125
2.37229
2.42337
2.47445
2.52547
2.57637
2.62709
2.67758
2.72776
2.77758
2.82697
2.87588
2.92423
2.97197
3.01903
3.06536
3.11089
3.15556
3.19933
3.24211
3.28387
3.32454
3.36408
3.40242
3.43951
3.47532
3.50978
3.54286
3.57452
3.60471
3.6334
3.66055
3.68614
3.71012
3.73249
3.7532
3.77225
3.78962
3.80528
3.81925
3.83149
3.84202
3.85084
3.85793
3.86331
3.86699
3.86888
3.86915
3.86776
3.8647
3.86
3.85369
3.8458
3.83634
3.82537
3.81291
3.799
3.78368
3.767
3.74898
3.72969
3.70915
3.68743
3.66457
3.64062
3.61563
3.58965
3.56275
3.53497
3.50636
3.47699
3.44691
3.41618
3.38486
3.35299
3.32063
3.28786
3.25472
3.22128
3.18761
3.15374
3.11973
3.08561
3.05144
3.01728
2.98321
2.9493
2.91566
2.88242
2.84972
2.81779
2.78682
2.75701
2.72759
2.69585
0.0250691
0.0575413
0.074172
0.08602
0.0958972
0.104799
0.113226
0.121465
0.129698
0.138043
0.146576
0.155344
0.164376
0.173685
0.183284
0.193182
0.203392
0.213931
0.224818
0.236082
0.24775
0.259856
0.272432
0.285512
0.299128
0.313306
0.328073
0.343446
0.359442
0.376073
0.393347
0.411269
0.429844
0.449073
0.468961
0.48951
0.510725
0.532607
0.555163
0.578396
0.602311
0.626911
0.652201
0.678187
0.704874
0.732268
0.760379
0.789214
0.818784
0.849101
0.880176
0.912021
0.944646
0.978063
1.01228
1.04731
1.08317
1.11985
1.15738
1.19575
1.23497
1.27504
1.31596
1.35774
1.40038
1.44386
1.48818
1.53333
1.5793
1.62607
1.67363
1.72196
1.77102
1.8208
1.87127
1.92239
1.97413
2.02645
2.07931
2.13267
2.18647
2.24068
2.29524
2.35009
2.40519
2.46047
2.51588
2.57135
2.62683
2.68224
2.73752
2.79261
2.84743
2.90192
2.95601
3.00963
3.0627
3.11517
3.16695
3.21798
3.2682
3.31754
3.36593
3.41331
3.45961
3.50478
3.54875
3.59146
3.63286
3.67288
3.71149
3.74862
3.78424
3.81829
3.85073
3.88152
3.91062
3.93801
3.96365
3.98751
4.00957
4.02981
4.04821
4.06476
4.07944
4.09225
4.1032
4.11227
4.11947
4.12481
4.12829
4.12988
4.12969
4.12769
4.12388
4.11829
4.11096
4.10192
4.0912
4.07884
4.06487
4.04935
4.03231
4.0138
3.99387
3.97256
3.94993
3.92603
3.90091
3.87462
3.84724
3.8188
3.78937
3.75901
3.72779
3.69575
3.66297
3.62951
3.59541
3.56075
3.52559
3.48998
3.45399
3.41769
3.38114
3.34438
3.30748
3.27048
3.23345
3.19646
3.15958
3.12291
3.08656
3.05068
3.01542
2.98101
2.94764
2.91549
2.88383
2.85042
0.0270241
0.0609439
0.0782936
0.0906474
0.100918
0.110133
0.118803
0.127226
0.135589
0.144021
0.152609
0.161413
0.170472
0.179813
0.189456
0.199419
0.209719
0.220376
0.231413
0.242854
0.254726
0.267058
0.279878
0.293215
0.307097
0.321547
0.336589
0.352242
0.368523
0.385446
0.403021
0.421258
0.440166
0.459752
0.480021
0.500981
0.52264
0.545004
0.568082
0.591881
0.616411
0.64168
0.667698
0.694472
0.722014
0.750334
0.779443
0.809354
0.840081
0.871638
0.904038
0.937296
0.971426
1.00644
1.04236
1.07918
1.11693
1.15561
1.19524
1.23581
1.27734
1.31984
1.3633
1.40772
1.45311
1.49945
1.54674
1.59496
1.64412
1.69418
1.74512
1.79693
1.84957
1.90302
1.95724
2.0122
2.06785
2.12415
2.18106
2.23853
2.29649
2.35491
2.41372
2.47285
2.53226
2.59187
2.65162
2.71144
2.77125
2.83099
2.89059
2.94997
3.00905
3.06775
3.12601
3.18375
3.24088
3.29733
3.35302
3.40789
3.46186
3.51486
3.56681
3.61765
3.66731
3.71572
3.76281
3.80853
3.85281
3.8956
3.93683
3.97645
4.01442
4.05068
4.0852
4.11792
4.14881
4.17783
4.20496
4.23015
4.2534
4.27467
4.29396
4.31124
4.3265
4.33975
4.35097
4.36018
4.36737
4.37256
4.37574
4.37694
4.37621
4.37351
4.36887
4.36233
4.35392
4.34368
4.33165
4.31786
4.30237
4.28521
4.26644
4.2461
4.22425
4.20094
4.17623
4.15017
4.12283
4.09425
4.06451
4.03367
4.00178
3.96891
3.93514
3.90052
3.86511
3.829
3.79223
3.75488
3.717
3.67867
3.63994
3.60088
3.56157
3.52205
3.48238
3.44263
3.40287
3.36316
3.3236
3.28429
3.24535
3.20693
3.1692
3.13237
3.09664
3.06216
3.02825
2.99298
0.0285118
0.0634961
0.0813628
0.0940774
0.104626
0.11406
0.122897
0.131437
0.139876
0.148347
0.156946
0.16574
0.174779
0.1841
0.193732
0.203698
0.214019
0.224718
0.235814
0.247332
0.259297
0.271734
0.284669
0.298127
0.312133
0.326711
0.341881
0.357666
0.374082
0.391146
0.408874
0.427278
0.446372
0.466166
0.486673
0.507902
0.529867
0.552577
0.576047
0.600288
0.625312
0.651132
0.677763
0.705219
0.733515
0.762665
0.792684
0.823589
0.855397
0.888126
0.921793
0.956415
0.992009
1.02859
1.06618
1.10478
1.14441
1.18509
1.22683
1.26963
1.3135
1.35844
1.40447
1.45158
1.49976
1.549
1.59931
1.65067
1.70305
1.75644
1.81082
1.86615
1.92241
1.97956
2.03756
2.09637
2.15595
2.21624
2.27719
2.33874
2.40084
2.46343
2.52643
2.58979
2.65343
2.71728
2.78126
2.84531
2.90934
2.97327
3.03703
3.10053
3.16369
3.22643
3.28866
3.35031
3.41128
3.4715
3.53088
3.58935
3.64682
3.70323
3.75849
3.81253
3.86528
3.91667
3.96663
4.01509
4.06199
4.10726
4.15085
4.19271
4.23277
4.27099
4.30732
4.34173
4.37416
4.40458
4.43297
4.45928
4.4835
4.5056
4.52557
4.54339
4.55906
4.57257
4.58392
4.59311
4.60015
4.60505
4.60784
4.60852
4.60717
4.60368
4.59813
4.59057
4.58102
4.56954
4.55616
4.54093
4.52389
4.5051
4.4846
4.46246
4.43872
4.41345
4.38671
4.35855
4.32905
4.29825
4.26624
4.23308
4.19883
4.16356
4.12734
4.09025
4.05235
4.01372
3.97441
3.9345
3.89406
3.85314
3.81182
3.77017
3.72825
3.68612
3.64386
3.60152
3.55918
3.51693
3.47484
3.43304
3.39165
3.35082
3.31072
3.27158
3.23356
3.19682
3.16069
3.12354
0.0295508
0.0652636
0.0834595
0.0964
0.107118
0.116679
0.125605
0.134199
0.142657
0.15112
0.159687
0.168435
0.17742
0.186683
0.196258
0.206173
0.21645
0.227114
0.238186
0.24969
0.261648
0.274086
0.287026
0.300493
0.31451
0.329096
0.344276
0.360071
0.376504
0.393594
0.411359
0.429819
0.448989
0.468887
0.48953
0.510933
0.53311
0.55608
0.579861
0.604468
0.629917
0.656225
0.683412
0.711499
0.740504
0.770446
0.801347
0.833227
0.866108
0.900011
0.934957
0.970964
1.00805
1.04624
1.08555
1.12599
1.16757
1.21032
1.25425
1.29935
1.34565
1.39314
1.44183
1.49171
1.54278
1.59503
1.64844
1.70301
1.7587
1.81549
1.87336
1.93227
1.99219
2.05306
2.11486
2.17752
2.241
2.30524
2.37017
2.43575
2.50189
2.56853
2.63561
2.70303
2.77074
2.83864
2.90666
2.97472
3.04273
3.1106
3.17825
3.24559
3.31253
3.37899
3.44488
3.5101
3.57457
3.6382
3.70091
3.76261
3.82322
3.88266
3.94085
3.99771
4.05317
4.10716
4.1596
4.21042
4.25955
4.30695
4.35253
4.39625
4.43805
4.47789
4.5157
4.55146
4.58511
4.61663
4.64597
4.67311
4.69803
4.7207
4.74111
4.75924
4.77509
4.78865
4.79993
4.80892
4.81565
4.82013
4.82237
4.82242
4.82035
4.81597
4.80943
4.80079
4.79007
4.77731
4.76257
4.74588
4.72731
4.7069
4.68472
4.66081
4.63525
4.60808
4.57939
4.54923
4.51767
4.48477
4.45062
4.41527
4.3788
4.34128
4.30278
4.26339
4.22316
4.18218
4.14052
4.09824
4.05542
4.01211
3.9684
3.92435
3.88003
3.83551
3.79085
3.74613
3.70143
3.65682
3.6124
3.5683
3.52463
3.48156
3.43926
3.39793
3.35775
3.31884
3.2806
3.24164
0.0301827
0.0663247
0.0846804
0.0977235
0.108509
0.118111
0.127051
0.135636
0.144066
0.152482
0.160985
0.169652
0.178543
0.187704
0.197174
0.206983
0.217157
0.227722
0.238699
0.250112
0.261982
0.274334
0.287191
0.300576
0.314517
0.329035
0.344151
0.359887
0.376267
0.393312
0.411047
0.429494
0.448674
0.468611
0.489327
0.510846
0.533195
0.556403
0.580485
0.605459
0.631343
0.658149
0.685905
0.714642
0.744389
0.775171
0.807013
0.839942
0.873983
0.909159
0.945494
0.98301
1.02173
1.06167
1.10284
1.14528
1.18898
1.23397
1.28025
1.32784
1.37674
1.42695
1.47846
1.53128
1.5854
1.64079
1.69744
1.75533
1.81443
1.87471
1.93614
1.99866
2.06225
2.12685
2.19241
2.25887
2.32617
2.39424
2.46303
2.53246
2.60245
2.67294
2.74384
2.81506
2.88654
2.95817
3.02989
3.10158
3.17318
3.24458
3.3157
3.38644
3.4567
3.52641
3.59546
3.66376
3.73122
3.79776
3.86327
3.92768
3.9909
4.05284
4.11344
4.17259
4.23024
4.2863
4.3407
4.39337
4.44425
4.49326
4.54035
4.58547
4.62855
4.66955
4.70841
4.7451
4.77957
4.81179
4.84172
4.86933
4.89461
4.91753
4.93808
4.95623
4.972
4.98537
4.99636
5.00495
5.01118
5.01506
5.01661
5.01594
5.01299
5.00764
5.00005
4.99027
4.97833
4.96429
4.94818
4.93006
4.90999
4.88801
4.8642
4.83862
4.81132
4.78238
4.75186
4.71983
4.68637
4.65153
4.6154
4.57805
4.53956
4.49999
4.45943
4.41794
4.37562
4.33253
4.28875
4.24434
4.19938
4.15395
4.1081
4.06191
4.01544
3.96878
3.92199
3.87514
3.82831
3.78159
3.73509
3.68892
3.6432
3.5981
3.55379
3.51046
3.46826
3.42735
3.38715
3.34653
0.0303892
0.0667059
0.0850925
0.0981392
0.108908
0.118479
0.127375
0.135901
0.144257
0.152585
0.160994
0.169569
0.178365
0.187426
0.196791
0.206491
0.216554
0.227005
0.237866
0.249161
0.260913
0.273144
0.285878
0.299139
0.312952
0.327339
0.342326
0.357941
0.374214
0.391173
0.408847
0.427266
0.446457
0.466449
0.487271
0.508951
0.531513
0.554985
0.579395
0.604768
0.631136
0.658518
0.686951
0.716476
0.747122
0.778918
0.811894
0.846081
0.881509
0.918203
0.956187
0.995482
1.03611
1.07809
1.12143
1.16616
1.21228
1.25981
1.30875
1.35911
1.41089
1.46409
1.51868
1.57468
1.63205
1.69077
1.75082
1.81217
1.87479
1.93862
2.00363
2.06978
2.137
2.20524
2.27444
2.34453
2.41546
2.48714
2.5595
2.63247
2.70596
2.7799
2.85419
2.92876
3.00352
3.07837
3.15323
3.228
3.30259
3.37691
3.45085
3.52434
3.59726
3.66954
3.74106
3.81174
3.88149
3.95022
4.01783
4.08423
4.14935
4.21309
4.27538
4.33614
4.39528
4.45274
4.50844
4.56231
4.61428
4.66429
4.71229
4.75821
4.80199
4.8436
4.88298
4.92009
4.95489
4.98734
5.01741
5.04508
5.07032
5.09312
5.11345
5.13131
5.1467
5.1596
5.17004
5.17801
5.18354
5.18664
5.18735
5.18586
5.18188
5.17548
5.16678
5.15583
5.14267
5.12734
5.10989
5.09039
5.06888
5.04543
5.0201
4.99296
4.96408
4.93351
4.90134
4.86763
4.83246
4.79591
4.75803
4.71892
4.67865
4.6373
4.59494
4.55165
4.50751
4.46261
4.417
4.37077
4.32399
4.27673
4.22905
4.18103
4.13274
4.08425
4.03563
3.98696
3.93832
3.8898
3.8415
3.79354
3.74605
3.69918
3.65309
3.60799
3.564
3.5213
3.47934
3.43728
0.0303276
0.0666313
0.0849526
0.0979428
0.108652
0.118156
0.126975
0.135412
0.143671
0.151892
0.16018
0.168612
0.17725
0.186142
0.195329
0.204845
0.214719
0.224979
0.235647
0.246748
0.258306
0.270346
0.282893
0.295974
0.309617
0.323852
0.338713
0.354232
0.370443
0.387379
0.405075
0.423568
0.442891
0.463076
0.484158
0.50617
0.529149
0.55314
0.578165
0.604249
0.63141
0.659682
0.68913
0.719789
0.751695
0.784885
0.819395
0.855262
0.892528
0.931209
0.971325
1.0129
1.05594
1.10046
1.14647
1.19399
1.24302
1.29356
1.34561
1.39917
1.45423
1.51078
1.56879
1.62825
1.68912
1.75137
1.81497
1.87987
1.94604
2.01341
2.08194
2.15157
2.22223
2.29387
2.36641
2.43978
2.51391
2.58873
2.66415
2.7401
2.81648
2.89322
2.97022
3.04741
3.12468
3.20196
3.27913
3.35613
3.43284
3.50918
3.58505
3.66036
3.73502
3.80892
3.88198
3.9541
4.0252
4.09517
4.16394
4.23142
4.29751
4.36214
4.42524
4.48671
4.54649
4.6045
4.66068
4.71494
4.76723
4.81748
4.86564
4.91166
4.95547
4.99703
5.0363
5.07323
5.10779
5.13993
5.16964
5.19689
5.22164
5.2439
5.26363
5.28084
5.29551
5.30766
5.31729
5.3244
5.32901
5.33115
5.33093
5.32847
5.32335
5.31584
5.306
5.29387
5.2795
5.26293
5.24421
5.22341
5.20059
5.1758
5.14911
5.12059
5.0903
5.05833
5.02474
4.9896
4.95299
4.91499
4.87567
4.8351
4.79337
4.75056
4.70674
4.66199
4.6164
4.57004
4.52298
4.4753
4.42706
4.37835
4.32923
4.27976
4.23002
4.18008
4.13001
4.07989
4.0298
3.97983
3.93008
3.88066
3.83172
3.78339
3.73583
3.68924
3.64374
3.59949
3.55603
3.5128
0.0301275
0.0663098
0.0844468
0.0972784
0.107828
0.117167
0.125813
0.134072
0.142145
0.150174
0.158264
0.166494
0.17493
0.183624
0.192615
0.201935
0.211614
0.221678
0.232156
0.243074
0.254459
0.266342
0.278753
0.291725
0.305294
0.319494
0.334365
0.349943
0.366268
0.383382
0.401329
0.420162
0.439924
0.460649
0.482374
0.505136
0.528962
0.553856
0.579883
0.607117
0.635623
0.66546
0.696657
0.729247
0.763263
0.798741
0.83571
0.874195
0.914206
0.955774
0.998925
1.04369
1.09005
1.13801
1.18756
1.2387
1.29143
1.34573
1.40159
1.45899
1.51789
1.57828
1.64012
1.70338
1.768
1.83394
1.90117
1.96961
2.03922
2.10994
2.1817
2.25445
2.32811
2.40261
2.47789
2.55386
2.63046
2.7076
2.78521
2.8632
2.9415
3.02001
3.09866
3.17735
3.256
3.33453
3.41284
3.49084
3.56845
3.64557
3.72211
3.79799
3.87312
3.94739
4.02073
4.09305
4.16425
4.23426
4.30298
4.37033
4.43623
4.50061
4.56339
4.62448
4.68383
4.74135
4.79699
4.85066
4.90231
4.95189
4.99933
5.04459
5.08762
5.12836
5.16677
5.20281
5.23646
5.26767
5.29641
5.32267
5.34642
5.36765
5.38634
5.40247
5.41608
5.42713
5.43564
5.44162
5.44508
5.44606
5.44484
5.44114
5.43483
5.42615
5.41513
5.40182
5.38626
5.3685
5.3486
5.32661
5.3026
5.27662
5.24875
5.21905
5.1876
5.15446
5.11971
5.08342
5.04568
5.00654
4.9661
4.92443
4.8816
4.83769
4.79279
4.74698
4.70032
4.6529
4.6048
4.55608
4.50681
4.45707
4.40692
4.35642
4.30565
4.25467
4.20356
4.1524
4.10125
4.05022
3.9994
3.9489
3.89886
3.84941
3.80072
3.75295
3.70623
3.66074
3.61605
3.57196
0.0297308
0.0656387
0.0834864
0.0960821
0.106406
0.115524
0.123951
0.131997
0.139861
0.147686
0.155577
0.163615
0.171862
0.18037
0.189182
0.198333
0.207858
0.217788
0.228155
0.23899
0.25033
0.262213
0.274674
0.287757
0.301503
0.315966
0.331206
0.347257
0.364166
0.381981
0.40074
0.420465
0.441183
0.462993
0.485965
0.510161
0.535642
0.562491
0.590748
0.62046
0.651683
0.684463
0.718832
0.754816
0.792441
0.831727