/*--------------------------------*- C++ -*----------------------------------*\
| =========                 |                                                 |
| \\      /  F ield         | OpenFOAM: The Open Source CFD Toolbox           |
|  \\    /   O peration     | Version:  5.0                                   |
|   \\  /    A nd           | Web:      www.OpenFOAM.org                      |
|    \\/     M anipulation  |                                                 |
\*---------------------------------------------------------------------------*/
FoamFile
{
    version     2.0;
    format      ascii;
    class       volVectorField;
    location    "0";
    object      Ulift0;
}
// * * * * * * * * * * * * * * * * * * * * * * * * * * * * * * * * * * * * * //

dimensions      [0 1 -1 0 0 0 0];

internalField   nonuniform List<vector> 
12225
(
(1.00382 -0.000769121 0)
(1.01149 -0.000809354 0)
(1.01942 -0.000888629 0)
(1.02792 -0.00100903 0)
(1.03731 -0.00117584 0)
(1.04793 -0.00139801 0)
(1.06015 -0.0016893 0)
(1.07445 -0.00207039 0)
(1.09139 -0.00257257 0)
(1.11176 -0.0032444 0)
(1.13667 -0.00416418 0)
(1.16775 -0.00546506 0)
(1.20756 -0.00738962 0)
(1.26051 -0.0104235 0)
(1.33494 -0.015675 0)
(1.4495 -0.0262114 0)
(1.65802 -0.0533501 0)
(2.18956 -0.158572 0)
(1.00381 -0.00236072 0)
(1.01147 -0.00248412 0)
(1.01937 -0.00272727 0)
(1.02785 -0.00309652 0)
(1.03721 -0.00360798 0)
(1.04779 -0.00428899 0)
(1.05997 -0.00518155 0)
(1.0742 -0.00634868 0)
(1.09105 -0.00788561 0)
(1.11128 -0.00993973 0)
(1.13597 -0.012748 0)
(1.16669 -0.0167113 0)
(1.20587 -0.0225542 0)
(1.25756 -0.0317082 0)
(1.32907 -0.0473591 0)
(1.43488 -0.0778565 0)
(1.60435 -0.150463 0)
(1.85849 -0.381292 0)
(1.00379 -0.00406031 0)
(1.01141 -0.00427226 0)
(1.01927 -0.00468979 0)
(1.0277 -0.00532369 0)
(1.037 -0.00620136 0)
(1.0475 -0.00736931 0)
(1.05958 -0.00889885 0)
(1.07366 -0.0108968 0)
(1.0903 -0.0135238 0)
(1.11022 -0.0170275 0)
(1.13444 -0.0218032 0)
(1.16438 -0.0285121 0)
(1.20219 -0.0383307 0)
(1.25125 -0.0535208 0)
(1.31697 -0.0788762 0)
(1.40769 -0.12583 0)
(1.53019 -0.225174 0)
(1.64133 -0.46464 0)
(1.00376 -0.00586968 0)
(1.01131 -0.00617536 0)
(1.0191 -0.00677737 0)
(1.02745 -0.00769092 0)
(1.03665 -0.00895493 0)
(1.04702 -0.0106354 0)
(1.05892 -0.0128333 0)
(1.07276 -0.0156991 0)
(1.08906 -0.0194582 0)
(1.10849 -0.0244549 0)
(1.13193 -0.0312321 0)
(1.16063 -0.0406836 0)
(1.19631 -0.0543587 0)
(1.24141 -0.0751153 0)
(1.29908 -0.108605 0)
(1.37171 -0.166763 0)
(1.45243 -0.275398 0)
(1.49065 -0.482718 0)
(1.00371 -0.00778878 0)
(1.01117 -0.00819301 0)
(1.01886 -0.00898877 0)
(1.02708 -0.0101955 0)
(1.03613 -0.0118635 0)
(1.04631 -0.014078 0)
(1.05796 -0.0169689 0)
(1.07145 -0.0207287 0)
(1.08726 -0.0256432 0)
(1.10597 -0.0321438 0)
(1.12833 -0.0409 0)
(1.15531 -0.0529873 0)
(1.18812 -0.0702048 0)
(1.22816 -0.0956946 0)
(1.27636 -0.13515 0)
(1.3308 -0.19899 0)
(1.37893 -0.304829 0)
(1.38066 -0.47194 0)
(1.00365 -0.0098151 0)
(1.01098 -0.0103221 0)
(1.01852 -0.0113195 0)
(1.02658 -0.0128307 0)
(1.03542 -0.0149167 0)
(1.04534 -0.0176809 0)
(1.05664 -0.0212801 0)
(1.06967 -0.025945 0)
(1.08482 -0.0320139 0)
(1.10258 -0.0399896 0)
(1.12353 -0.050635 0)
(1.14833 -0.0651379 0)
(1.17764 -0.0853967 0)
(1.21185 -0.114508 0)
(1.25013 -0.157527 0)
(1.2881 -0.222289 0)
(1.31274 -0.318607 0)
(1.29692 -0.449497 0)
(1.00356 -0.011943 0)
(1.01072 -0.012556 0)
(1.01808 -0.0137612 0)
(1.02591 -0.0155849 0)
(1.03449 -0.0180978 0)
(1.04407 -0.0214194 0)
(1.05493 -0.0257301 0)
(1.06735 -0.0312923 0)
(1.08168 -0.0384851 0)
(1.09826 -0.0478606 0)
(1.11748 -0.0602329 0)
(1.13969 -0.0768208 0)
(1.16502 -0.0994656 0)
(1.19303 -0.130935 0)
(1.22173 -0.175224 0)
(1.24589 -0.23739 0)
(1.25454 -0.321432 0)
(1.23099 -0.423159 0)
(1.00346 -0.0141626 0)
(1.01039 -0.0148837 0)
(1.01751 -0.0163001 0)
(1.02507 -0.01844 0)
(1.03331 -0.021382 0)
(1.04247 -0.0252587 0)
(1.05277 -0.030269 0)
(1.06445 -0.036698 0)
(1.07777 -0.0449504 0)
(1.09294 -0.0556003 0)
(1.11016 -0.0694656 0)
(1.12946 -0.0877128 0)
(1.15054 -0.11199 0)
(1.17235 -0.144542 0)
(1.19238 -0.188159 0)
(1.20562 -0.245503 0)
(1.20389 -0.316962 0)
(1.17765 -0.39626 0)
(1.00332 -0.0164594 0)
(1.00998 -0.0172889 0)
(1.0168 -0.0189165 0)
(1.02402 -0.0213708 0)
(1.03185 -0.0247357 0)
(1.04049 -0.0291529 0)
(1.05012 -0.0348329 0)
(1.06092 -0.0420726 0)
(1.07305 -0.051284 0)
(1.08661 -0.0630334 0)
(1.1016 -0.0780942 0)
(1.11779 -0.0975075 0)
(1.13455 -0.122629 0)
(1.15051 -0.155098 0)
(1.1631 -0.196576 0)
(1.16811 -0.247966 0)
(1.15995 -0.307808 0)
(1.13356 -0.370117 0)
(1.00316 -0.0188123 0)
(1.00949 -0.0197487 0)
(1.01594 -0.0215833 0)
(1.02275 -0.0243434 0)
(1.03008 -0.0281149 0)
(1.0381 -0.0330436 0)
(1.04695 -0.0393433 0)
(1.05674 -0.0473102 0)
(1.06753 -0.0573437 0)
(1.0793 -0.0699727 0)
(1.09189 -0.0858835 0)
(1.10489 -0.105937 0)
(1.11747 -0.131149 0)
(1.12816 -0.162563 0)
(1.13464 -0.200926 0)
(1.13371 -0.246029 0)
(1.1218 -0.295731 0)
(1.09649 -0.345166 0)
(1.00296 -0.0211935 0)
(1.00889 -0.0222325 0)
(1.01492 -0.0242649 0)
(1.02123 -0.0273142 0)
(1.02798 -0.0314646 0)
(1.03528 -0.0368598 0)
(1.04323 -0.043708 0)
(1.05188 -0.052291 0)
(1.06119 -0.0629766 0)
(1.07106 -0.0762299 0)
(1.08119 -0.092618 0)
(1.09105 -0.112793 0)
(1.09973 -0.137426 0)
(1.10586 -0.167048 0)
(1.10753 -0.201757 0)
(1.10247 -0.240756 0)
(1.08857 -0.281878 0)
(1.06487 -0.321478 0)
(1.00275 -0.0233845 0)
(1.00824 -0.0245123 0)
(1.01381 -0.0267147 0)
(1.0196 -0.0300095 0)
(1.02573 -0.0344758 0)
(1.03229 -0.0402497 0)
(1.03932 -0.0475263 0)
(1.04682 -0.0565633 0)
(1.05469 -0.0676845 0)
(1.06275 -0.0812794 0)
(1.07063 -0.0977891 0)
(1.07774 -0.117668 0)
(1.08323 -0.141299 0)
(1.08588 -0.168841 0)
(1.08419 -0.2 0)
(1.07661 -0.233757 0)
(1.06193 -0.268192 0)
(1.03986 -0.30063 0)
(1.00251 -0.0254919 0)
(1.00752 -0.026698 0)
(1.01256 -0.0290487 0)
(1.01777 -0.032554 0)
(1.02323 -0.0372837 0)
(1.02898 -0.0433609 0)
(1.03503 -0.0509598 0)
(1.04132 -0.060304 0)
(1.04772 -0.0716627 0)
(1.05397 -0.08534 0)
(1.05968 -0.101649 0)
(1.06426 -0.120865 0)
(1.06693 -0.14314 0)
(1.0667 -0.168378 0)
(1.06246 -0.196082 0)
(1.0532 -0.225222 0)
(1.0383 -0.254209 0)
(1.01785 -0.281106 0)
(1.0022 -0.0277869 0)
(1.00657 -0.0290687 0)
(1.01095 -0.0315605 0)
(1.01542 -0.035261 0)
(1.02002 -0.040225 0)
(1.02477 -0.0465545 0)
(1.02963 -0.054392 0)
(1.03449 -0.0639137 0)
(1.03917 -0.0753188 0)
(1.0434 -0.0888108 0)
(1.04678 -0.104566 0)
(1.04878 -0.122687 0)
(1.04873 -0.143131 0)
(1.04591 -0.165625 0)
(1.03958 -0.189592 0)
(1.02918 -0.214105 0)
(1.01451 -0.237952 0)
(0.995819 -0.259814 0)
(1.0018 -0.0301524 0)
(1.00536 -0.0314975 0)
(1.00888 -0.0341039 0)
(1.01242 -0.0379548 0)
(1.01596 -0.0430832 0)
(1.01949 -0.0495609 0)
(1.02293 -0.0574877 0)
(1.02614 -0.0669801 0)
(1.02893 -0.0781559 0)
(1.031 -0.0911126 0)
(1.032 -0.105897 0)
(1.0315 -0.122467 0)
(1.029 -0.140644 0)
(1.02402 -0.160071 0)
(1.01615 -0.180191 0)
(1.00516 -0.200258 0)
(0.991073 -0.219414 0)
(0.974202 -0.236814 0)
(1.00129 -0.0323631 0)
(1.00382 -0.0337448 0)
(1.00628 -0.0364119 0)
(1.00866 -0.0403274 0)
(1.01093 -0.0454964 0)
(1.01303 -0.0519522 0)
(1.01485 -0.0597433 0)
(1.01624 -0.0689198 0)
(1.017 -0.0795164 0)
(1.01689 -0.0915336 0)
(1.01562 -0.104914 0)
(1.01286 -0.119517 0)
(1.00831 -0.135099 0)
(1.00171 -0.1513 0)
(0.992868 -0.167653 0)
(0.981763 -0.183613 0)
(0.968523 -0.198616 0)
(0.953444 -0.212156 0)
(1.00066 -0.0340335 0)
(1.00192 -0.0354068 0)
(1.00308 -0.0380455 0)
(1.00409 -0.0418905 0)
(1.00488 -0.0469149 0)
(1.00536 -0.0531097 0)
(1.00542 -0.0604701 0)
(1.0049 -0.0689825 0)
(1.00366 -0.0786106 0)
(1.00148 -0.0892814 0)
(0.998173 -0.100872 0)
(0.993548 -0.113199 0)
(0.987443 -0.126016 0)
(0.979753 -0.139016 0)
(0.970451 -0.151849 0)
(0.959601 -0.164153 0)
(0.947363 -0.175583 0)
(0.933976 -0.185854 0)
(0.999907 -0.0345625 0)
(0.999679 -0.0358624 0)
(0.999328 -0.0383469 0)
(0.998771 -0.0419373 0)
(0.997918 -0.0465768 0)
(0.996671 -0.0522176 0)
(0.99492 -0.0588097 0)
(0.992547 -0.066291 0)
(0.989426 -0.0745778 0)
(0.985435 -0.0835578 0)
(0.980463 -0.0930856 0)
(0.974423 -0.102982 0)
(0.967263 -0.113038 0)
(0.958978 -0.123025 0)
(0.949611 -0.132707 0)
(0.939261 -0.141861 0)
(0.928071 -0.150291 0)
(0.916219 -0.157848 0)
(0.999068 -0.0330997 0)
(0.997176 -0.0342447 0)
(0.99517 -0.0364213 0)
(0.992942 -0.0395397 0)
(0.990391 -0.0435235 0)
(0.987424 -0.0482999 0)
(0.983949 -0.0537921 0)
(0.979884 -0.0599137 0)
(0.975154 -0.0665638 0)
(0.969698 -0.0736253 0)
(0.963476 -0.0809653 0)
(0.956472 -0.0884378 0)
(0.948697 -0.0958895 0)
(0.940191 -0.103167 0)
(0.931024 -0.110127 0)
(0.921289 -0.116641 0)
(0.9111 -0.122606 0)
(0.90058 -0.127949 0)
(0.998398 -0.0300468 0)
(0.995183 -0.0310091 0)
(0.991882 -0.0328303 0)
(0.988378 -0.035421 0)
(0.984573 -0.0386999 0)
(0.980381 -0.0425868 0)
(0.975732 -0.046999 0)
(0.970568 -0.0518478 0)
(0.964847 -0.057037 0)
(0.958545 -0.0624635 0)
(0.951654 -0.0680194 0)
(0.94419 -0.0735945 0)
(0.936184 -0.0790815 0)
(0.927688 -0.0843798 0)
(0.918772 -0.0894006 0)
(0.909513 -0.0940702 0)
(0.9 -0.0983325 0)
(0.890321 -0.10215 0)
(0.997953 -0.0264525 0)
(0.993861 -0.0272559 0)
(0.98971 -0.0287722 0)
(0.985381 -0.0309197 0)
(0.980779 -0.0336221 0)
(0.975828 -0.0368038 0)
(0.970469 -0.0403877 0)
(0.96466 -0.0442936 0)
(0.958377 -0.0484375 0)
(0.951613 -0.0527335 0)
(0.944377 -0.0570946 0)
(0.936696 -0.0614363 0)
(0.928608 -0.0656791 0)
(0.920167 -0.0697513 0)
(0.911436 -0.073592 0)
(0.902484 -0.0771523 0)
(0.893382 -0.0803964 0)
(0.884204 -0.0833015 0)
(0.997631 -0.022653 0)
(0.992909 -0.0233141 0)
(0.988152 -0.0245592 0)
(0.98324 -0.0263173 0)
(0.978082 -0.0285208 0)
(0.972609 -0.0311029 0)
(0.966772 -0.033996 0)
(0.960537 -0.0371312 0)
(0.953893 -0.0404383 0)
(0.946841 -0.0438468 0)
(0.939399 -0.0472878 0)
(0.931598 -0.0506959 0)
(0.923479 -0.0540111 0)
(0.915096 -0.0571809 0)
(0.906505 -0.0601616 0)
(0.897767 -0.0629192 0)
(0.888944 -0.0654293 0)
(0.880098 -0.0676774 0)
(0.997403 -0.018927 0)
(0.992234 -0.0194634 0)
(0.987047 -0.0204721 0)
(0.981726 -0.0218934 0)
(0.976183 -0.0236698 0)
(0.970352 -0.0257447 0)
(0.964189 -0.0280611 0)
(0.957671 -0.0305617 0)
(0.950789 -0.033189 0)
(0.943552 -0.0358863 0)
(0.935982 -0.0385993 0)
(0.928112 -0.0412772 0)
(0.919985 -0.0438743 0)
(0.911649 -0.0463513 0)
(0.903159 -0.0486762 0)
(0.89457 -0.0508243 0)
(0.885938 -0.0527785 0)
(0.877314 -0.0545289 0)
(0.997243 -0.0154259 0)
(0.991761 -0.0158538 0)
(0.986275 -0.016658 0)
(0.98067 -0.0177893 0)
(0.974861 -0.0192007 0)
(0.968785 -0.0208455 0)
(0.962402 -0.0226773 0)
(0.955693 -0.0246495 0)
(0.948655 -0.026716 0)
(0.941297 -0.0288322 0)
(0.933646 -0.0309553 0)
(0.925735 -0.0330463 0)
(0.917606 -0.0350701 0)
(0.909307 -0.0369973 0)
(0.900888 -0.0388038 0)
(0.892402 -0.0404716 0)
(0.883899 -0.0419883 0)
(0.875426 -0.043347 0)
(0.997133 -0.012222 0)
(0.991436 -0.0125561 0)
(0.985745 -0.0131834 0)
(0.979946 -0.0140651 0)
(0.973956 -0.0151637 0)
(0.967714 -0.016442 0)
(0.961184 -0.0178631 0)
(0.954348 -0.0193906 0)
(0.947206 -0.0209883 0)
(0.93977 -0.0226215 0)
(0.932066 -0.0242573 0)
(0.924129 -0.0258659 0)
(0.916002 -0.0274209 0)
(0.907729 -0.0289 0)
(0.89936 -0.0302853 0)
(0.890944 -0.0315637 0)
(0.882527 -0.0327259 0)
(0.874156 -0.0337672 0)
(0.99706 -0.00934043 0)
(0.991218 -0.0095932 0)
(0.98539 -0.0100676 0)
(0.979463 -0.010734 0)
(0.973352 -0.0115635 0)
(0.967 -0.0125277 0)
(0.960373 -0.0135986 0)
(0.953454 -0.0147482 0)
(0.946243 -0.0159492 0)
(0.938756 -0.0171755 0)
(0.931019 -0.0184024 0)
(0.923067 -0.0196078 0)
(0.914941 -0.0207719 0)
(0.906687 -0.0218785 0)
(0.898351 -0.0229144 0)
(0.889981 -0.02387 0)
(0.881622 -0.0247387 0)
(0.873317 -0.025517 0)
(0.997012 -0.00677878 0)
(0.991078 -0.00696102 0)
(0.985162 -0.00730298 0)
(0.979151 -0.00778308 0)
(0.972963 -0.00838039 0)
(0.966542 -0.00907428 0)
(0.959852 -0.00984435 0)
(0.95288 -0.0106704 0)
(0.945626 -0.0115328 0)
(0.938107 -0.0124126 0)
(0.93035 -0.0132924 0)
(0.922388 -0.0141561 0)
(0.914264 -0.0149898 0)
(0.906021 -0.015782 0)
(0.897707 -0.0165233 0)
(0.889367 -0.017207 0)
(0.881044 -0.0178285 0)
(0.872782 -0.0183854 0)
(0.996984 -0.00451959 0)
(0.990993 -0.00464061 0)
(0.985024 -0.00486764 0)
(0.978963 -0.00518632 0)
(0.972729 -0.00558266 0)
(0.966265 -0.00604291 0)
(0.959538 -0.00655346 0)
(0.952533 -0.0071009 0)
(0.945254 -0.00767214 0)
(0.937716 -0.00825469 0)
(0.929946 -0.00883693 0)
(0.921979 -0.00940834 0)
(0.913856 -0.00995975 0)
(0.905621 -0.0104835 0)
(0.897319 -0.0109736 0)
(0.888997 -0.0114255 0)
(0.880697 -0.0118362 0)
(0.872459 -0.0122044 0)
(0.996968 -0.00253807 0)
(0.990948 -0.00260588 0)
(0.984949 -0.00273309 0)
(0.978862 -0.00291161 0)
(0.972602 -0.00313361 0)
(0.966115 -0.00339134 0)
(0.959368 -0.00367717 0)
(0.952347 -0.00398358 0)
(0.945054 -0.00430324 0)
(0.937506 -0.00462914 0)
(0.929729 -0.0049548 0)
(0.921759 -0.00527433 0)
(0.913637 -0.00558263 0)
(0.905405 -0.00587542 0)
(0.897111 -0.00614935 0)
(0.888798 -0.00640192 0)
(0.88051 -0.00663152 0)
(0.872286 -0.0068373 0)
(0.996962 -0.000806677 0)
(0.990929 -0.00082821 0)
(0.984919 -0.0008686 0)
(0.97882 -0.000925282 0)
(0.972551 -0.00099576 0)
(0.966055 -0.00107758 0)
(0.9593 -0.00116831 0)
(0.952272 -0.00126556 0)
(0.944973 -0.001367 0)
(0.937421 -0.00147041 0)
(0.929641 -0.00157374 0)
(0.92167 -0.00167512 0)
(0.913548 -0.00177292 0)
(0.905318 -0.0018658 0)
(0.897027 -0.00195269 0)
(0.888718 -0.0020328 0)
(0.880434 -0.00210563 0)
(0.872216 -0.00217091 0)
(0.00543872 -0.011625 -1.50186e-28)
(0.0163592 -0.0116061 1.49812e-28)
(0.0273446 -0.0115731 0)
(0.038382 -0.0115259 0)
(0.0494575 -0.0114643 0)
(0.0605574 -0.0113885 -1.46478e-28)
(0.0716673 -0.0112985 0)
(0.0827729 -0.0111946 0)
(0.0938597 -0.0110772 0)
(0.104913 -0.0109465 0)
(0.115919 -0.0108032 1.38259e-28)
(0.126863 -0.0106477 0)
(0.137732 -0.0104807 0)
(0.148511 -0.0103029 0)
(0.159188 -0.010115 0)
(0.16975 -0.00991787 1.26182e-28)
(0.180186 -0.00971232 0)
(0.190483 -0.00949923 0)
(0.200631 -0.00927946 0)
(0.210621 -0.00905391 0)
(0.220443 -0.00882347 0)
(0.230089 -0.00858903 0)
(0.239551 -0.00835143 0)
(0.248822 -0.00811154 1.01902e-28)
(0.257897 -0.00787016 -9.86749e-29)
(0.266771 -0.00762805 9.54411e-29)
(0.275439 -0.00738598 9.221e-29)
(0.283897 -0.00714461 0)
(0.292143 -0.00690461 0)
(0.300175 -0.00666657 -8.26199e-29)
(0.307991 -0.00643105 -7.94836e-29)
(0.31559 -0.00619854 0)
(0.322973 -0.00596949 0)
(0.330139 -0.00574432 -7.03464e-29)
(0.33709 -0.00552338 0)
(0.343827 -0.00530697 0)
(0.350351 -0.00509537 6.17204e-29)
(0.356666 -0.00488881 0)
(0.362773 -0.00468746 5.63015e-29)
(0.368676 -0.00449148 1.07398e-28)
(0.374378 -0.00430098 0)
(0.379882 -0.00411605 0)
(0.385192 -0.00393674 0)
(0.390311 -0.00376308 0)
(0.395245 -0.00359507 0)
(0.399996 -0.00343271 7.92898e-29)
(0.40457 -0.00327595 7.51297e-29)
(0.408971 -0.00312473 7.1117e-29)
(0.413202 -0.002979 0)
(0.41727 -0.00283867 -6.35266e-29)
(0.421177 -0.00270365 0)
(0.424929 -0.00257384 5.64999e-29)
(0.42853 -0.00244912 5.31908e-29)
(0.431985 -0.00232938 0)
(0.435298 -0.0022145 0)
(0.438474 -0.00210435 0)
(0.441516 -0.0019988 4.1244e-29)
(0.44443 -0.00189772 0)
(0.447219 -0.00180098 0)
(0.449888 -0.00170844 0)
(0.45244 -0.00161996 0)
(0.454881 -0.00153542 0)
(0.457213 -0.00145467 0)
(0.459441 -0.00137759 0)
(0.461568 -0.00130405 0)
(0.463599 -0.00123392 -2.09507e-29)
(0.465536 -0.00116706 0)
(0.467384 -0.00110337 0)
(0.469145 -0.00104271 1.58772e-29)
(0.470823 -0.000984963 1.43448e-29)
(0.472422 -0.000930022 0)
(0.473944 -0.000877771 -1.15004e-29)
(0.475392 -0.000828099 1.01822e-29)
(0.47677 -0.000780902 0)
(0.47808 -0.000736074 -7.73986e-30)
(0.479325 -0.000693516 0)
(0.480509 -0.000653132 0)
(0.481632 -0.000614826 4.52196e-30)
(0.482699 -0.000578508 0)
(0.483711 -0.00054409 -2.64437e-30)
(0.48467 -0.000511488 0)
(0.48558 -0.000480619 9.59406e-31)
(0.486442 -0.000451404 1.83957e-31)
(0.487259 -0.000423768 -5.49681e-31)
(0.488031 -0.000397638 -2.48664e-30)
(0.488763 -0.000372941 3.79816e-30)
(0.489454 -0.000349612 0)
(0.490108 -0.000327584 0)
(0.490726 -0.000306794 0)
(0.49131 -0.000287183 8.35183e-30)
(0.491861 -0.000268692 9.3339e-30)
(0.49238 -0.000251266 -1.02593e-29)
(0.49287 -0.000234852 0)
(0.493332 -0.000219399 1.19517e-29)
(0.493768 -0.000204857 1.27243e-29)
(0.494177 -0.00019118 1.34507e-29)
(0.494563 -0.000178322 0)
(0.494926 -0.000166242 0)
(0.495267 -0.000154897 0)
(0.495588 -0.00014425 1.59435e-29)
(0.495889 -0.000134261 0)
(0.496171 -0.000124896 0)
(0.496436 -0.000116119 -1.74376e-29)
(0.496685 -0.0001079 0)
(0.496918 -0.000100206 0)
(0.497136 -9.30081e-05 -1.86656e-29)
(0.49734 -8.62778e-05 0)
(0.497531 -7.99885e-05 0)
(0.49771 -7.41144e-05 1.96695e-29)
(0.497877 -6.86316e-05 1.99608e-29)
(0.498033 -6.35167e-05 0)
(0.498178 -5.8748e-05 -2.04862e-29)
(0.498314 -5.43045e-05 0)
(0.498441 -5.01668e-05 2.09421e-29)
(0.498559 -4.63158e-05 0)
(0.498669 -4.27342e-05 2.13372e-29)
(0.498771 -3.94048e-05 2.15139e-29)
(0.498866 -3.6312e-05 0)
(0.498954 -3.34406e-05 0)
(0.499036 -3.07766e-05 0)
(0.499112 -2.83064e-05 0)
(0.499183 -2.60174e-05 0)
(0.499249 -2.38977e-05 0)
(0.499309 -2.1936e-05 0)
(0.499366 -2.01214e-05 2.25392e-29)
(0.499418 -1.84443e-05 -2.26281e-29)
(0.499466 -1.68949e-05 0)
(0.49951 -1.54645e-05 0)
(0.499551 -1.41446e-05 0)
(0.499589 -1.29276e-05 0)
(0.499624 -1.18057e-05 -4.59622e-29)
(0.499656 -1.07723e-05 0)
(0.499686 -9.82049e-06 4.61734e-29)
(0.499713 -8.94431e-06 -4.62666e-29)
(0.499738 -8.13769e-06 0)
(0.499761 -7.39527e-06 0)
(0.499782 -6.71159e-06 0)
(0.499801 -6.08178e-06 4.65711e-29)
(0.499818 -5.50086e-06 4.66328e-29)
(0.499834 -4.9643e-06 0)
(0.499849 -4.46747e-06 4.67424e-29)
(0.499862 -4.00597e-06 4.67911e-29)
(0.499874 -3.57528e-06 -4.68371e-29)
(0.499885 -3.17083e-06 0)
(0.499894 -2.78786e-06 0)
(0.499903 -2.42134e-06 -4.69591e-29)
(0.49991 -2.06581e-06 0)
(0.499916 -1.71524e-06 0)
(0.499922 -1.36279e-06 0)
(0.499926 -1.00057e-06 0)
(0.499928 -6.19298e-07 4.71477e-29)
(0.49993 -2.07901e-07 4.71904e-29)
(0.49993 2.47067e-07 0)
(0.499928 7.62022e-07 4.72906e-29)
(0.499924 1.35731e-06 0)
(0.499918 2.05825e-06 0)
(0.499909 2.89664e-06 4.75095e-29)
(0.499897 3.91259e-06 0)
(0.49988 5.15704e-06 4.77406e-29)
(0.499858 6.69491e-06 0)
(0.49983 8.60947e-06 0)
(0.499793 1.1008e-05 4.83372e-29)
(0.499746 1.40293e-05 0)
(0.499685 1.78547e-05 4.90348e-29)
(0.499606 2.27218e-05 0)
(0.499505 2.89451e-05 0)
(0.499375 3.69453e-05 0)
(0.499208 4.72911e-05 -5.20335e-29)
(0.498991 6.07633e-05 0)
(0.498708 7.84537e-05 5.52085e-29)
(0.498339 0.000101924 0)
(0.497852 0.000133474 0)
(0.497205 0.000176616 0)
(0.496333 0.00023698 0)
(0.495139 0.000324172 0)
(0.493462 0.000456023 0)
(0.491018 0.00066978 0)
(0.487232 0.00105784 -3.10781e-28)
(0.480647 0.00191641 0)
(0.466053 0.00460854 0)
(0.00546819 -0.0349381 4.51369e-28)
(0.0164476 -0.0348809 -4.50241e-28)
(0.0274919 -0.0347811 0)
(0.0385875 -0.0346381 8.9355e-28)
(0.0497203 -0.0344518 0)
(0.0608763 -0.0342224 -4.41596e-28)
(0.0720406 -0.0339503 -8.74192e-28)
(0.0831987 -0.0336362 -8.65544e-28)
(0.0943356 -0.033281 0)
(0.105437 -0.0328859 -8.45102e-28)
(0.116487 -0.0324526 4.18065e-28)
(0.127473 -0.0319827 0)
(0.13838 -0.0314781 0)
(0.149194 -0.0309411 0)
(0.159903 -0.0303738 0)
(0.170493 -0.0297788 3.82869e-28)
(0.180952 -0.0291585 0)
(0.19127 -0.0285157 7.2808e-28)
(0.201435 -0.0278529 0)
(0.211438 -0.0271729 0)
(0.22127 -0.0264784 -6.74002e-28)
(0.230922 -0.0257721 0)
(0.240387 -0.0250565 6.36344e-28)
(0.249658 -0.0243342 3.11565e-28)
(0.258731 -0.0236077 -3.02068e-28)
(0.267599 -0.0228792 2.92548e-28)
(0.276259 -0.022151 2.83033e-28)
(0.284707 -0.0214251 0)
(0.292942 -0.0207036 0)
(0.300959 -0.0199881 -2.54788e-28)
(0.30876 -0.0192804 -7.29355e-28)
(0.316343 -0.0185819 0)
(0.323707 -0.017894 0)
(0.330855 -0.0172178 -2.1863e-28)
(0.337786 -0.0165545 0)
(0.344502 -0.015905 0)
(0.351006 -0.01527 1.93216e-28)
(0.3573 -0.0146501 0)
(0.363385 -0.0140461 5.23176e-28)
(0.369267 -0.0134582 3.39169e-28)
(0.374947 -0.0128869 0)
(0.380429 -0.0123323 0)
(0.385717 -0.0117947 -5.73344e-28)
(0.390816 -0.011274 -5.45946e-28)
(0.395729 -0.0107704 -5.19445e-28)
(0.40046 -0.0102837 7.5021e-28)
(0.405014 -0.00981386 2.4412e-28)
(0.409395 -0.00936068 -2.1297e-28)
(0.413608 -0.00892395 4.22297e-28)
(0.417657 -0.00850344 -2.09948e-28)
(0.421546 -0.00809886 0)
(0.425281 -0.0077099 1.89256e-28)
(0.428866 -0.00733623 5.18284e-28)
(0.432304 -0.00697749 0)
(0.435602 -0.00663332 0)
(0.438762 -0.00630334 0)
(0.44179 -0.00598715 1.44334e-28)
(0.44469 -0.00568435 0)
(0.447466 -0.00539455 2.36634e-28)
(0.450122 -0.00511735 0)
(0.452662 -0.00485232 2.08111e-28)
(0.455091 -0.00459908 0)
(0.457412 -0.00435722 -1.82066e-28)
(0.459629 -0.00412635 0)
(0.461746 -0.00390607 1.58333e-28)
(0.463767 -0.003696 -2.31872e-28)
(0.465695 -0.00349575 0)
(0.467534 -0.00330497 -1.2671e-28)
(0.469287 -0.00312328 6.96553e-29)
(0.470957 -0.00295032 6.5145e-29)
(0.472548 -0.00278576 0)
(0.474063 -0.00262926 -1.47933e-28)
(0.475504 -0.00248048 5.28926e-29)
(0.476876 -0.00233912 0)
(0.47818 -0.00220485 -4.57044e-29)
(0.479419 -0.00207738 -6.21228e-29)
(0.480597 -0.00195641 0)
(0.481715 -0.00184168 3.62334e-29)
(0.482776 -0.0017329 0)
(0.483784 -0.00162981 7.86391e-30)
(0.484739 -0.00153215 0)
(0.485644 -0.00143969 -2.81789e-30)
(0.486502 -0.00135218 2.34671e-29)
(0.487315 -0.00126941 4.09142e-29)
(0.488084 -0.00119113 6.95074e-29)
(0.488812 -0.00111716 -5.78619e-29)
(0.489501 -0.00104728 0)
(0.490152 -0.000981298 0)
(0.490767 -0.000919025 0)
(0.491348 -0.000860281 -2.51269e-29)
(0.491896 -0.000804894 -1.83854e-29)
(0.492413 -0.000752696 1.56625e-29)
(0.492901 -0.000703528 0)
(0.493361 -0.000657238 1.45437e-29)
(0.493795 -0.000613678 -8.41e-30)
(0.494203 -0.000572708 -6.27265e-30)
(0.494587 -0.000534193 0)
(0.494948 -0.000498007 0)
(0.495287 -0.000464024 0)
(0.495606 -0.000432128 1.06144e-30)
(0.495906 -0.000402206 0)
(0.496188 -0.000374152 5.50303e-29)
(0.496451 -0.000347862 5.23411e-29)
(0.496699 -0.00032324 -6.03915e-29)
(0.496931 -0.000300192 0)
(0.497148 -0.00027863 -7.41585e-29)
(0.497351 -0.000258469 0)
(0.497542 -0.000239628 -6.91959e-29)
(0.49772 -0.000222031 8.30715e-29)
(0.497886 -0.000205607 8.56586e-29)
(0.498041 -0.000190284 0)
(0.498186 -0.000175998 6.14718e-29)
(0.498321 -0.000162687 -7.72982e-29)
(0.498447 -0.000150292 1.57661e-29)
(0.498565 -0.000138755 0)
(0.498674 -0.000128026 1.6928e-29)
(0.498776 -0.000118052 -6.45516e-29)
(0.49887 -0.000108787 0)
(0.498958 -0.000100185 -8.38814e-29)
(0.49904 -9.22037e-05 -8.47222e-29)
(0.499116 -8.48035e-05 -8.55017e-29)
(0.499186 -7.79463e-05 0)
(0.499252 -7.1596e-05 0)
(0.499312 -6.5719e-05 0)
(0.499368 -6.0283e-05 1.08548e-28)
(0.49942 -5.52585e-05 -2.0725e-29)
(0.499468 -5.06168e-05 0)
(0.499512 -4.63316e-05 8.95542e-29)
(0.499553 -4.23775e-05 8.99709e-29)
(0.499591 -3.87314e-05 0)
(0.499625 -3.53705e-05 -4.35258e-29)
(0.499657 -3.22744e-05 1.82071e-28)
(0.499687 -2.9423e-05 4.41467e-29)
(0.499714 -2.6798e-05 -2.27645e-28)
(0.499739 -2.43816e-05 0)
(0.499762 -2.21574e-05 0)
(0.499783 -2.01093e-05 0)
(0.499802 -1.82225e-05 4.53159e-29)
(0.499819 -1.64823e-05 2.30895e-28)
(0.499835 -1.48749e-05 1.85736e-28)
(0.49985 -1.33868e-05 4.58202e-29)
(0.499863 -1.20045e-05 2.32304e-28)
(0.499875 -1.07145e-05 -4.60989e-29)
(0.499885 -9.50332e-06 0)
(0.499895 -8.35656e-06 0)
(0.499903 -7.25921e-06 -2.33795e-28)
(0.499911 -6.19497e-06 0)
(0.499917 -5.1458e-06 0)
(0.499922 -4.09127e-06 1.87999e-28)
(0.499926 -3.0078e-06 0)
(0.499929 -1.86767e-06 2.35479e-28)
(0.49993 -6.37777e-07 4.7146e-29)
(0.49993 7.21982e-07 0)
(0.499928 2.26068e-06 2.3676e-28)
(0.499925 4.03903e-06 0)
(0.499919 6.13264e-06 0)
(0.49991 8.63641e-06 4.81031e-29)
(0.499898 1.16701e-05 1.91249e-28)
(0.499882 1.53857e-05 4.87984e-29)
(0.49986 1.99771e-05 0)
(0.499832 2.56926e-05 0)
(0.499796 3.28523e-05 2.46187e-28)
(0.499749 4.18706e-05 0)
(0.499689 5.32875e-05 2.52475e-28)
(0.499612 6.78118e-05 0)
(0.499513 8.63808e-05 0)
(0.499385 0.000110247 0)
(0.49922 0.000141103 -6.17345e-29)
(0.499006 0.000181269 0)
(0.498729 0.000233988 7.12923e-29)
(0.498366 0.000303888 0)
(0.497889 0.000397767 0)
(0.497255 0.000525976 2.96606e-28)
(0.496403 0.00070502 -3.3331e-28)
(0.495242 0.000962838 0)
(0.493623 0.00135064 0)
(0.491295 0.00197291 0)
(0.487799 0.00307695 9.12694e-28)
(0.482242 0.00537996 0)
(0.473475 0.011584 -5.14873e-27)
(0.00552794 -0.0584419 3.02072e-27)
(0.0166269 -0.058345 -3.95684e-31)
(0.0277903 -0.0581758 0)
(0.0390039 -0.0579334 9.23967e-31)
(0.0502529 -0.0576176 0)
(0.0615222 -0.0572288 0)
(0.0727966 -0.0567676 -2.92621e-27)
(0.0840607 -0.0562354 -1.44968e-27)
(0.0952989 -0.0556338 1.43134e-27)
(0.106496 -0.0549651 -1.41578e-27)
(0.117637 -0.0542318 0)
(0.128706 -0.0534371 0)
(0.13969 -0.0525841 -1.34937e-27)
(0.150575 -0.0516768 -2.65029e-27)
(0.161346 -0.050719 2.59925e-27)
(0.171991 -0.0497149 0)
(0.182498 -0.0486689 2.49026e-27)
(0.192856 -0.0475856 1.22095e-27)
(0.203055 -0.0464694 0)
(0.213083 -0.0453249 2.31305e-27)
(0.222934 -0.0441568 -1.1309e-27)
(0.232598 -0.0429696 -2.18852e-27)
(0.242069 -0.0417676 1.06823e-27)
(0.25134 -0.040555 0)
(0.260406 -0.0393361 1.99673e-27)
(0.269263 -0.0381147 1.93233e-27)
(0.277906 -0.0368945 0)
(0.286334 -0.0356789 1.80399e-27)
(0.294543 -0.0344712 0)
(0.302533 -0.0332743 1.67738e-27)
(0.310302 -0.032091 -8.1488e-28)
(0.317851 -0.0309237 0)
(0.325179 -0.0297746 0)
(0.332288 -0.0286456 0)
(0.339179 -0.0275385 0)
(0.345855 -0.0264548 0)
(0.352316 -0.0253958 0)
(0.358567 -0.0243624 1.20871e-27)
(0.364609 -0.0233557 -5.69294e-28)
(0.370447 -0.0223762 0)
(0.376084 -0.0214245 0)
(0.381523 -0.020501 0)
(0.386768 -0.0196059 -1.93589e-27)
(0.391825 -0.0187393 -9.31797e-28)
(0.396696 -0.0179012 -1.87334e-29)
(0.401386 -0.0170914 1.89546e-29)
(0.4059 -0.0163098 -7.85696e-28)
(0.410243 -0.015556 -7.65484e-28)
(0.414418 -0.0148297 1.43551e-27)
(0.41843 -0.0141305 6.71253e-28)
(0.422283 -0.0134578 0)
(0.425983 -0.0128111 6.01975e-28)
(0.429534 -0.01219 1.159e-27)
(0.432941 -0.0115937 0)
(0.436207 -0.0110216 0)
(0.439338 -0.0104732 -4.79216e-28)
(0.442337 -0.00994776 0)
(0.445209 -0.00944458 0)
(0.447958 -0.00896302 1.22091e-27)
(0.450589 -0.0085024 7.51468e-28)
(0.453105 -0.00806205 3.74008e-28)
(0.45551 -0.00764128 0)
(0.457809 -0.00723943 -3.31035e-28)
(0.460005 -0.00685585 0)
(0.462102 -0.00648987 8.31994e-28)
(0.464103 -0.00614085 -2.73646e-28)
(0.466012 -0.00580817 -4.68522e-28)
(0.467834 -0.0054912 -6.7494e-28)
(0.46957 -0.00518935 0)
(0.471224 -0.00490201 3.73351e-28)
(0.4728 -0.00462862 0)
(0.4743 -0.00436861 1.36268e-28)
(0.475728 -0.00412144 2.91366e-28)
(0.477086 -0.00388658 2.66698e-28)
(0.478378 -0.00366351 -2.43267e-28)
(0.479606 -0.00345173 8.78645e-29)
(0.480772 -0.00325077 0)
(0.48188 -0.00306014 0)
(0.482932 -0.00287941 -1.60904e-28)
(0.483929 -0.00270814 -4.86052e-29)
(0.484876 -0.00254589 0)
(0.485773 -0.00239227 -7.78024e-29)
(0.486623 -0.00224689 0)
(0.487428 -0.00210935 -1.6988e-29)
(0.48819 -0.00197931 1.78794e-28)
(0.488912 -0.0018564 -1.53036e-28)
(0.489594 -0.00174029 4.12341e-29)
(0.490239 -0.00163066 0)
(0.490848 -0.00152719 -1.88442e-29)
(0.491424 -0.00142958 6.35874e-29)
(0.491967 -0.00133755 0)
(0.49248 -0.00125082 0)
(0.492963 -0.00116912 0)
(0.493419 -0.00109221 -1.97372e-29)
(0.493849 -0.00101982 0)
(0.494253 -0.000951747 0)
(0.494633 -0.000887749 0)
(0.494991 -0.000827618 0)
(0.495328 -0.000771149 0)
(0.495644 -0.000718147 -6.61669e-29)
(0.495941 -0.000668425 0)
(0.49622 -0.000621806 2.94297e-29)
(0.496482 -0.00057812 3.39964e-29)
(0.496727 -0.000537203 -3.82736e-29)
(0.496957 -0.000498903 0)
(0.497172 -0.00046307 -4.60227e-29)
(0.497374 -0.000429566 0)
(0.497562 -0.000398256 -5.27981e-29)
(0.497739 -0.000369014 5.58547e-29)
(0.497904 -0.000341718 -1.52748e-28)
(0.498057 -0.000316254 0)
(0.498201 -0.000292513 -1.57949e-28)
(0.498335 -0.000270392 -2.92616e-28)
(0.49846 -0.000249792 0)
(0.498577 -0.000230619 -2.34813e-28)
(0.498685 -0.000212787 -2.38563e-28)
(0.498786 -0.000196212 1.68127e-28)
(0.49888 -0.000180813 0)
(0.498967 -0.000166517 -7.70244e-29)
(0.499048 -0.000153253 -7.84113e-29)
(0.499123 -0.000140954 1.73968e-28)
(0.499193 -0.000129558 0)
(0.499258 -0.000119003 0)
(0.499318 -0.000109236 0)
(0.499373 -0.000100201 3.46192e-28)
(0.499425 -9.185e-05 0)
(0.499472 -8.41354e-05 0)
(0.499516 -7.70131e-05 8.63826e-29)
(0.499556 -7.04413e-05 8.70699e-29)
(0.499594 -6.4381e-05 0)
(0.499628 -5.87952e-05 0)
(0.49966 -5.36492e-05 1.77651e-28)
(0.499689 -4.89101e-05 0)
(0.499716 -4.45471e-05 -1.79555e-28)
(0.499741 -4.0531e-05 2.74782e-28)
(0.499763 -3.68343e-05 0)
(0.499784 -3.34305e-05 0)
(0.499803 -3.02947e-05 -2.76935e-28)
(0.499821 -2.74029e-05 4.60682e-28)
(0.499836 -2.47319e-05 4.61801e-28)
(0.499851 -2.22592e-05 0)
(0.499864 -1.99627e-05 -9.4411e-29)
(0.499876 -1.78199e-05 0)
(0.499886 -1.58083e-05 0)
(0.499896 -1.39042e-05 0)
(0.499904 -1.20826e-05 -1.86339e-28)
(0.499911 -1.03167e-05 0)
(0.499918 -8.57655e-06 -5.62981e-28)
(0.499923 -6.82836e-06 1.87433e-28)
(0.499927 -5.03317e-06 0)
(0.49993 -3.14517e-06 1.88197e-28)
(0.499931 -1.10966e-06 0)
(0.499931 1.13957e-06 0)
(0.49993 3.68357e-06 -3.78456e-28)
(0.499926 6.62254e-06 5.69276e-28)
(0.499921 1.00813e-05 0)
(0.499912 1.42165e-05 5.72401e-28)
(0.499901 1.92257e-05 1.92812e-28)
(0.499885 2.53597e-05 0)
(0.499864 3.29381e-05 0)
(0.499837 4.23706e-05 0)
(0.499802 5.41847e-05 -3.88802e-28)
(0.499756 6.90631e-05 0)
(0.499698 8.78954e-05 2.06937e-28)
(0.499623 0.000111848 0)
(0.499527 0.000142461 0)
(0.499403 0.000181793 0)
(0.499244 0.000232619 0)
(0.499037 0.000298738 0)
(0.498769 0.000385443 0)
(0.498419 0.000500261 -7.71732e-28)
(0.49796 0.000654203 0)
(0.497352 0.000863914 3.66527e-28)
(0.496541 0.00115568 6.14121e-28)
(0.495442 0.00157335 0)
(0.493932 0.00219537 0)
(0.491813 0.00317541 -1.87066e-27)
(0.488781 0.00485025 2.37528e-27)
(0.484471 0.00805901 3.88214e-27)
(0.479328 0.0151148 -6.61346e-27)
(0.00561962 -0.0822696 -2.12594e-27)
(0.016902 -0.0821303 -2.121e-27)
(0.0282481 -0.0818873 -4.22811e-27)
(0.0396425 -0.081539 -6.31287e-27)
(0.0510693 -0.0810854 0)
(0.0625122 -0.0805269 4.15131e-27)
(0.0739548 -0.0798647 -6.17412e-27)
(0.0853807 -0.0791009 0)