/*--------------------------------*- C++ -*----------------------------------*\
  =========                 |
  \\      /  F ield         | OpenFOAM: The Open Source CFD Toolbox
   \\    /   O peration     | Website:  https://openfoam.org
    \\  /    A nd           | Version:  6
     \\/     M anipulation  |
\*---------------------------------------------------------------------------*/
FoamFile
{
    version     2.0;
    format      ascii;
    class       volScalarField;
    location    "5";
    object      p;
}
// * * * * * * * * * * * * * * * * * * * * * * * * * * * * * * * * * * * * * //

dimensions      [0 2 -2 0 0 0 0];

internalField   nonuniform List<scalar> 
13046
(
0.806348
0.774959
0.859892
0.810043
0.851472
0.798284
0.78758
0.801556
0.86175
0.477293
0.455182
0.832338
0.786344
0.741641
0.855584
0.563334
0.833414
0.483123
0.849863
0.835529
0.798792
0.549601
0.835058
0.481467
0.810647
0.807817
0.850492
0.771257
0.738822
0.858729
0.81737
0.749558
0.853103
0.826212
0.851614
0.805487
0.824525
0.853408
0.81858
0.826271
0.84455
0.72621
0.823722
0.847245
0.831459
0.818806
0.83932
0.834363
0.791162
0.77477
0.860853
0.810174
0.835299
0.668811
0.817026
0.64733
0.841962
0.570972
0.722883
0.838607
0.69872
0.731793
0.853187
0.840578
0.577143
0.601698
0.743697
0.574435
0.834088
0.759884
0.587108
0.834602
0.547625
0.707081
0.838082
0.849922
0.848462
0.779929
0.840504
0.667035
0.545252
0.802345
0.804082
0.850594
0.83798
0.551819
0.573742
0.564375
0.841369
0.614925
0.835045
0.502276
0.62374
0.710784
0.687997
0.67558
0.66447
0.848954
0.851348
0.842569
0.565637
0.63422
0.815892
0.844707
0.827863
0.855375
0.686143
0.81756
0.831896
0.833035
0.694332
0.35693
0.82693
0.344672
0.792255
0.758529
0.851897
0.694156
0.711436
0.629859
0.846287
0.659046
0.847091
0.453729
0.423905
0.831014
0.753492
0.69047
0.858318
0.819396
0.84601
0.726137
0.834395
0.523658
0.654631
0.647538
0.642221
0.846363
0.807722
0.738953
0.851064
0.737067
0.797992
0.853415
0.83031
0.819521
0.692915
0.851146
0.705972
0.826112
0.692202
0.708323
0.850387
0.863929
0.750901
0.819333
0.783926
0.641109
0.769324
0.635319
0.845486
0.846787
0.733421
0.782932
0.84657
0.468429
0.832342
0.471824
0.398011
0.828168
0.371237
0.638795
0.620254
0.846154
0.81888
0.675388
0.845359
0.737951
0.845513
0.794558
0.835861
0.513185
0.479332
0.821902
0.694279
0.838357
0.862005
0.735085
0.814991
0.750891
0.799671
0.850745
0.735892
0.860575
0.760163
0.712833
0.854522
0.553646
0.83855
0.573318
0.840129
0.558449
0.65615
0.510665
0.609271
0.83372
0.803825
0.626993
0.826421
0.766588
0.676533
0.835941
0.539945
0.576317
0.499473
0.834662
0.813468
0.853461
0.820924
0.78292
0.742141
0.856552
0.83997
0.544651
0.666739
0.753202
0.748944
0.863115
0.82971
0.421093
0.404344
0.82987
0.624535
0.794252
0.539995
0.633139
0.838105
0.680149
0.77943
0.852778
0.747322
0.692156
0.857798
0.712341
0.56091
0.833634
0.61308
0.754852
0.840737
0.829024
0.42129
0.378031
0.836266
0.840533
0.681582
0.38937
0.825874
0.295417
0.847113
0.802448
0.826239
0.69308
0.698498
0.767216
0.782281
0.856348
0.848489
0.833882
0.645167
0.522944
0.766461
0.700939
0.852469
0.608383
0.72936
0.843787
0.667097
0.636746
0.846522
0.832881
0.821929
0.848078
0.658904
0.764148
0.848307
0.769559
0.679532
0.852125
0.758628
0.752126
0.83892
0.834054
0.664412
0.653808
0.74541
0.847303
0.639576
0.844898
0.627236
0.847285
0.832177
0.708366
0.845238
0.625771
0.777375
0.723274
0.631852
0.843252
0.834568
0.816038
0.664671
0.703312
0.691198
0.618111
0.842293
0.613795
0.845418
0.835962
0.5278
0.503153
0.72587
0.671767
0.849861
0.252504
0.824698
0.290167
0.779403
0.845286
0.813487
0.717471
0.743045
0.853532
0.841577
0.582498
0.598634
0.810696
0.626484
0.839862
0.691809
0.556857
0.836335
0.775677
0.858163
0.708545
0.72483
0.854344
0.769966
0.858391
0.593044
0.835128
0.508028
0.813269
0.607567
0.827141
0.692441
0.712747
0.851465
0.727608
0.790835
0.85664
0.690535
0.808463
0.84605
0.805692
0.781637
0.857459
0.83504
0.629789
0.785872
0.535075
0.586949
0.837412
0.696546
0.558349
0.839846
0.773717
0.830351
0.611592
0.683305
0.699836
0.592959
0.571703
0.835992
0.839048
0.82532
0.271808
0.321638
0.413359
0.826596
0.3151
0.67899
0.756647
0.844149
0.836585
0.541899
0.54628
0.747053
0.737349
0.62322
0.613075
0.843743
0.841397
0.828699
0.543365
0.438607
0.370815
0.824803
0.259027
0.800925
0.843785
0.843689
0.355504
0.306857
0.826548
0.80764
0.678395
0.842517
0.48693
0.529661
0.835709
0.278916
0.825068
0.212772
0.831941
0.840652
0.741829
0.785787
0.832951
0.851141
0.464797
0.831296
0.412439
0.774628
0.826161
0.851723
0.810534
0.843515
0.843865
0.838755
0.601535
0.795787
0.768396
0.845415
0.847203
0.783824
0.817017
0.841784
0.787648
0.617329
0.828663
0.835146
0.836177
0.48467
0.485022
0.523257
0.512799
0.503724
0.574394
0.835965
0.837547
0.768916
0.585957
0.823996
0.834124
0.699315
0.599436
0.750617
0.833193
0.370554
0.82449
0.264643
0.835195
0.494445
0.604025
0.414329
0.829573
0.4019
0.825414
0.249078
0.202134
0.20159
0.82536
0.250182
0.719238
0.644673
0.844089
0.48074
0.825895
0.363898
0.624794
0.643332
0.845972
0.532865
0.828264
0.41538
0.779987
0.854977
0.785628
0.565651
0.831396
0.460744
0.608184
0.833373
0.760321
0.719924
0.60974
0.846755
0.826541
0.117234
0.118123
0.288487
0.824799
0.262886
0.792805
0.857492
0.787481
0.530739
0.437244
0.830993
0.82926
0.406906
0.528641
0.546438
0.836929
0.543449
0.836082
0.539654
0.627466
0.802333
0.602852
0.830698
0.591082
0.720369
0.844113
0.834211
0.60711
0.480899
0.791402
0.781196
0.698573
0.683481
0.849647
0.852679
0.801132
0.698904
0.84774
0.76206
0.607589
0.845407
0.707284
0.582604
0.840789
0.564011
0.498156
0.837396
0.839824
0.58405
0.678665
0.206764
0.825208
0.280997
0.831449
0.82304
0.852597
0.745132
0.856345
0.756907
0.787764
0.784708
0.840549
0.630944
0.843112
0.655864
0.299542
0.823963
0.21586
0.541639
0.459945
0.832663
0.819969
0.823377
0.664093
0.729291
0.577396
0.836684
0.836648
0.548013
0.645441
0.355991
0.329566
0.827019
0.389568
0.343102
0.827399
0.738481
0.631563
0.848214
0.850903
0.824922
0.723045
0.527457
0.835255
0.511979
0.71137
0.623294
0.848673
0.844471
0.59196
0.626566
0.794664
0.841762
0.655478
0.687089
0.788882
0.846801
0.831637
0.840114
0.712289
0.834622
0.505781
0.500638
0.670152
0.620732
0.845426
0.835333
0.845543
0.751071
0.580225
0.831019
0.454102
0.796833
0.734005
0.854431
0.764156
0.800783
0.857541
0.730763
0.627208
0.844545
0.459495
0.827513
0.352106
0.482692
0.827451
0.362494
0.843232
0.577584
0.628177
0.662283
0.797368
0.841095
0.82532
0.313569
0.425474
0.842813
0.619645
0.602165
0.824531
0.223984
0.166121
0.223687
0.164876
0.824473
0.836687
0.501486
0.61065
0.831832
0.460518
0.439684
0.558839
0.578167
0.834399
0.502681
0.837185
0.533948
0.589211
0.634928
0.84287
0.84338
0.744462
0.571013
0.828999
0.851598
0.77407
0.601203
0.66346
0.844645
0.844758
0.608686
0.678154
0.628751
0.834181
0.488794
0.781339
0.613122
0.842107
0.795399
0.666602
0.838883
0.655767
0.705801
0.852258
0.642962
0.701104
0.849925
0.83864
0.837373
0.769216
0.779984
0.666433
0.855422
0.831693
0.580358
0.455476
0.325324
0.826788
0.403643
0.296484
0.826164
0.404521
0.816917
0.847481
0.710401
0.333538
0.825875
0.288742
0.652392
0.843806
0.590527
0.824951
0.34225
0.255963
0.811911
0.851555
0.809919
0.745782
0.731197
0.855092
0.801733
0.669412
0.841918
0.827432
0.498666
0.394036
0.710037
0.624953
0.84602
0.830602
0.558767
0.448288
0.723113
0.720537
0.857871
0.833278
0.854229
0.782126
0.494096
0.414994
0.830372
0.843598
0.597175
0.603554
0.446559
0.420985
0.828456
0.827604
0.380323
0.35581
0.713864
0.772925
0.855772
0.73197
0.660624
0.844064
0.775811
0.801539
0.862649
0.440342
0.355658
0.449582
0.827924
0.349795
0.826374
0.686929
0.678503
0.853503
0.41347
0.384695
0.474601
0.450212
0.830809
0.828791
0.66176
0.750363
0.85518
0.743792
0.757022
0.85609
0.509537
0.829685
0.403531
0.730221
0.753659
0.854326
0.770029
0.782437
0.856034
0.459253
0.82779
0.378177
0.730081
0.689064
0.850734
0.776498
0.588999
0.834387
0.801133
0.633053
0.837808
0.674435
0.832574
0.52557
0.825599
0.150806
0.151842
0.71947
0.740686
0.854981
0.526747
0.831539
0.450738
0.822684
0.603739
0.815085
0.294502
0.823863
0.217704
0.851331
0.84341
0.819938
0.739604
0.822771
0.723784
0.77764
0.805746
0.856541
0.83594
0.847496
0.833295
0.742376
0.841662
0.737401
0.733977
0.768415
0.861457
0.742513
0.774192
0.859701
0.825361
0.426329
0.30965
0.809559
0.712998
0.844416
0.442663
0.482717
0.832558
0.65143
0.632803
0.684785
0.662538
0.847976
0.844804
0.803148
0.737588
0.849246
0.759923
0.641878
0.842714
0.686084
0.707729
0.855024
0.833606
0.8039
0.84423
0.622443
0.673336
0.846028
0.826203
0.845059
0.774936
0.680006
0.741014
0.854123
0.75684
0.662655
0.843569
0.832895
0.836341
0.789777
0.852514
0.78711
0.848192
0.839964
0.830169
0.84955
0.77114
0.848131
0.748136
0.791701
0.783746
0.714701
0.715176
0.853812
0.850719
0.83802
0.551369
0.633454
0.832517
0.608552
0.785731
0.839378
0.840057
0.534753
0.548729
0.608574
0.602733
0.829603
0.82238
0.641511
0.832753
0.844659
0.819969
0.6189
0.654472
0.845412
0.825625
0.84936
0.732056
0.747467
0.657876
0.844738
0.672705
0.674373
0.569746
0.842186
0.58627
0.842965
0.665102
0.669657
0.848298
0.323688
0.252244
0.824724
0.816709
0.617765
0.818472
0.806335
0.809826
0.82607
0.614636
0.835057
0.628412
0.597991
0.694949
0.84262
0.768585
0.651781
0.844699
0.827816
0.82171
0.641405
0.806105
0.811747
0.829801
0.845633
0.665193
0.661715
0.803466
0.837747
0.640237
0.667608
0.685031
0.851135
0.833473
0.844114
0.778086
0.488951
0.830604
0.429102
0.82388
0.825703
0.627382
0.752611
0.734707
0.664507
0.655297
0.845056
0.850415
0.832036
0.453113
0.512524
0.510391
0.830902
0.419175
0.486344
0.829535
0.407928
0.653849
0.842109
0.576972
0.776411
0.670601
0.846593
0.568783
0.648459
0.783233
0.57439
0.739812
0.391009
0.695024
0.609704
0.553354
0.729578
0.726451
0.534565
0.57377
0.729522
0.62907
0.581591
0.582223
0.624866
0.64462
0.699097
0.651053
0.618969
0.740065
0.826829
0.792741
0.654229
0.751146
0.539481
0.668899
0.561274
0.549153
0.689409
0.651219
0.638745
0.566393
0.662808
0.776482
0.738079
0.596271
0.668676
0.608348
0.824755
0.581013
0.727709
0.756973
0.610236
0.617126
0.594601
0.537651
0.58187
0.795745
0.65039
0.584603
0.613534
0.548563
0.790138
0.701909
0.655064
0.595342
0.721444
0.579486
0.585788
0.793521
0.623612
0.655005
0.703968
0.663469
0.820719
0.739271
0.732233
0.525895
0.551764
0.610636
0.712749
0.541969
0.636473
0.649687
0.560902
0.71371
0.76018
0.624718
0.645503
0.540833
0.575806
0.603696
0.721869
0.604075
0.578418
0.627358
0.798172
0.5845
0.720932
0.791852
0.640279
0.57707
0.318755
0.572011
0.597884
0.576625
0.521949
0.688401
0.74376
0.766104
0.823624
0.576763
0.563342
0.536739
0.5952
0.574326
0.774622
0.748192
0.696532
0.563646
0.551276
0.676237
0.743813
0.621626
0.57926
0.518163
0.619368
0.636669
0.805399
0.815624
0.715719
0.659437
0.616063
0.538963
0.810754
0.527281
0.709992
0.521547
0.792823
0.54357
0.486461
0.554344
0.758765
0.6287
0.491511
0.578502
0.695108
0.574627
0.723833
0.684671
0.592202
0.756695
0.61432
0.568163
0.767728
0.579233
0.627145
0.535428
0.66664
0.594988
0.76434
0.719958
0.614783
0.713451
0.725023
0.780924
0.651819
0.60802
0.589362
0.727643
0.527785
0.662423
0.54155
0.821574
0.621756
0.765609
0.807825
0.656758
0.814559
0.768514
0.779005
0.557277
0.51539
0.537011
0.783413
0.558885
0.546039
0.516753
0.548296
0.624731
0.612607
0.661863
0.808341
0.717682
0.606944
0.721409
0.604647
0.822406
0.465273
0.750373
0.596228
0.512243
0.79634
0.810174
0.590936
0.597612
0.8209
0.670955
0.583079
0.573191
0.713417
0.773574
0.708791
0.574723
0.595833
0.736296
0.659361
0.577749
0.65745
0.510376
0.556038
0.616536
0.735223
0.521808
0.600513
0.744474
0.601382
0.518211
0.618977
0.588371
0.603919
0.683349
0.690349
0.572503
0.543547
0.545455
0.701506
0.698466
0.605019
0.690555
0.616678
0.560502
0.672291
0.608231
0.502752
0.701213
0.766405
0.659619
0.797198
0.77586
0.823811
0.579698
0.49021
0.628875
0.61545
0.601594
0.528832
0.676935
0.792084
0.713351
0.668641
0.569415
0.612753
0.717359
0.65052
0.699696
0.580479
0.634195
0.605488
0.498968
0.574584
0.593858
0.581998
0.568328
0.692529
0.658906
0.615331
0.698941
0.586155
0.623174
0.583728
0.618261
0.591292
0.603427
0.666834
0.523898
0.478312
0.637554
0.530824
0.510696
0.667055
0.476722
0.51449
0.764066
0.694144
0.577793
0.706216
0.553696
0.688186
0.656539
0.508409
0.583811
0.743873
0.630073
0.724486
0.386806
0.563006
0.766986
0.60233
0.555976
0.465976
0.521971
0.51015
0.525328
0.610292
0.699192
0.560436
0.510331
0.572575
0.598712
0.822935
0.55466
0.712671
0.67878
0.485074
0.620675
0.572094
0.544416
0.684626
0.617715
0.792189
0.701459
0.568489
0.6105
0.652642
0.827505
0.717188
0.77727
0.719482
0.609769
0.660665
0.623279
0.567387
0.526445
0.597158
0.59042
0.701424
0.590276
0.534926
0.583965
0.604854
0.579642
0.582731
0.752668
0.600563
0.59792
0.786032
0.757253
0.575534
0.647657
0.774952
0.560527
0.468819
0.612599
0.561272
0.543414
0.771045
0.578745
0.624437
0.77853
0.517843
0.662708
0.58546
0.658972
0.614219
0.590937
0.330384
0.614048
0.537843
0.575946
0.612123
0.60923
0.719132
0.792201
0.576182
0.653831
0.604895
0.5404
0.499618
0.747151
0.68398
0.579878
0.537968
0.673892
0.532774
0.574645
0.571688
0.570273
0.723537
0.790435
0.605649
0.713035
0.82459
0.75112
0.751309
0.781847
0.585609
0.598793
0.545079
0.824079
0.744346
0.765318
0.590938
0.602574
0.516755
0.721703
0.607819
0.548955
0.766344
0.693707
0.534731
0.611102
0.5824
0.583138
0.584055
0.610183
0.617485
0.553723
0.605211
0.526164
0.62094
0.557801
0.69194
0.619327
0.522749
0.775407
0.78623
0.717847
0.607454
0.666834
0.468782
0.72668
0.649715
0.526794
0.772711
0.429131
0.79395
0.538788
0.625554
0.637059
0.714976
0.732117
0.578064
0.806479
0.579045
0.754906
0.627099
0.685562
0.600552
0.564167
0.593498
0.75977
0.632814
0.821676
0.703234
0.523919
0.560584
0.690882
0.448557
0.608591
0.627982
0.557346
0.798228
0.527712
0.513871
0.734813
0.596216
0.792045
0.816311
0.604562
0.824123
0.803613
0.75553
0.768408
0.674233
0.53664
0.578978
0.617194
0.74589
0.616607
0.428726
0.805097
0.560998
0.614232
0.574102
0.78002
0.821956
0.574252
0.751542
0.678558
0.792273
0.613813
0.724092
0.602443
0.807903
0.819715
0.707327
0.578367
0.736948
0.599167
0.637936
0.648807
0.628406
0.679498
0.575859
0.438298
0.545329
0.635323
0.690993
0.661531
0.768831
0.571224
0.602932
0.693545
0.548933
0.784696
0.565611
0.601963
0.779506
0.760823
0.668802
0.810929
0.569771
0.603502
0.727513
0.642913
0.617818
0.623125
0.594203
0.690736
0.709497
0.594255
0.579952
0.66732
0.524715
0.552175
0.793101
0.821942
0.82232
0.606814
0.829446
0.821579
0.80138
0.50143
0.683164
0.678802
0.81027
0.611816
0.57242
0.539833
0.576901
0.411663
0.805941
0.626903
0.633673
0.726912
0.70654
0.605317
0.602783
0.820982
0.80798
0.775484
0.707169
0.586609
0.711726
0.695793
0.608841
0.634241
0.552947
0.577298
0.654267
0.638964
0.598876
0.792455
0.792617
0.501662
0.758179
0.587751
0.5747
0.612702
0.789287
0.622049
0.707096
0.626955
0.777229
0.610866
0.630039
0.820347
0.521373
0.521428
0.573176
0.558901
0.483639
0.295775
0.568475
0.493681
0.644347
0.502447
0.560596
0.637818
0.573097
0.567771
0.603728
0.549235
0.319659
0.804243
0.749692
0.611987
0.533963
0.753194
0.590904
0.571942
0.817299
0.574932
0.817391
0.623298
0.764235
0.604062
0.494006
0.554845
0.659134
0.660868
0.645018
0.496232
0.61542
0.565482
0.561976
0.58045
0.525381
0.550424
0.80284
0.559757
0.707985
0.732379
0.613418
0.721243
0.734465
0.53845
0.300927
0.627104
0.528546
0.487309
0.7149
0.718223
0.611491
0.69105
0.604372
0.820598
0.801609
0.620382
0.598777
0.808833
0.770187
0.685211
0.685106
0.608027
0.823307
0.648591
0.500893
0.780748
0.750568
0.793915
0.662396
0.581901
0.609846
0.719789
0.686721
0.241075
0.824799
0.625904
0.571815
0.648551
0.763791
0.821053
0.81767
0.690133
0.637674
0.73792
0.771397
0.780253
0.711517
0.748002
0.506235
0.580005
0.672838
0.545074
0.504677
0.520532
0.624558
0.734934
0.529692
0.653226
0.574977
0.736088
0.817567
0.624006
0.538059
0.51154
0.70266
0.598472
0.572883
0.523417
0.784694
0.668572
0.674878
0.52597
0.679005
0.576649
0.582889
0.720239
0.731407
0.788474
0.821779
0.567888
0.773988
0.504446
0.782979
0.790766
0.79308
0.739958
0.556425
0.556244
0.61151
0.497414
0.644213
0.521759
0.67187
0.530577
0.762352
0.612171
0.506905
0.760602
0.722006
0.6312
0.637443
0.706063
0.787292
0.669911
0.646018
0.506433
0.75103
0.633935
0.806204
0.48902
0.639201
0.781701
0.71929
0.811673
0.724775
0.616371
0.470057
0.507669
0.635499
0.533821
0.804399
0.495484
0.58135
0.631074
0.581779
0.733668
0.493919
0.779231
0.719759
0.677397
0.443225
0.691398
0.554168
0.598061
0.629761
0.632071
0.600538
0.585591
0.737474
0.556293
0.827389
0.600525
0.611042
0.700561
0.716786
0.804222
0.60012
0.607007
0.566203
0.636108
0.59128
0.798413
0.574591
0.650678
0.607778
0.752487
0.569888
0.659998
0.547619
0.818593
0.49685
0.553735
0.563707
0.757012
0.51015
0.528992
0.553152
0.537593
0.791649
0.645629
0.71147
0.764332
0.700864
0.618738
0.8185
0.631462
0.723449
0.695958
0.65629
0.519497
0.666138
0.624861
0.587825
0.664928
0.533784
0.52412
0.652237
0.580331
0.562842
0.747676
0.633418
0.691389
0.623981
0.800692
0.630007
0.614003
0.696595
0.532625
0.568995
0.607195
0.65896
0.671233
0.68605
0.788417
0.714122
0.743265
0.65979
0.774251
0.80707
0.802442
0.632081
0.646846
0.678026
0.53674
0.815942
0.768566
0.75344
0.639493
0.552821
0.517787
0.678349
0.719818
0.567899
0.75277
0.767354
0.68756
0.582692
0.645419
0.59422
0.558958
0.639463
0.57948
0.674397
0.522197
0.678171
0.627373
0.62138
0.494569
0.670742
0.65436
0.70688
0.607353
0.669149
0.786954
0.797787
0.672594
0.625524
0.744108
0.654736
0.570906
0.574909
0.623721
0.533967
0.787238
0.641328
0.661848
0.720602
0.713127
0.687101
0.529177
0.825707
0.695009
0.583215
0.644157
0.646459
0.743705
0.783047
0.696295
0.681871
0.508452
0.563931
0.619229
0.684732
0.652161
0.671641
0.593412
0.794731
0.686862
0.728529
0.772162
0.66596
0.576008
0.655361
0.814663
0.574549
0.505226
0.654211
0.820612
0.599086
0.621886
0.737808
0.720193
0.75713
0.639935
0.512083
0.682454
0.544148
0.603085
0.757165
0.630288
0.541028
0.566408
0.598431
0.690905
0.604127
0.588026
0.776703
0.586627
0.819134
0.754265
0.532789
0.482481
0.643106
0.727299
0.770521
0.635046
0.619256
0.552881
0.61319
0.630809
0.821803
0.781861
0.725359
0.601495
0.515564
0.784938
0.825829
0.793577
0.744927
0.779325
0.653472
0.552696
0.493602
0.505469
0.803635
0.651328
0.520979
0.611162
0.824971
0.607688
0.581899
0.528586
0.637455
0.572511
0.820765
0.681909
0.722413
0.77881
0.767234
0.609229
0.69464
0.652699
0.709975
0.566414
0.689343
0.590693
0.797883
0.500508
0.604103
0.507606
0.616506
0.785754
0.616401
0.754988
0.773157
0.780591
0.551575
0.650741
0.619878
0.565767
0.792808
0.66319
0.659627
0.678808
0.40328
0.613045
0.791396
0.698759
0.795984
0.499414
0.557049
0.607526
0.802159
0.54001
0.632158
0.567342
0.524512
0.600499
0.797066
0.61228
0.622304
0.528599
0.818136
0.814025
0.406736
0.786982
0.611466
0.55296
0.557054
0.646805
0.538801
0.690548
0.607163
0.603791
0.619001
0.764329
0.638283
0.754863
0.621526
0.547255
0.618293
0.498529
0.519178
0.629038
0.580231
0.667729
0.563017
0.634104
0.770109
0.686445
0.604497
0.488928
0.777867
0.633563
0.634653
0.832068
0.66929
0.601829
0.55721
0.516682
0.80706
0.596787
0.635929
0.69003
0.538506
0.781954
0.501592
0.773884
0.647983
0.732908
0.570008
0.73932
0.630191
0.537681
0.570963
0.647662
0.785884
0.479387
0.578973
0.588956
0.805946
0.825863
0.546715
0.594467
0.687293
0.802347
0.628535
0.790588
0.768104
0.752365
0.73448
0.667882
0.697718
0.680197
0.794634
0.632979
0.658712
0.549254
0.583566
0.630798
0.559523
0.807836
0.516376
0.787714
0.63072
0.802301
0.597953
0.812341
0.730239
0.763713
0.803666
0.786917
0.831046
0.615968
0.774712
0.643529
0.609473
0.583361
0.562164
0.795913
0.51817
0.678138
0.690862
0.624554
0.687848
0.589846
0.792617
0.648421
0.739629
0.496214
0.573511
0.615113
0.820123
0.552308
0.703497
0.589908
0.615863
0.541366
0.623602
0.612714
0.747985
0.798989
0.526556
0.673112
0.609604
0.601874
0.760083
0.558391
0.581182
0.810401
0.504795
0.662278
0.720573
0.784443
0.816738
0.587085
0.582448
0.539287
0.605055
0.566551
0.608723
0.728757
0.605636
0.547678
0.622702
0.651338
0.602306
0.571216
0.588875
0.651033
0.536565
0.740877
0.731742
0.586733
0.740091
0.497117
0.533056
0.544878
0.518654
0.810737
0.613768
0.608118
0.592535
0.766243
0.793449
0.662881
0.736405
0.573068
0.584062
0.652149
0.610224
0.577126
0.794597
0.674834
0.695149
0.814481
0.747226
0.632991
0.804061
0.521573
0.66558
0.661278
0.687639
0.588468
0.799694
0.602892
0.681875
0.64248
0.600148
0.562548
0.586564
0.730214
0.761804
0.776947
0.656872
0.669738
0.802392
0.743957
0.629059
0.664041
0.550708
0.611641
0.752842
0.527623
0.772117
0.604354
0.780502
0.828482
0.79732
0.595175
0.76582
0.769448
0.46863
0.802267
0.554683
0.80086
0.749172
0.608157
0.567994
0.672966
0.61619
0.573359
0.568989
0.741375
0.588634
0.806989
0.55319
0.591618
0.562482
0.550453
0.608148
0.76146
0.821008
0.549679
0.733603
0.652947
0.682004
0.629263
0.684925
0.789234
0.752315
0.604117
0.783245
0.758667
0.817007
0.552986
0.576125
0.575729
0.736479
0.812039
0.764344
0.635947
0.812503
0.645566
0.523547
0.565895
0.479373
0.635138
0.540459
0.817999
0.819535
0.667707
0.832264
0.753994
0.656427
0.809405
0.546408
0.797633
0.609434
0.793902
0.612893
0.556613
0.73291
0.66946
0.801021
0.789298
0.792561
0.56431
0.560626
0.509249
0.772036
0.751158
0.547632
0.649593
0.752947
0.505537
0.593632
0.565805
0.599322
0.682883
0.597774
0.661108
0.717045
0.656218
0.667963
0.732371
0.609341
0.616117
0.681334
0.658995
0.61253
0.775975
0.801894
0.547033
0.748688
0.501964
0.588372
0.781758
0.742998
0.591889
0.796283
0.545269
0.73125
0.624106
0.61914
0.780804
0.615145
0.739563
0.733142
0.71222
0.825008
0.71603
0.538932
0.696311
0.625741
0.740378
0.820605
0.709096
0.644397
0.577023
0.619957
0.782133
0.55664
0.760164
0.567729
0.677919
0.747497
0.733136
0.646974
0.778115
0.812091
0.613298
0.609695
0.666041
0.564388
0.546425
0.663538
0.7328
0.579572
0.534971
0.550611
0.528143
0.727542
0.642409
0.743235
0.589513
0.793848
0.658468
0.769271
0.818303
0.583206
0.787547
0.609457
0.666886
0.650347
0.774201
0.577499
0.626208
0.654713
0.557505
0.612222
0.559521
0.53817
0.501688
0.81303
0.823811
0.580324
0.584296
0.736947
0.519453
0.552887
0.608433
0.719806
0.728717
0.516595
0.501568
0.789277
0.582948
0.68671
0.582354
0.533321
0.565441
0.654152
0.769498
0.685776
0.53015
0.795424
0.768406
0.573822
0.68351
0.604403
0.81825
0.615113
0.63011
0.542696
0.706204
0.801966
0.690328
0.64381
0.580109
0.63972
0.689668
0.81023
0.83233
0.577437
0.813731
0.586196
0.670372
0.673161
0.62901
0.602166
0.774679
0.586416
0.673068
0.562702
0.563757
0.604073
0.559888
0.714271
0.794638
0.57108
0.59026
0.667969
0.60422
0.552671
0.492151
0.604276
0.771813
0.454594
0.583315
0.727394
0.666092
0.637431
0.70272
0.761677
0.525436
0.527564
0.763359
0.630587
0.539184
0.647016
0.77247
0.705622
0.670018
0.575829
0.593298
0.573415
0.811162
0.764027
0.820843
0.633322
0.71603
0.551406
0.652546
0.771034
0.524243
0.535187
0.731758
0.766428
0.524898
0.593651
0.569996
0.522502
0.571123
0.831328
0.629861
0.58989
0.641157
0.577024
0.733984
0.657658
0.549332
0.592347
0.747858
0.639522
0.813266
0.541517
0.595378
0.701157
0.689623
0.626879
0.687536
0.55754
0.816361
0.788461
0.703572
0.777886
0.575837
0.774701
0.69981
0.694057
0.80424
0.519243
0.602208
0.81878
0.701981
0.516089
0.581181
0.757561
0.817059
0.649496
0.738114
0.572859
0.539362
0.565761
0.50521
0.770039
0.585297
0.65224
0.806678
0.583981
0.529904
0.577995
0.665752
0.585687
0.593898
0.580447
0.554716
0.637449
0.750379
0.802798
0.72299
0.596499
0.602628
0.509248
0.598542
0.697372
0.677083
0.708492
0.730508
0.603095
0.637181
0.759407
0.768863
0.818936
0.782096
0.806696
0.642507
0.544852
0.568224
0.551044
0.81068
0.665534
0.586198
0.803072
0.551425
0.754967
0.730271
0.596461
0.579802
0.603071
0.593259
0.767061
0.613651
0.720124
0.64608
0.801035
0.680642
0.823
0.570634
0.645695
0.580086
0.496473
0.608278
0.744691
0.530315
0.389536
0.66847
0.79374
0.741524
0.589431
0.540005
0.569015
0.554205
0.582308
0.560741
0.627969
0.55653
0.733098
0.579612
0.587021
0.777449
0.642341
0.680805
0.760038
0.616049
0.650143
0.559363
0.74274
0.603882
0.59694
0.632897
0.566583
0.539653
0.584797
0.544286
0.741036
0.821099
0.774432
0.674743
0.72545
0.529581
0.813742
0.681357
0.731296
0.57259
0.72848
0.585718
0.611841
0.753512
0.800468
0.742877
0.674291
0.617586
0.823671
0.611516
0.755057
0.809024
0.712801
0.624952
0.525023
0.75567
0.670258
0.558537
0.703254
0.668912
0.798809
0.581433
0.807476
0.819951
0.626951
0.572277
0.80781
0.541956
0.560739
0.611141
0.55572
0.606918
0.566492
0.543027
0.644654
0.586098
0.567242
0.601982
0.676708
0.574151
0.580043
0.697562
0.653071
0.543732
0.794112
0.822633
0.812293
0.582856
0.535113
0.823816
0.53493
0.640116
0.558815
0.606095
0.568156
0.731417
0.607868
0.602543
0.531868
0.52279
0.560543
0.611892
0.52907
0.644228
0.667201
0.634621
0.801041
0.670372
0.709785
0.620886
0.764753
0.592434
0.611006
0.833805
0.607897
0.663068
0.541207
0.714423
0.823758
0.605271
0.692386
0.667775
0.574196
0.574528
0.581725
0.553917
0.734954
0.56306
0.630335
0.602766
0.627158
0.571792
0.582824
0.639044
0.607344
0.602757
0.81952
0.640149
0.624145
0.668992
0.79933
0.613673
0.524588
0.749146
0.542138
0.621619
0.574266
0.638311
0.589529
0.582468
0.63482
0.817772
0.771875
0.526331
0.600973
0.526153
0.565343
0.51317
0.557619
0.607048
0.568246
0.608767
0.698693
0.831619
0.608298
0.727755
0.656804
0.810838
0.606792
0.824338
0.690619
0.553535
0.696731
0.735309
0.602656
0.767879
0.574747
0.778147
0.591327
0.40092
0.63917
0.829845
0.819594
0.733581
0.703156
0.722685
0.537418
0.585407
0.720965
0.822246
0.421912
0.644968
0.573124
0.592971
0.632213
0.567114
0.546905
0.586451
0.560439
0.589271
0.603596
0.633157
0.823449
0.766285
0.515228
0.750288
0.564646
0.581402
0.75552
0.594498
0.620529
0.7129
0.443442
0.573168
0.648624
0.773376
0.553571
0.58222
0.619061
0.69521
0.549615
0.79958
0.528734
0.610173
0.618177
0.587316
0.703533
0.698189
0.801178
0.572863
0.741161
0.665098
0.692322
0.579705
0.702416
0.570475
0.541308
0.505756
0.675749
0.634083
0.618501
0.784146
0.646534
0.65026
0.702339
0.575375
0.560943
0.61043
0.683109
0.587163
0.829903
0.544221
0.528889
0.605209
0.60322
0.586139
0.560828
0.728397
0.610311
0.641222
0.555264
0.576734
0.635197
0.515153
0.826158
0.810515
0.5582
0.570976
0.769756
0.651364
0.576385
0.537916
0.565159
0.561016
0.664504
0.791457
0.577919
0.538004
0.697684
0.641482
0.529292
0.555515
0.639829
0.72285
0.830325
0.549197
0.51989
0.677369
0.769866
0.61396
0.672701
0.614311
0.576734
0.612466
0.694136
0.629174
0.579926
0.748777
0.616701
0.500543
0.661948
0.588628
0.754589
0.823808
0.589517
0.60724
0.605011
0.608149
0.54879
0.612093
0.562414
0.803641
0.757688
0.720689
0.606217
0.538391
0.745153
0.813798
0.580801
0.65847
0.594672
0.502874
0.646412
0.605095
0.498758
0.534169
0.685839
0.556155
0.529974
0.556153
0.742211
0.549048
0.750391
0.626102
0.581256
0.602271
0.567435
0.754431
0.511636
0.614342
0.622864
0.541962
0.673289
0.719278
0.67694
0.634992
0.737613
0.555535
0.556951
0.78946
0.57542
0.785253
0.679272
0.610138
0.670334
0.774612
0.641669
0.523721
0.799568
0.569664
0.619182
0.774885
0.567716
0.808603
0.579401
0.618745
0.464181
0.622256
0.556208
0.648416
0.561155
0.503877
0.558215
0.548451
0.507364
0.791861
0.549335
0.616167
0.677344
0.646575
0.815244
0.818203
0.589488
0.62618
0.758507
0.5799
0.79232
0.516774
0.605968
0.665229
0.583313
0.76119
0.597981
0.60518
0.599596
0.58913
0.561916
0.502053
0.777698
0.328137
0.804117
0.723797
0.560105
0.527837
0.565928
0.832059
0.724676
0.701926
0.638905
0.675458
0.622919
0.775887
0.74525
0.568879
0.69261
0.808704
0.626821
0.655626
0.697327
0.521752
0.554992
0.749608
0.614833
0.633542
0.809148
0.546377
0.518895
0.594427
0.630653
0.623407
0.819171
0.578562
0.540745
0.578142
0.63074
0.579769
0.784249
0.625548
0.571481
0.59086
0.581627
0.570683
0.593081
0.693201
0.637793
0.564039
0.782526
0.604959
0.748823
0.564696
0.547343
0.61515
0.778557
0.81385
0.741533
0.638556
0.628722
0.752986
0.815014
0.547323
0.793496
0.560781
0.708206
0.691027
0.782764
0.639322
0.772783
0.797647
0.584291
0.575277
0.61703
0.646704
0.565149
0.516215
0.514978
0.729734
0.761957
0.542403
0.799037
0.642583
0.739813
0.634893
0.559471
0.75927
0.745727
0.601075
0.588601
0.556324
0.818299
0.728214
0.823203
0.538127
0.563899
0.625074
0.766174
0.698973
0.776881
0.66397
0.816167
0.588964
0.62402
0.655383
0.596203
0.678518
0.487561
0.752862
0.641356
0.662869
0.794541
0.532442
0.544409
0.51829
0.673123
0.779422
0.597528
0.70368
0.496213
0.538227
0.63523
0.590353
0.579129
0.775177
0.640619
0.571998
0.624484
0.681608
0.802367
0.676501
0.612678
0.777372
0.650763
0.807693
0.646056
0.718166
0.611105
0.543028
0.828159
0.561472
0.662838
0.671418
0.790513
0.713874
0.632698
0.575206
0.822829
0.628956
0.572581
0.73438
0.814759
0.727964
0.700556
0.534521
0.500004
0.654305
0.567017
0.616379
0.653762
0.563397
0.801454
0.817596
0.796789
0.602067
0.610209
0.577537
0.607614
0.715717
0.547654
0.713352
0.802731
0.554377
0.603135
0.590305
0.760641
0.701277
0.609289
0.567528
0.725114
0.567733
0.481194
0.555676
0.83031
0.508202
0.750126
0.687706
0.571049
0.802319
0.663355
0.830569
0.433604
0.605959
0.667032
0.797088
0.609548
0.792495
0.663737
0.507122
0.629297
0.592851
0.612981
0.500734
0.748609
0.603326
0.570337
0.520258
0.634001
0.776246
0.471786
0.605086
0.778056
0.616266
0.773168
0.512516
0.564221
0.57475
0.619537
0.573707
0.536222
0.566232
0.476649
0.610838
0.609069
0.741807
0.665894
0.780191
0.567116
0.613355
0.537739
0.648683
0.480755
0.617564
0.824409
0.628729
0.597789
0.834434
0.573537
0.670848
0.699037
0.540998
0.599148
0.64093
0.676888
0.803487
0.81382
0.814967
0.68251
0.623226
0.608559
0.564257
0.771507
0.709506
0.58509
0.580612
0.597744
0.636802
0.830466
0.621052
0.827812
0.586415
0.694643
0.566067
0.572635
0.541108
0.591402
0.787795
0.595966
0.544981
0.559567
0.82756
0.602803
0.56546
0.560227
0.569887
0.727257
0.662083
0.666027
0.618438
0.721803
0.528504
0.637656
0.630523