/*--------------------------------*- C++ -*----------------------------------*\
  =========                 |
  \\      /  F ield         | OpenFOAM: The Open Source CFD Toolbox
   \\    /   O peration     | Website:  https://openfoam.org
    \\  /    A nd           | Version:  6
     \\/     M anipulation  |
\*---------------------------------------------------------------------------*/
FoamFile
{
    version     2.0;
    format      ascii;
    class       volVectorField;
    location    "5";
    object      U;
}
// * * * * * * * * * * * * * * * * * * * * * * * * * * * * * * * * * * * * * //

dimensions      [0 1 -1 0 0 0 0];

internalField   nonuniform List<vector> 
13046
(
(0.547259 0.21643 0)
(0.61159 -0.12824 5.49552e-21)
(0.233281 -0.0696101 1.22182e-20)
(0.527361 0.129029 0)
(0.239707 0.00564357 1.11265e-20)
(0.518352 -0.138831 0)
(0.5738 0.152118 -1.63681e-21)
(0.560502 -0.175549 -2.80349e-21)
(0.214013 0.0167597 1.22225e-20)
(1.05024 0.47065 -4.68154e-21)
(1.08276 -0.441477 0)
(-0.0112596 -0.0023914 -7.8597e-21)
(0.673862 0.260029 1.03132e-20)
(0.700822 -0.203173 8.47245e-21)
(0.162632 -0.0420938 -6.66146e-21)
(0.999225 0.529331 -2.42879e-21)
(0.0197926 -0.0322436 -1.25737e-20)
(1.12644 -0.3578 -3.56566e-21)
(0.332438 0.0875654 0)
(0.396517 -0.117784 6.01274e-21)
(0.507989 0.0294697 -1.70857e-20)
(1.01121 0.520009 2.61774e-21)
(0.0103492 -0.0241881 2.51852e-20)
(1.11773 -0.37606 -1.11427e-21)
(0.481228 0.140352 -6.90586e-21)
(0.525141 -0.0971475 1.02046e-20)
(0.263086 -0.0427681 0)
(0.681843 0.290922 -1.79976e-22)
(0.727071 -0.201804 -2.48611e-21)
(0.160406 -0.0583124 2.31303e-20)
(0.554364 0.238313 0)
(0.637542 -0.116234 0)
(0.237636 -0.091038 -1.24358e-20)
(0.441449 0.109588 2.41891e-20)
(0.288703 -0.0409044 -4.15938e-21)
(0.487793 -0.0689832 -1.58167e-20)
(0.436182 0.086192 5.65964e-23)
(0.300153 -0.0185826 0)
(0.459684 -0.0662158 0)
(0.457921 0.242014 -8.82782e-21)
(0.374174 -0.206779 -1.12419e-20)
(0.664579 -0.0288042 8.26891e-21)
(0.411829 0.0202365 -5.56529e-21)
(0.352105 0.0121577 5.67615e-21)
(0.389459 -0.035383 0)
(0.440821 0.0282874 -3.53248e-21)
(0.332086 0.0334187 0)
(0.392012 -0.062087 1.8244e-21)
(0.5697 0.211065 0)
(0.614478 -0.15052 3.93521e-22)
(0.206651 -0.0499907 2.1451e-23)
(0.54097 -0.342197 -1.38636e-20)
(0.392883 0.26238 0)
(0.769276 0.0455258 9.87595e-21)
(0.598833 -0.379112 1.97459e-20)
(0.799463 0.0709354 1.06433e-20)
(0.353959 0.244078 -1.36473e-20)
(1.0067 -0.203821 1.79424e-21)
(0.849025 0.523738 0)
(0.179533 -0.153048 -1.04312e-20)
(0.855881 0.269865 4.89676e-21)
(0.814376 -0.361122 -4.92638e-21)
(0.108126 0.0491271 2.78679e-20)
(0.0178061 -0.00951093 -1.44686e-20)
(1.04252 -0.40332 2.82058e-21)
(1.01814 0.440689 7.68478e-21)
(0.808848 0.519145 0)
(0.974473 -0.166689 -8.45148e-21)
(0.225037 -0.191595 -3.04526e-21)
(0.774884 0.496259 3.7892e-21)
(0.942416 -0.152103 1.14533e-20)
(0.242056 -0.199538 4.14299e-21)
(1.04276 -0.214423 1.79687e-23)
(0.878618 0.543078 -1.28073e-22)
(0.162777 -0.148917 2.83135e-23)
(0.350237 0.111474 0)
(0.386513 -0.13388 -6.52978e-21)
(0.534249 0.0113107 1.21519e-20)
(0.106911 -0.103408 -1.15099e-20)
(0.924267 0.547691 1.13225e-20)
(1.07817 -0.263103 3.83689e-21)
(0.511474 0.150986 -3.62243e-21)
(0.537614 -0.118599 3.63701e-21)
(0.241177 -0.0247468 0)
(0.0100238 -0.00983422 1.29649e-20)
(1.06336 -0.411793 0)
(1.03482 0.455873 -4.5539e-21)
(1.06204 0.361099 7.97196e-21)
(0.029642 0.0327231 0)
(0.993005 -0.478927 2.22525e-21)
(0.0728264 0.0789984 0)
(1.12613 0.287955 0)
(0.955893 -0.564592 -2.87802e-22)
(0.863356 0.377527 9.81901e-21)
(0.902677 0.384958 -1.36437e-20)
(0.902092 -0.30415 -9.37227e-21)
(0.930819 -0.335261 4.38882e-21)
(0.0841202 -0.0348449 5.99242e-21)
(0.0655941 -0.0195442 -1.53865e-20)
(0.0435637 0.0448386 7.31702e-22)
(1.06047 0.338921 -7.80041e-21)
(0.972362 -0.493256 0)
(0.464915 0.0539114 2.32602e-23)
(0.306179 0.0320413 0)
(0.420402 -0.0890735 0)
(0.284366 0.177173 -2.46024e-20)
(0.734578 0.101411 4.93089e-21)
(0.588967 -0.320514 0)
(0.390943 0.238276 -3.7667e-21)
(0.486687 -0.284652 0)
(0.711 0.0267377 1.88344e-20)
(0.98665 0.462071 0)
(-0.0179581 0.000897498 1.07081e-20)
(1.00744 -0.447188 2.12504e-21)
(0.626629 0.234144 -7.19311e-21)
(0.661517 -0.180552 -3.64163e-21)
(0.179007 -0.0365724 -1.21102e-20)
(0.901924 0.44043 -5.68764e-21)
(0.865181 0.409813 5.30777e-21)
(0.972484 -0.300663 -2.52841e-21)
(0.0797093 -0.0562122 -6.87744e-21)
(0.925638 -0.285981 2.52519e-21)
(0.0908823 -0.0545839 6.42504e-21)
(1.03704 0.479949 1.15019e-20)
(1.08243 -0.43916 3.55677e-21)
(-0.0137013 -0.00263466 3.51541e-21)
(0.779932 0.344683 0)
(0.823144 -0.254752 6.36491e-21)
(0.119586 -0.0546306 -3.52835e-20)
(0.498699 0.260127 0)
(0.334394 -0.185316 1.13186e-20)
(0.672475 -0.0563416 -4.65586e-22)
(0.0896348 0.0912445 0)
(1.09915 0.273059 0)
(0.939931 -0.550964 0)
(0.972972 0.386743 0)
(0.972219 -0.393633 1.18437e-20)
(0.0420925 0.0037937 1.54914e-20)
(0.597298 0.26233 0)
(0.674476 -0.138688 0)
(0.219751 -0.097523 0)
(0.700064 0.180023 0)
(0.648808 -0.274387 0)
(0.183977 0.0647453 0)
(0.368655 0.232953 3.4854e-21)
(0.529308 -0.312009 0)
(0.732705 0.0482134 -1.01557e-20)
(0.28602 0.163461 2.38413e-20)
(0.710666 0.0980171 1.06927e-20)
(0.575135 -0.300812 -1.22529e-20)
(0.88658 0.291503 -1.13667e-20)
(0.848451 -0.372704 0)
(0.089484 0.0346038 -3.62353e-20)
(0.257803 0.105122 0)
(0.633751 0.104506 -2.33213e-20)
(0.53543 -0.234277 -3.16279e-21)
(0.701275 -0.421704 -5.47844e-21)
(0.851743 0.135218 -1.12319e-20)
(0.750446 -0.439573 0)
(0.884712 0.167989 -6.47372e-21)
(0.262479 0.19248 -1.1755e-20)
(0.218756 0.163718 1.12896e-20)
(0.725796 0.148501 -1.47786e-21)
(0.634406 -0.306481 -6.38725e-21)
(0.212788 0.104663 6.91408e-21)
(1.07192 0.453575 4.78944e-21)
(-0.010935 0.00174295 -4.08935e-21)
(1.06201 -0.460808 4.83041e-21)
(1.00735 0.47152 3.22091e-21)
(-0.0173706 0.00029937 1.60795e-21)
(1.04629 -0.442705 0)
(0.983171 0.407415 -1.82179e-22)
(0.993556 -0.391525 0)
(0.0346207 -0.00442581 -1.87149e-20)
(0.569099 0.336604 0)
(0.756306 -0.0703736 -2.58902e-21)
(0.34181 -0.225217 -6.58532e-21)
(0.700323 0.129748 -9.701e-21)
(0.237649 0.123339 0)
(0.600175 -0.286364 0)
(-0.00410111 0.012306 0)
(1.03978 -0.490897 0)
(1.09795 0.41492 -3.97758e-21)
(0.53022 0.307637 0)
(0.725045 -0.0531054 5.66231e-21)
(0.356718 -0.217764 -1.70916e-21)
(0.256988 0.120524 0)
(0.6516 0.102966 0)
(0.542035 -0.251001 0)
(0.663174 0.158187 -4.84385e-21)
(0.612905 -0.251784 0)
(0.195948 0.059882 0)
(0.742768 -0.247936 4.13012e-23)
(0.134688 -0.0192631 8.21296e-21)
(0.74821 0.318083 -1.50065e-20)
(0.788975 -0.240015 0)
(0.130904 -0.0476246 3.64587e-20)
(1.06421 0.410176 9.05094e-21)
(0.0109461 0.0116821 -1.17375e-20)
(1.03521 -0.457905 1.0364e-20)
(0.0755773 0.0755425 -1.07341e-20)
(1.06555 0.293909 -4.87962e-21)
(0.943436 -0.519305 -1.1239e-20)
(1.1105 0.328528 1.32223e-20)
(0.983876 -0.526561 0)
(0.041204 0.0526936 1.05399e-20)
(0.563976 -0.388646 5.63118e-21)
(0.827279 0.0368553 -4.40209e-21)
(0.439515 0.323166 -1.15423e-20)
(0.654341 0.203021 9.49524e-21)
(0.91051 0.559383 -5.83255e-21)
(0.126195 -0.118363 7.08574e-21)
(1.08247 -0.251797 -1.79493e-23)
(0.996663 -0.529604 0)
(1.1198 0.351359 3.78077e-21)
(0.0261424 0.039381 0)
(0.466006 0.0834073 1.78569e-20)
(0.284896 0.00898898 0)
(0.454341 -0.0934873 -5.9642e-21)
(0.658064 0.29717 0)
(0.721996 -0.179652 3.58556e-22)
(0.185533 -0.077687 -6.82633e-21)
(0.0895227 0.0885113 -8.23828e-21)
(1.07407 0.279373 0)
(0.933131 -0.535329 1.29516e-20)
(0.693116 0.226764 0)
(0.724712 -0.25537 -1.53394e-20)
(0.139029 -0.0043532 0)
(-0.016588 0.00224454 0)
(1.02989 -0.473787 -3.72483e-21)
(1.06277 0.448416 0)
(0.398062 0.294704 1.24856e-20)
(0.837265 0.0560564 0)
(0.601114 -0.412056 0)
(1.08423 0.321576 -1.15976e-20)
(0.971128 -0.512264 0)
(0.0488172 0.0544783 3.98798e-23)
(0.802329 0.159181 -1.27111e-20)
(0.6918 -0.372327 -4.80672e-21)
(0.209561 0.13422 1.58547e-20)
(0.776104 0.364412 0)
(0.83356 -0.24091 -5.95215e-21)
(0.130246 -0.0695537 -3.67815e-21)
(0.868647 -0.543602 1.66917e-20)
(1.03467 0.208901 8.81527e-21)
(0.169148 0.151798 -6.49052e-21)
(0.928503 0.175601 0)
(0.785527 -0.472258 6.74327e-21)
(0.212369 0.166974 2.34926e-22)
(-0.0164238 0.00261382 8.2665e-21)
(1.0057 -0.484191 0)
(1.06974 0.433403 3.4676e-21)
(0.460907 0.284426 -1.64048e-20)
(0.440754 -0.271991 8.20134e-21)
(0.729752 -0.00906102 8.20329e-22)
(0.911211 0.490683 -3.30988e-21)
(-0.015132 0.0023659 8.87868e-22)
(1.0334 -0.390116 0)
(0.300851 0.0640846 -3.6769e-21)
(0.507085 0.0530002 1.38301e-20)
(0.426177 -0.124757 -1.79522e-20)
(0.804572 0.201271 -5.10086e-21)
(0.78055 0.168348 -4.26516e-23)
(0.728454 -0.354106 1.17423e-20)
(0.684804 -0.350368 1.15132e-20)
(0.197189 0.115306 -1.25985e-20)
(0.159599 0.0883277 6.50625e-21)
(0.0835313 -0.0851921 1.50652e-20)
(0.944465 0.550046 -6.03464e-21)
(1.10489 -0.278598 0)
(0.738189 0.357358 0)
(0.809425 -0.20891 0)
(0.160826 -0.0889849 1.46087e-20)
(0.966745 0.202222 2.33192e-21)
(0.824776 -0.495792 0)
(0.181204 0.148128 0)
(0.94064 0.417791 -5.06107e-21)
(0.977151 -0.34492 0)
(0.0525811 -0.0261919 -6.81175e-21)
(0.392466 0.0351565 -3.76451e-21)
(0.409893 -0.0215852 -5.46163e-21)
(0.351422 -0.010362 1.88271e-21)
(0.863791 0.182994 8.25144e-21)
(0.75115 -0.415848 0)
(0.190865 0.136221 1.08768e-20)
(0.744972 0.378289 0)
(0.830907 -0.202454 -7.3945e-21)
(0.167362 -0.104254 9.3721e-21)
(0.712167 0.255937 -1.54136e-20)
(0.752979 0.277168 1.24068e-20)
(0.471053 0.300352 1.29665e-20)
(0.451941 -0.28979 -2.37788e-20)
(0.749482 -0.00521018 1.80493e-20)
(0.893171 0.210585 8.47968e-21)
(0.788341 -0.428274 -1.00213e-20)
(0.157019 0.113015 -9.92455e-21)
(0.967243 0.422659 1.83951e-20)
(0.039984 -0.0168731 2.40506e-20)
(0.999302 -0.367189 5.74755e-21)
(0.391941 0.220872 5.70931e-21)
(0.462426 -0.264251 0)
(0.687369 0.025192 -6.36218e-21)
(0.283473 0.216066 1.2732e-20)
(0.869108 0.12529 6.44402e-21)
(0.702097 -0.443599 0)
(0.84418 0.444953 1.84472e-21)
(0.940239 -0.243116 6.35886e-21)
(0.126721 -0.095186 -4.26593e-21)
(0.431223 0.289556 -1.06506e-21)
(0.514898 -0.332526 0)
(0.773255 0.0286642 -1.36488e-20)
(0.876383 0.4663 0)
(0.900862 0.465887 0)
(0.977888 -0.260843 4.04175e-21)
(0.111903 -0.0886245 1.10989e-20)
(0.992674 -0.287835 -5.71376e-21)
(0.0894613 -0.0695913 -1.17837e-20)
(-0.00179249 0.00833566 9.08418e-21)
(1.0488 -0.472684 0)
(1.08459 0.427868 5.6677e-21)
(0.827858 0.400051 0)
(0.89282 -0.262105 2.95973e-21)
(0.112008 -0.0686613 -3.80689e-21)
(0.903525 -0.422666 -5.31075e-21)
(-0.014584 0.0013512 -1.32005e-20)
(0.880646 0.443574 -7.12332e-21)
(0.58432 0.0723032 1.8816e-20)
(0.28647 0.103081 0)
(0.477961 -0.191794 6.65623e-21)
(0.808112 0.254268 -1.17223e-20)
(0.774837 -0.328096 0)
(0.118831 0.0395325 -2.13671e-20)
(0.018703 0.00749814 7.46469e-21)
(1.0386 0.406613 -1.66233e-20)
(1.02012 -0.436308 -7.9957e-21)
(0.619563 -0.400312 7.32195e-21)
(0.821795 0.0757763 0)
(0.351051 0.258539 1.54646e-20)
(0.892163 -0.543537 2.00672e-20)
(1.05108 0.233979 5.37803e-21)
(0.136948 0.125558 0)
(0.664182 -0.225186 7.86301e-21)
(0.164036 0.00375234 0)
(0.831149 0.30789 -1.2738e-20)
(0.820808 -0.31338 -5.45147e-21)
(0.0961533 -0.0013183 -6.5264e-21)
(0.652423 -0.240403 -2.76421e-22)
(0.166662 0.0208912 -3.57421e-23)
(0.993017 0.522504 1.26829e-20)
(0.0307341 -0.0403915 -1.77133e-20)
(1.1131 -0.344508 5.24169e-21)
(0.549146 -0.401078 -7.32837e-21)
(0.846803 0.0223131 -1.38903e-21)
(0.476964 0.354119 0)
(0.865775 0.326673 1.29816e-20)
(0.863821 -0.33354 6.64962e-21)
(0.0819777 0.00417942 1.58867e-20)
(0.719527 0.174474 0)
(0.65096 -0.296123 4.67424e-21)
(0.188617 0.0810993 0)
(0.742091 0.0794161 6.31657e-21)
(0.567939 -0.330872 0)
(0.324357 0.202661 0)
(0.552206 0.183032 5.0238e-21)
(0.580558 -0.143342 8.68082e-21)
(0.217545 -0.0333395 -1.68228e-23)
(0.318199 0.241196 -1.57941e-20)
(0.854549 0.103213 -1.56668e-20)
(0.670976 -0.43098 -1.9751e-20)
(1.08385 0.3819 6.95461e-21)
(1.0156 -0.482046 -8.7769e-21)
(0.0162095 0.0232979 -1.76452e-22)
(0.900696 -0.526004 -1.36143e-20)
(1.04051 0.248688 -5.45164e-21)
(0.119342 0.110221 -8.25692e-21)
(0.700234 0.460015 1.17255e-20)
(0.310164 -0.239936 -6.19314e-21)
(0.890255 -0.109319 0)
(0.911943 0.514264 -3.28399e-21)
(0.887013 0.498392 3.0169e-21)
(1.00953 -0.250397 1.2827e-21)
(1.04103 -0.263136 -5.39826e-21)
(0.106855 -0.0957101 4.05987e-21)
(0.122355 -0.105404 3.59468e-21)
(-0.0157992 0.00226519 1.34047e-20)
(0.94596 -0.412993 5.84959e-21)
(0.895962 0.451609 -2.17152e-21)
(0.927987 0.499656 2.22044e-22)
(-0.013908 0.000500694 0)
(1.06329 -0.387704 0)
(0.845582 0.221056 1.88402e-20)
(0.772649 -0.377117 2.59733e-21)
(0.146384 0.0868746 0)
(0.00424606 0.00648695 2.26005e-20)
(1.06938 0.424763 -7.11111e-21)
(1.04992 -0.455848 0)
(0.783594 0.465169 -1.65922e-20)
(0.817625 0.473948 1.24129e-20)
(0.920468 -0.18317 -6.85206e-21)
(0.94507 -0.204814 -2.60338e-21)
(0.205184 -0.159458 7.09289e-21)
(0.173484 -0.136608 3.55747e-21)
(0.016103 0.031525 0)
(0.981773 -0.545179 0)
(1.14778 0.343451 -2.01109e-21)
(0.853807 0.485485 3.88624e-21)
(-0.0143897 0.00436216 -8.3302e-21)
(1.00666 -0.371268 0)
(0.477371 -0.00522609 2.51939e-23)
(0.366221 0.083311 -8.06119e-21)
(0.352843 -0.0794435 -4.00968e-21)
(0.935553 0.467972 6.5019e-21)
(1.00195 -0.42483 -3.10886e-21)
(-0.0169757 0.00193421 -1.66457e-20)
(0.623184 0.353405 -1.42074e-20)
(0.772411 -0.106741 1.18339e-20)
(0.286617 -0.188717 4.05788e-23)
(1.10504 0.401979 -1.20751e-22)
(1.0299 -0.500855 -1.20488e-20)
(0.00221191 0.0174986 4.62565e-21)
(0.795461 -0.43476 -1.67889e-22)
(-0.0120979 -0.00299242 1.52173e-20)
(0.860074 0.37292 2.52198e-21)
(0.41803 0.209491 7.61716e-21)
(0.388437 -0.195956 4.81439e-22)
(0.6344 -0.00976705 -2.02757e-20)
(0.535867 0.0803909 0)
(0.469374 -0.151402 1.98805e-20)
(0.272923 0.0604813 -1.02654e-20)
(1.02027 0.497282 -1.1626e-20)
(-0.011814 -0.00495904 -1.04843e-20)
(1.09428 -0.424092 5.74706e-23)
(0.563075 0.0909816 0)
(0.488161 -0.172647 6.93484e-21)
(0.261637 0.0757944 1.45145e-20)
(0.453479 -0.00151072 -8.21482e-21)
(0.3632 0.0624402 8.51284e-21)
(0.357753 -0.0605299 -2.1165e-21)
(0.380394 0.29509 7.61409e-21)
(0.873358 0.0739955 5.51192e-21)
(0.649026 -0.452367 -1.08495e-20)
(0.554122 0.026869 0)
(0.409657 -0.153051 0)
(0.333853 0.126731 -1.20216e-21)
(0.581974 0.0569863 -1.00707e-20)
(0.453443 -0.179819 -5.36102e-21)
(0.31296 0.123756 -1.70397e-22)
(0.662234 0.440363 -1.78212e-20)
(0.865523 -0.088652 8.97576e-21)
(0.347329 -0.267877 1.23406e-20)
(-0.00105519 -0.01086 -1.58544e-20)
(-0.00474995 -0.00666472 1.61051e-20)
(1.10034 -0.414254 -3.39676e-21)
(1.08839 -0.429502 -2.40941e-21)
(1.03563 0.492941 -9.84833e-21)
(1.04777 0.481269 1.48096e-20)
(1.10117 0.382051 -8.60516e-21)
(1.01966 -0.494595 7.62411e-21)
(0.0120474 0.0257876 0)
(0.297022 -0.243568 -7.98056e-21)
(0.733075 0.492405 -3.65122e-21)
(0.924253 -0.119548 0)
(0.484727 0.283522 0)
(0.397085 -0.240809 7.49485e-21)
(0.714435 -0.0286799 -6.2857e-21)
(0.943103 0.153887 0)
(0.775813 -0.49525 -6.97758e-21)
(0.247155 0.19862 -2.43064e-22)
(0.866693 -0.485428 -3.40216e-21)
(-0.0145237 -0.00324267 0)
(1.01107 0.374813 7.08935e-21)
(0.0537355 0.0639934 0)
(1.13028 0.308826 0)
(0.967626 -0.557412 -5.2373e-21)
(1.03424 0.465045 -3.85207e-21)
(-0.0170083 0.000308184 0)
(1.05233 -0.455434 3.65544e-21)
(-0.0101502 -0.00189126 5.64751e-32)
(0.751279 -0.411375 2.20144e-21)
(0.795024 0.361205 -2.46386e-21)
(0.792417 -0.361261 -2.4478e-21)
(-0.0102393 0.00225472 -5.63418e-32)
(0.755 0.411837 2.20284e-21)
(0.862425 -0.428414 1.35447e-20)
(0.937726 0.270619 0)
(0.104048 0.0711198 2.11772e-20)
(0.951779 -0.529995 1.99358e-21)
(-0.00267406 0.012088 0)
(1.13392 0.361466 0)
(0.995181 0.378087 8.16179e-21)
(0.973876 -0.417045 -7.31805e-21)
(0.0389854 0.0137365 -1.09842e-20)
(0.973579 0.548255 -1.25737e-20)
(0.0139529 -0.0276039 -6.37212e-21)
(1.15357 -0.343319 0)
(0.626083 0.209741 -3.85892e-21)
(0.178512 -0.00933291 4.11948e-21)
(0.644267 -0.200141 -3.79325e-21)
(0.981049 -0.55135 0)
(0.0266709 0.0414991 -7.70152e-21)
(1.14526 0.333205 -2.34874e-21)
(0.918021 0.136998 6.33213e-21)
(0.274324 0.218847 4.33166e-21)
(0.746066 -0.480288 0)
(0.840623 -0.487723 0)
(0.96868 0.221151 0)
(0.153287 0.127788 -7.71297e-21)
(-0.00298445 0.000174936 0)
(0.463418 -0.22853 1.27829e-21)
(0.46398 0.227939 -1.2877e-21)
(0.891194 -0.444826 -2.94909e-21)
(-0.0150209 -0.000435216 9.19388e-21)
(0.910374 0.426953 3.17518e-21)
(0.586979 0.183512 9.97687e-21)
(0.198996 -0.00883322 -9.76084e-21)
(0.598838 -0.176961 -4.40969e-21)
(1.00338 -0.521189 -1.02356e-20)
(1.13124 0.377656 4.24459e-21)
(0.00357346 0.0215007 0)
(0.0132984 0.028634 8.06013e-21)
(1.1569 0.341736 0)
(0.96484 -0.551005 7.68774e-21)
(1.05323 0.449439 5.18099e-21)
(0.00363532 -0.00230084 -2.42076e-20)
(1.06449 -0.432061 -1.01428e-20)
(0.0575156 -0.0599703 1.82077e-20)
(1.09277 -0.313031 -5.89896e-21)
(0.965679 0.525306 0)
(0.640312 0.448564 2.24702e-20)
(0.872496 -0.0710036 -1.14358e-20)
(0.391614 -0.304221 1.17091e-20)
(0.991278 -0.224516 -1.90983e-21)
(0.85512 0.50471 -7.16829e-21)
(0.157731 -0.133187 1.11397e-20)
(0.0506839 -0.060233 1.6316e-20)
(0.967859 0.554388 0)
(1.13649 -0.310148 3.96723e-21)
(0.657476 0.341537 3.58144e-21)
(0.702835 0.369458 0)
(0.764443 -0.14565 1.23562e-20)
(0.807608 -0.168491 -1.32149e-20)
(0.227656 -0.133879 -7.67525e-21)
(0.204749 -0.129987 0)
(0.620451 0.334678 3.49712e-21)
(0.751107 -0.118234 0)
(0.264955 -0.161325 -3.65424e-21)
(0.769743 0.478748 0)
(0.924234 -0.166764 1.10676e-20)
(0.230329 -0.182737 -2.55728e-21)
(0.881294 -0.506428 6.83532e-21)
(1.013 0.242397 -5.73893e-21)
(0.125357 0.108836 1.6932e-20)
(1.00621 -0.519868 0)
(1.11152 0.369261 -1.37343e-21)
(0.0159221 0.0312876 0)
(0.0862238 0.0769979 5.45796e-21)
(1.03057 0.284018 3.57888e-21)
(0.921907 -0.497491 4.4298e-21)
(0.846611 -0.366612 3.17009e-22)
(-0.0118575 0.00356983 -3.01697e-24)
(0.78899 0.432661 0)
(0.485567 0.227945 -6.91368e-21)
(0.495842 0.217436 0)
(0.308621 -0.143393 1.77376e-21)
(0.629565 -0.0619633 -2.46291e-20)
(0.285684 -0.11968 -2.24462e-21)
(0.614831 -0.0797528 1.56959e-20)
(0.705573 0.434447 0)
(0.657036 0.40362 2.29878e-21)
(0.297502 -0.212346 -1.75901e-23)
(0.864629 -0.133884 -7.08116e-21)
(0.269298 -0.196314 -1.86873e-20)
(0.826158 -0.111293 1.50696e-20)
(0.774264 -0.450443 0)
(-0.0126902 -0.00516171 -1.66085e-20)
(0.901316 0.359651 0)
(1.01021 -0.514652 6.25224e-21)
(1.12406 0.381218 -1.36157e-21)
(0.00481017 0.0210655 -4.85597e-21)
(0.512785 0.327591 4.26865e-21)
(0.434245 -0.292034 8.53168e-21)
(0.770043 -0.0236319 -2.03273e-20)
(0.838793 -0.523067 -1.49138e-20)
(0.999001 0.193669 -1.4806e-20)
(0.189003 0.163382 0)
(0.0721294 -0.0723432 -1.9471e-20)
(1.08154 -0.298533 6.27438e-21)
(0.951314 0.526182 0)
(0.967313 -0.467786 0)
(1.0091 0.435728 0)
(-0.0177274 0.000220268 0)
(0.976519 -0.482034 0)
(1.04164 0.424986 -6.2272e-21)
(-0.0171828 0.00101758 0)
(0.817279 0.453261 6.90207e-21)
(0.928197 -0.220624 -3.94877e-21)
(0.155492 -0.117581 -5.26555e-21)
(0.364769 0.199119 2.00263e-21)
(0.473048 -0.252629 0)
(0.668812 0.0410895 -6.7877e-21)
(1.05736 0.459845 -6.03662e-21)
(-0.00171289 -0.00275839 -1.40723e-20)
(1.07799 -0.435889 1.46213e-20)
(0.877449 -0.454462 0)
(0.966177 0.272027 0)
(0.10178 0.0812123 -1.82674e-20)
(0.0305326 -0.0204772 -4.59517e-21)
(1.03249 -0.375908 -9.77205e-21)
(0.989719 0.450604 -1.69348e-20)
(0.62831 0.394306 -2.34169e-21)
(0.331244 -0.236128 1.24979e-20)
(0.814453 -0.0926091 -7.74721e-21)
(0.782094 0.134958 1.23158e-20)
(0.653069 -0.358528 -7.12967e-21)
(0.248896 0.158875 -1.54812e-20)
(0.448358 0.248919 -1.13898e-22)
(0.404295 -0.232852 2.46766e-21)
(0.684767 -0.0154729 8.23476e-21)
(-0.00537955 0.00316517 5.49618e-21)
(1.06514 -0.459888 -6.50056e-21)
(1.07353 0.445595 -6.44183e-21)
(0.934805 0.444426 3.16883e-21)
(0.99687 -0.328211 2.99345e-21)
(0.060149 -0.041319 0)
(0.427761 0.201033 7.4974e-21)
(0.358852 -0.167226 -1.56224e-20)
(0.614204 -0.0244474 1.33828e-20)
(0.969503 0.559868 -5.05414e-21)
(0.03845 -0.0504564 -7.23818e-21)
(1.15269 -0.31898 -1.43397e-22)
(0.592451 0.283369 4.35228e-21)
(0.691906 -0.127921 0)
(0.23797 -0.120602 0)
(0.636298 0.133369 1.79783e-20)
(0.56634 -0.231792 -4.27863e-21)
(0.223792 0.0789296 0)
(0.831295 -0.457386 0)
(0.939424 0.224567 -1.2125e-20)
(0.143875 0.114776 8.07676e-21)
(0.953133 0.520945 0)
(-0.0077695 -0.00667665 2.23729e-21)
(1.11631 -0.376928 -3.58829e-21)
(0.950509 0.533936 -4.79967e-21)
(-0.00198448 -0.0116813 -7.14015e-21)
(1.13386 -0.360148 3.79826e-21)
(0.0341035 -0.0299532 -4.18234e-21)
(1.04787 -0.361493 5.64242e-21)
(0.985252 0.4681 1.55822e-20)
(0.808276 0.119787 5.64209e-21)
(0.663662 -0.389644 1.42857e-20)
(0.275459 0.185335 0)
(-0.0108127 -0.00133794 -2.04949e-21)
(1.08985 -0.37361 3.35726e-21)
(0.910591 0.510882 0)
(0.0290794 0.0158037 0)
(0.995735 -0.437219 5.86558e-21)
(1.02613 0.384932 1.9273e-21)
(-0.00756758 -0.00333916 -8.30626e-21)
(0.640769 -0.386598 -2.67269e-21)
(0.71535 0.303061 0)
(0.6428 0.386153 2.66291e-21)
(0.713581 -0.303282 0)
(-0.00770295 0.0036209 -8.30923e-21)
(0.0464802 -0.0539436 3.91395e-24)
(1.11929 -0.322992 6.98206e-22)
(0.974326 0.539987 0)
(-0.0132632 0.00424074 0)
(1.04563 -0.476889 0)
(1.0809 0.441503 -8.20179e-21)
(1.0262 0.493269 5.40738e-21)
(1.02024 0.482955 -4.37432e-21)
(0.00795671 -0.0189494 7.95665e-21)
(1.10202 -0.391046 1.14292e-21)
(0.0131147 -0.0200523 0)
(1.08407 -0.388793 0)
(1.03285 0.364925 -3.75282e-21)
(0.98294 -0.453765 -3.93618e-21)
(0.0348106 0.0265689 0)
(0.232067 0.197949 0)
(0.805104 -0.524387 0)
(0.981947 0.166545 0)
(0.48536 0.180007 -9.29825e-21)
(0.269959 -0.0819534 2.15185e-20)
(0.570171 -0.0871444 -8.65472e-21)
(1.01832 0.315692 -1.07992e-20)
(0.938222 -0.4708 -1.49794e-21)
(0.0625963 0.053778 -1.60809e-20)
(0.0805702 0.0682082 -1.04667e-20)
(1.00923 0.296045 1.50233e-20)
(0.916796 -0.476066 2.07718e-21)
(0.951363 0.566236 -5.96176e-21)
(0.0729842 -0.0794281 -7.80533e-21)
(1.13199 -0.284615 0)
(0.720724 0.453459 0)
(0.887775 -0.135794 -3.28948e-21)
(0.269799 -0.205456 1.83179e-20)
(0.658815 0.379738 0)
(0.803437 -0.121078 -1.55392e-20)
(0.273162 -0.188641 6.94143e-24)
(0.929633 0.305744 1.44399e-20)
(0.885243 -0.405178 -1.87108e-21)
(0.0777743 0.039943 9.20009e-21)
(0.950983 0.299967 0)
(0.890993 -0.424538 -1.76511e-21)
(0.0804896 0.0504638 -8.44859e-21)
(0.400861 0.17317 0)
(0.365343 -0.153601 2.46591e-20)
(0.584359 -0.0131936 0)
(0.71508 0.389168 0)
(0.826954 -0.167897 8.63618e-21)
(0.20793 -0.143088 -2.76822e-21)
(0.0397144 0.0530796 1.6677e-20)
(0.965291 -0.563471 1.17329e-20)
(1.15297 0.316315 0)
(1.06337 0.404301 1.33343e-22)
(-0.0152572 0.000957693 -5.09749e-21)
(0.940689 -0.496538 -2.51106e-21)
(1.05368 0.380795 2.35692e-22)
(-0.0141273 -0.000786694 0)
(0.905839 -0.496821 7.09951e-21)
(0.537328 0.29313 -5.1641e-21)
(0.324091 -0.187141 2.68043e-21)
(0.704061 -0.0722756 1.81157e-22)
(0.915301 -0.459676 -2.43529e-22)
(-0.0165366 -0.00120819 -2.10978e-20)
(0.978027 0.418902 0)
(0.959998 0.469184 -1.35389e-20)
(0.0501847 -0.0412966 0)
(1.03239 -0.337107 0)
(-0.0149834 -0.00329155 8.36743e-21)
(0.863516 -0.473633 3.4924e-21)
(0.973569 0.38588 -5.40308e-21)
(0.513282 0.106295 -1.24094e-20)
(0.259661 0.02405 -1.30322e-20)
(0.487562 -0.128628 -5.08284e-23)
(0.773764 0.306798 2.18828e-21)
(0.793233 -0.268541 2.01609e-21)
(0.11838 -0.0238123 8.3656e-21)
(0.618233 -0.372441 -1.63729e-20)
(0.78773 0.095486 -2.0245e-20)
(0.313648 0.208914 0)
(0.000755176 0.0168458 0)
(0.970095 -0.532093 2.58167e-21)
(1.13951 0.365243 0)
(0.862618 -0.467107 0)
(0.967826 0.254501 0)
(0.117638 0.0954806 0)
(0.0224756 -0.0359242 0)
(0.982987 0.546842 4.56044e-21)
(1.14933 -0.339622 -3.86316e-21)
(0.817979 0.326282 0)
(0.829191 -0.29574 -1.01758e-21)
(0.100671 -0.0164636 9.92247e-25)
(0.467294 0.159533 8.98161e-21)
(0.27723 -0.0707839 -1.84763e-20)
(0.544774 -0.0797869 0)
(0.99892 -0.519523 9.6747e-21)
(1.1219 0.390147 -4.03469e-21)
(-0.00357536 0.0143776 0)
(0.0209579 -0.00154491 9.60208e-21)
(1.02241 -0.417228 -3.71483e-22)
(1.01873 0.422533 -2.7637e-22)
(0.991907 0.499346 0)
(0.977503 0.495636 -4.50644e-21)
(-0.0128136 -0.00340814 -5.13883e-21)
(-0.0150125 -0.00105538 6.3509e-21)
(1.09091 -0.407849 2.32238e-21)
(1.07307 -0.413906 -1.91002e-21)
(0.773702 0.208985 0)
(0.712327 -0.328796 -1.36925e-20)
(0.157949 0.0715425 -1.01761e-20)
(0.825426 -0.406296 -1.90383e-20)
(0.901064 0.24916 0)
(0.118041 0.0775143 1.11711e-20)
(0.5978 0.148408 1.01843e-20)
(0.566048 -0.197142 -7.28136e-21)
(0.207051 0.0367637 -1.59361e-20)
(0.963824 -0.511112 -5.84927e-21)
(1.09769 0.395817 -4.80079e-21)
(0.945954 -0.520621 2.73147e-21)
(-0.0122408 0.00471884 5.39953e-21)
(1.11014 0.376335 4.49709e-21)
(-0.00854572 0.00605107 0)
(0.904596 0.366193 0)
(0.912507 -0.350023 0)
(0.0662702 -0.00645526 -1.03829e-20)
(1.10874 0.404942 -5.01135e-21)
(1.09861 0.406613 1.26923e-20)
(1.01002 -0.506792 -3.82898e-21)
(0.995246 -0.503211 9.9131e-21)
(-0.00973779 0.00911889 -1.4233e-20)
(-0.0128516 0.00572554 8.53481e-24)
(0.875971 0.231244 0)
(0.793534 -0.406357 1.78666e-20)
(0.144121 0.0982392 -1.44802e-20)
(0.725193 0.234275 -9.53886e-21)
(0.740696 -0.281243 1.22243e-20)
(0.128334 0.0123252 0)
(0.978421 0.537664 0)
(0.00379804 -0.0186842 -9.85322e-22)
(1.14179 -0.363295 -3.64988e-21)
(0.777687 0.230563 -7.01184e-21)
(0.73296 -0.317036 0)
(0.140004 0.0525314 1.6855e-20)
(0.642015 0.176352 -4.11529e-21)
(0.616186 -0.22891 8.54465e-21)
(0.184078 0.0329148 -9.27937e-21)
(0.976408 0.511828 0)
(-0.00888896 -0.00662043 0)
(1.11327 -0.393554 5.07889e-21)
(0.826796 0.350301 0)
(0.860451 -0.286427 -2.10122e-21)
(0.0953329 -0.033051 1.03245e-20)
(0.729581 -0.488976 0)
(0.919148 0.120825 0)
(0.307722 0.248324 5.58487e-22)
(0.62776 0.40863 5.74836e-22)
(0.830442 -0.0806745 0)
(0.352866 -0.259465 -9.65953e-21)
(0.915777 -0.562308 -7.78836e-21)
(0.117754 0.114805 0)
(1.08868 0.248829 0)
(-0.00567865 0.000153033 1.99742e-20)
(0.606533 -0.301028 -1.79063e-21)
(0.607676 0.300836 1.80381e-21)
(0.798857 0.274353 0)
(0.776147 -0.304965 -7.49952e-21)
(0.11363 0.0161274 0)
(1.00945 0.518893 -8.66437e-21)
(0.00300729 -0.0180626 -2.68725e-20)
(1.12619 -0.379742 8.16137e-21)
(0.471026 -0.352979 0)
(0.85273 -0.0246202 7.5667e-21)
(0.557835 0.401702 0)
(0.762296 0.447827 0)
(-0.0125545 0.00585607 4.95588e-21)
(0.895548 -0.353123 0)
(0.301294 0.146533 -9.91573e-21)
(0.316713 0.169994 1.01451e-20)
(0.500507 -0.242025 0)
(0.644678 0.0714067 -8.60218e-21)
(0.51807 -0.270049 1.57608e-20)
(0.676215 0.0666036 6.88e-21)
(0.593607 0.124767 -9.58184e-21)
(0.536173 -0.194971 -9.73304e-21)
(0.230367 0.06125 0)
(0.378396 0.190232 -8.77864e-21)
(0.337978 0.162748 0)
(0.428257 -0.214469 0)
(0.634552 0.0172569 0)
(0.448238 -0.211234 8.96518e-21)
(0.620459 0.0393902 -5.15631e-23)
(0.763963 0.261185 -6.0377e-22)
(0.699666 -0.272924 5.36605e-21)
(0.147542 0.0278667 1.14244e-20)
(0.730826 0.220053 1.6394e-20)
(0.698201 -0.285231 0)
(0.153571 0.0436175 0)
(-0.0104669 0.00168198 0)
(0.903303 -0.514738 0)
(1.0886 0.366939 -4.41412e-21)
(0.577976 0.305182 1.42007e-20)
(0.715297 -0.0973535 0)
(0.283743 -0.162455 -4.96507e-21)
(1.09741 0.420602 1.10497e-20)
(1.03325 -0.494294 -4.70096e-21)
(-0.0102798 0.00858745 8.12077e-21)
(0.946117 0.335718 0)
(0.978102 0.351291 -7.85257e-21)
(0.917329 -0.399489 2.33274e-21)
(0.946405 -0.415875 -7.21542e-21)
(0.0605832 0.0252506 1.14391e-20)
(0.0495814 0.023893 1.06027e-20)
(0.564617 0.279604 0)
(0.686548 -0.1045 0)
(0.268879 -0.141462 -2.35067e-21)
(0.757597 0.437201 -5.5668e-21)
(0.884003 -0.175137 0)
(0.210148 -0.154576 -6.10744e-21)
(0.880887 0.318584 4.13464e-21)
(0.864127 -0.358426 0)
(0.0789142 0.0183333 -1.04912e-20)
(0.403883 0.105233 -9.7483e-21)
(0.491667 -0.0372856 -4.72612e-21)
(0.31842 -0.068829 -4.97107e-21)
(0.992144 0.323538 0)
(0.930911 -0.445868 0)
(0.0618273 0.0449193 1.70983e-20)
(0.460179 0.183645 0)
(0.298829 -0.109546 -2.71975e-21)
(0.577907 -0.0623841 0)
(0.871189 0.251802 9.31235e-21)
(0.804167 -0.387658 9.93157e-21)
(0.121469 0.0676137 1.44856e-21)
(0.756092 0.414797 -5.62948e-21)
(0.866399 -0.188044 -9.83929e-21)
(0.18884 -0.135163 0)
(0.41678 0.131567 9.66251e-21)
(0.398 0.134255 4.32019e-21)
(0.520426 -0.0460113 -4.6096e-21)
(0.312539 -0.0853366 9.84456e-21)
(0.534237 -0.0283938 0)
(0.335333 -0.109015 1.75235e-20)
(0.364012 0.151041 4.36807e-21)
(0.39359 -0.165917 -1.15046e-20)
(0.340088 0.149999 -2.81135e-21)
(0.577739 0.0105384 0)
(0.439188 -0.196622 -5.70852e-21)
(0.602069 0.0355902 9.84024e-21)
(0.644755 0.318216 -5.15857e-21)
(0.686048 0.327146 0)
(0.73888 -0.152569 -9.2475e-21)
(0.760417 -0.180638 7.22135e-21)
(0.214006 -0.114651 2.2194e-20)
(0.183401 -0.0921409 -1.84612e-20)
(0.0483649 -0.0495613 0)
(1.07442 -0.329191 3.42679e-21)
(0.97139 0.503766 7.95623e-21)
(0.335376 0.261276 -1.88507e-20)
(0.882592 0.0998301 -8.69415e-21)
(0.686381 -0.459602 1.70645e-20)
(0.0328617 -0.0386083 9.0811e-21)
(0.02545 -0.0299355 0)
(1.08902 -0.351375 -2.96457e-21)
(1.07544 -0.367759 -5.15913e-21)
(0.990158 0.506944 -2.02279e-20)
(1.00106 0.488743 1.05028e-20)
(0.451574 0.314811 0)
(0.523327 -0.351905 9.28454e-21)
(0.796835 0.0211443 -1.98271e-21)
(0.399125 0.0604661 -2.05258e-20)
(0.33171 -0.0265173 0)
(0.436712 -0.0324715 1.6185e-20)
(1.00265 0.346144 3.72372e-21)
(0.953842 -0.440975 8.1488e-21)
(0.048497 0.0328894 0)
(0.516333 0.251477 0)
(0.299103 -0.155753 2.23984e-21)
(0.657507 -0.0743916 7.98682e-21)
(0.781805 0.42203 0)
(0.884919 -0.20563 0)
(0.16803 -0.11966 1.46527e-21)
(0.932155 0.506824 0)
(0.931401 0.487659 0)
(1.04876 -0.291892 -1.8972e-21)
(0.0830524 -0.0758019 1.1133e-20)
(1.03132 -0.299997 5.17168e-21)
(0.0760416 -0.0658872 -1.50685e-20)
(0.936006 0.36645 -7.79318e-21)
(0.935328 -0.371702 -7.6546e-21)
(0.0545646 0.00293478 -4.97883e-21)
(0.833688 0.460448 -4.85784e-21)
(0.950427 -0.378027 0)
(-0.0144414 0.00441466 6.08418e-21)
(0.496596 -0.361498 0)
(0.834994 -0.00625833 -6.1694e-21)
(0.517788 0.370587 0)
(0.591007 0.414458 -5.80815e-21)
(0.569597 0.390171 6.27243e-21)
(0.425936 -0.318506 6.01177e-21)
(0.848428 -0.0463543 0)
(0.426147 -0.307662 0)
(0.824306 -0.0432321 0)
(1.00914 0.263557 1.30849e-20)
(0.892893 -0.494995 -1.54928e-20)
(0.107518 0.0921328 -7.81419e-22)