/*--------------------------------*- C++ -*----------------------------------*\
  =========                 |
  \\      /  F ield         | OpenFOAM: The Open Source CFD Toolbox
   \\    /   O peration     | Website:  https://openfoam.org
    \\  /    A nd           | Version:  6
     \\/     M anipulation  |
\*---------------------------------------------------------------------------*/
FoamFile
{
    version     2.0;
    format      ascii;
    class       volVectorField;
    location    "5";
    object      U;
}
// * * * * * * * * * * * * * * * * * * * * * * * * * * * * * * * * * * * * * //

dimensions      [0 1 -1 0 0 0 0];

internalField   nonuniform List<vector> 
13046
(
(0.558023 0.224085 0)
(0.622494 -0.133179 5.80214e-21)
(0.230672 -0.0711897 1.28478e-20)
(0.535148 0.133621 0)
(0.236431 0.00581425 1.17087e-20)
(0.52605 -0.143712 0)
(0.583907 0.157724 -1.72754e-21)
(0.570772 -0.181858 -2.95766e-21)
(0.210162 0.0171843 1.28522e-20)
(1.09193 0.490905 -4.89766e-21)
(1.12542 -0.460482 0)
(-0.015753 -0.00207081 -8.24502e-21)
(0.691231 0.270001 1.0876e-20)
(0.717665 -0.211107 8.94257e-21)
(0.158025 -0.0427938 -6.99374e-21)
(1.03912 0.552073 -2.55356e-21)
(0.0156193 -0.0310648 -1.31901e-20)
(1.16897 -0.373521 -3.74396e-21)
(0.332684 0.0900578 0)
(0.399444 -0.121503 6.33536e-21)
(0.513045 0.0305604 -1.80341e-20)
(1.05155 0.54253 2.7374e-21)
(0.00596484 -0.0231028 2.64209e-20)
(1.16032 -0.392469 -1.16688e-21)
(0.487571 0.145141 -7.28037e-21)
(0.531954 -0.100626 1.07668e-20)
(0.260629 -0.0438581 0)
(0.700068 0.301996 -1.91134e-22)
(0.745018 -0.209746 -2.62444e-21)
(0.156155 -0.0592692 2.43034e-20)
(0.566152 0.246642 0)
(0.64933 -0.120678 0)
(0.235679 -0.0930472 -1.30766e-20)
(0.445617 0.113179 2.5501e-20)
(0.286889 -0.0420108 -4.37932e-21)
(0.492697 -0.0713847 -1.66876e-20)
(0.439582 0.089057 5.87885e-23)
(0.298458 -0.0191043 0)
(0.463583 -0.0684981 0)
(0.466419 0.24951 -9.29008e-21)
(0.379054 -0.212624 -1.18238e-20)
(0.675585 -0.0299719 8.73595e-21)
(0.413557 0.0208801 -5.86889e-21)
(0.351901 0.0124842 5.9822e-21)
(0.390573 -0.03655 0)
(0.443564 0.0292202 -3.72634e-21)
(0.331411 0.0343672 0)
(0.393631 -0.0640719 1.92229e-21)
(0.581285 0.218613 0)
(0.626143 -0.156171 4.15317e-22)
(0.203055 -0.0510517 2.39721e-23)
(0.554947 -0.353375 -1.45859e-20)
(0.400044 0.269482 0)
(0.7848 0.0474182 1.04371e-20)
(0.615912 -0.392126 2.07765e-20)
(0.816931 0.0739364 1.12474e-20)
(0.359633 0.250156 -1.43399e-20)
(1.03841 -0.212783 1.8934e-21)
(0.880255 0.54476 0)
(0.179514 -0.154669 -1.09474e-20)
(0.881588 0.281013 5.16791e-21)
(0.840385 -0.375631 -5.19151e-21)
(0.103043 0.0495947 2.92618e-20)
(0.012177 -0.00929092 -1.51807e-20)
(1.08126 -0.420749 2.96755e-21)
(1.05651 0.459608 8.07703e-21)
(0.837965 0.539561 0)
(1.00333 -0.173879 -8.92131e-21)
(0.226734 -0.194484 -3.19717e-21)
(0.801975 0.515388 3.9857e-21)
(0.969196 -0.158652 1.20901e-20)
(0.2442 -0.202898 4.34972e-21)
(1.07667 -0.223793 1.89397e-23)
(0.911751 0.565164 -1.3394e-22)
(0.162423 -0.150218 3.05626e-23)
(0.351641 0.114669 0)
(0.38951 -0.138002 -6.87515e-21)
(0.540218 0.01171 1.28284e-20)
(0.104753 -0.103403 -1.2076e-20)
(0.95985 0.570681 1.18949e-20)
(1.11548 -0.274567 4.04372e-21)
(0.519194 0.156251 -3.82011e-21)
(0.545526 -0.122838 3.83699e-21)
(0.238044 -0.0253286 0)
(0.00459312 -0.00950343 1.36034e-20)
(1.10348 -0.429613 0)
(1.07457 0.475542 -4.78529e-21)
(1.10096 0.376758 8.38955e-21)
(0.0244901 0.0322538 0)
(1.03081 -0.499429 2.33999e-21)
(0.0700634 0.0782017 0)
(1.16685 0.30068 0)
(0.993844 -0.588516 -3.01918e-22)
(0.892092 0.393021 1.03469e-20)
(0.933487 0.40092 -1.43762e-20)
(0.931004 -0.316927 -9.88563e-21)
(0.961884 -0.349429 4.62839e-21)
(0.0785983 -0.035045 6.2885e-21)
(0.0597657 -0.0195633 -1.6151e-20)
(0.0387823 0.0443419 7.67717e-22)
(1.09861 0.353786 -8.20917e-21)
(1.00934 -0.514252 0)
(0.46876 0.0557688 2.39748e-23)
(0.304779 0.03291 0)
(0.423445 -0.0920075 0)
(0.28609 0.181287 -2.58592e-20)
(0.749832 0.105468 5.21041e-21)
(0.604322 -0.331668 0)
(0.397262 0.244922 -3.96123e-21)
(0.497446 -0.293604 0)
(0.723898 0.0277733 1.99023e-20)
(1.02663 0.48164 0)
(-0.0209775 0.00110186 1.12362e-20)
(1.04803 -0.466203 2.19271e-21)
(0.641264 0.242929 -7.58728e-21)
(0.67617 -0.187442 -3.84279e-21)
(0.174637 -0.0372127 -1.27292e-20)
(0.933963 0.458706 -5.99002e-21)
(0.894756 0.426608 5.58979e-21)
(1.00491 -0.313488 -2.66559e-21)
(0.0749784 -0.0563052 -7.21902e-21)
(0.955349 -0.298021 2.66324e-21)
(0.0860213 -0.0548571 6.7441e-21)
(1.07861 0.500568 1.19929e-20)
(1.12525 -0.457991 3.7087e-21)
(-0.0178606 -0.00214455 3.68787e-21)
(0.803972 0.358369 0)
(0.846859 -0.265157 6.7185e-21)
(0.114688 -0.05528 -3.7055e-20)
(0.509075 0.268551 0)
(0.337569 -0.190205 1.19043e-20)
(0.684175 -0.058575 -4.92779e-22)
(0.0871137 0.0908089 0)
(1.13801 0.285082 0)
(0.976715 -0.574125 0)
(1.00742 0.403207 0)
(1.0068 -0.410393 1.24747e-20)
(0.0360798 0.00380014 1.62562e-20)
(0.611512 0.271687 0)
(0.688291 -0.14407 0)
(0.217464 -0.0995586 0)
(0.716113 0.187086 0)
(0.665364 -0.284624 0)
(0.180313 0.0659354 0)
(0.3742 0.23915 3.6654e-21)
(0.542229 -0.322234 0)
(0.746753 0.0501202 -1.0731e-20)
(0.287344 0.167324 2.5059e-20)
(0.724807 0.101939 1.12952e-20)
(0.589464 -0.311297 -1.29016e-20)
(0.914459 0.303615 -1.19904e-20)
(0.876208 -0.387838 0)
(0.0840197 0.0348759 -3.80452e-20)
(0.256674 0.107645 0)
(0.644942 0.108577 -2.46273e-20)
(0.546393 -0.24238 -3.33204e-21)
(0.723516 -0.437368 -5.76611e-21)
(0.873396 0.140947 -1.18668e-20)
(0.775224 -0.456346 0)
(0.908937 0.175135 -6.83816e-21)
(0.264545 0.196315 -1.23443e-20)
(0.219174 0.16648 1.18556e-20)
(0.742156 0.15444 -1.5606e-21)
(0.651087 -0.317618 -6.73155e-21)
(0.210929 0.106747 7.26483e-21)
(1.11423 0.473233 5.01193e-21)
(-0.0155436 0.0017006 -4.29022e-21)
(1.10386 -0.480715 5.05482e-21)
(1.0481 0.491497 3.34589e-21)
(-0.0207999 0.000726853 1.68715e-21)
(1.08813 -0.461571 0)
(1.01872 0.424798 -1.93697e-22)
(1.02919 -0.408291 0)
(0.0286941 -0.00435089 -1.96388e-20)
(0.583969 0.347962 0)
(0.771818 -0.0732024 -2.73631e-21)
(0.346493 -0.230943 -6.92074e-21)
(0.714873 0.134897 -1.02481e-20)
(0.236641 0.126059 0)
(0.615131 -0.296493 0)
(-0.0088063 0.0117257 0)
(1.08104 -0.512056 0)
(1.14051 0.432924 -4.16031e-21)
(0.542932 0.317767 0)
(0.738907 -0.0552476 5.98289e-21)
(0.361644 -0.223451 -1.79694e-21)
(0.256288 0.123359 0)
(0.663456 0.106948 0)
(0.553788 -0.259614 0)
(0.677231 0.164235 -5.11346e-21)
(0.62738 -0.26102 0)
(0.192416 0.0610766 0)
(0.762653 -0.257773 4.24576e-23)
(0.129395 -0.0195564 8.62917e-21)
(0.770194 0.330562 -1.58232e-20)
(0.810835 -0.249695 0)
(0.125996 -0.048244 3.82911e-20)
(1.10436 0.428024 9.51152e-21)
(0.00550039 0.0114279 -1.23156e-20)
(1.07496 -0.477656 1.08851e-20)
(0.0720123 0.0752245 -1.12618e-20)
(1.10298 0.306767 -5.14224e-21)
(0.979453 -0.541218 -1.18107e-20)
(1.1513 0.342868 1.39062e-20)
(1.02265 -0.549016 0)
(0.0371395 0.0517986 1.10591e-20)
(0.579931 -0.401303 5.92097e-21)
(0.845128 0.0384152 -4.65182e-21)
(0.449635 0.332231 -1.21301e-20)
(0.669248 0.210741 1.00199e-20)
(0.945556 0.582667 -6.12994e-21)
(0.124782 -0.118652 7.43474e-21)
(1.11953 -0.263017 -1.89193e-23)
(1.03624 -0.552323 0)
(1.16173 0.366881 3.96624e-21)
(0.0219279 0.0383566 0)
(0.470361 0.0862645 1.88364e-20)
(0.282753 0.00920892 0)
(0.458611 -0.0966514 -6.28924e-21)
(0.675373 0.308309 0)
(0.739041 -0.186826 3.78653e-22)
(0.182222 -0.0791248 -7.17175e-21)
(0.0866283 0.088276 -8.644e-21)
(1.11152 0.291743 0)
(0.969004 -0.557806 1.36112e-20)
(0.710181 0.235534 0)
(0.743974 -0.265398 -1.6185e-20)
(0.133735 -0.00443539 0)
(-0.0204965 0.00197682 0)
(1.07107 -0.493989 -3.87677e-21)
(1.10506 0.467738 0)
(0.406333 0.302423 1.31212e-20)
(0.856018 0.0583957 0)
(0.618865 -0.426002 0)
(1.12344 0.33568 -1.21967e-20)
(1.00874 -0.533921 0)
(0.0445946 0.0538246 4.15046e-23)
(0.822412 0.165696 -1.34291e-20)
(0.712525 -0.386219 -5.06434e-21)
(0.20866 0.136624 1.66549e-20)
(0.800308 0.378808 0)
(0.857454 -0.250832 -6.28333e-21)
(0.125974 -0.070403 -3.8647e-21)
(0.90116 -0.565625 1.7551e-20)
(1.06807 0.218045 9.29968e-21)
(0.168984 0.153207 -6.81124e-21)
(0.955224 0.183153 0)
(0.812614 -0.490549 7.09421e-21)
(0.212966 0.16953 2.46653e-22)
(-0.0200521 0.00202224 8.67324e-21)
(1.04636 -0.50469 0)
(1.11233 0.452135 3.58745e-21)
(0.470659 0.293042 -1.72536e-20)
(0.449653 -0.28001 8.62351e-21)
(0.743316 -0.00949344 8.67115e-22)
(0.948947 0.511421 -3.42271e-21)
(-0.017786 0.00350898 9.31665e-22)
(1.07502 -0.407063 0)
(0.29981 0.0658114 -3.87037e-21)
(0.512426 0.0548809 1.45947e-20)
(0.430261 -0.128802 -1.89197e-20)
(0.82609 0.209504 -5.38233e-21)
(0.799911 0.175235 -4.34524e-23)
(0.750401 -0.367686 1.23758e-20)
(0.704676 -0.36351 1.21275e-20)
(0.195356 0.117345 -1.32356e-20)
(0.156323 0.0896106 6.83473e-21)
(0.0808423 -0.0847094 1.58062e-20)
(0.981388 0.573259 -6.3438e-21)
(1.14419 -0.29079 0)
(0.760518 0.371157 0)
(0.831267 -0.217509 0)
(0.157538 -0.0903268 1.53414e-20)
(0.996241 0.211027 2.46134e-21)
(0.85402 -0.515477 0)
(0.180818 0.149977 0)
(0.974209 0.435378 -5.3253e-21)
(1.01088 -0.359602 0)
(0.0469031 -0.0261013 -7.14817e-21)
(0.393636 0.0362923 -3.96611e-21)
(0.411588 -0.0222962 -5.7599e-21)
(0.351191 -0.0106972 1.9834e-21)
(0.887507 0.190652 8.71604e-21)
(0.775421 -0.431791 0)
(0.189804 0.138383 1.14204e-20)
(0.768108 0.392891 0)
(0.853556 -0.210854 -7.80822e-21)
(0.16471 -0.105806 9.84227e-21)
(0.730982 0.265873 -1.62599e-20)
(0.774123 0.288161 1.30879e-20)
(0.481621 0.309442 1.36374e-20)
(0.461682 -0.298377 -2.50037e-20)
(0.763828 -0.00543184 1.90764e-20)
(0.919187 0.219474 8.95116e-21)
(0.814498 -0.445035 -1.05558e-20)
(0.154782 0.114444 -1.04208e-20)
(1.00221 0.440557 1.93668e-20)
(0.0342012 -0.0167566 2.52391e-20)
(1.03483 -0.382934 6.05126e-21)
(0.397897 0.22711 6.00664e-21)
(0.471626 -0.2725 0)
(0.699314 0.0262862 -6.72349e-21)
(0.286768 0.220546 1.33727e-20)
(0.891207 0.130627 6.80976e-21)
(0.724788 -0.460035 0)
(0.873566 0.462852 1.94194e-21)
(0.96961 -0.25345 6.71226e-21)
(0.123688 -0.0959494 -4.47813e-21)
(0.440182 0.297839 -1.11977e-21)
(0.527763 -0.343052 0)
(0.78873 0.0299176 -1.4425e-20)
(0.907711 0.485329 0)
(0.933371 0.485187 0)
(1.00966 -0.272077 4.26231e-21)
(0.108625 -0.0891218 1.16488e-20)
(1.02584 -0.300273 -6.02611e-21)
(0.0854263 -0.0697165 -1.2368e-20)
(-0.006829 0.00802074 9.53019e-21)
(1.08985 -0.493111 0)
(1.12653 0.446556 5.94375e-21)
(0.855377 0.416169 0)
(0.920221 -0.273092 3.12331e-21)
(0.107704 -0.0692289 -3.99684e-21)
(0.940921 -0.441247 -5.43116e-21)
(-0.0164777 0.00154819 -1.38509e-20)
(0.917275 0.462652 -7.29211e-21)
(0.592815 0.0750158 1.98678e-20)
(0.285978 0.105713 0)
(0.485735 -0.19818 7.01368e-21)
(0.831267 0.264598 -1.23716e-20)
(0.79834 -0.341074 0)
(0.113684 0.0399419 -2.24415e-20)
(0.0130148 0.00738482 7.83175e-21)
(1.0772 0.424246 -1.74778e-20)
(1.05847 -0.455013 -8.40667e-21)
(0.637959 -0.414202 7.70259e-21)
(0.840318 0.078921 0)
(0.356954 0.26495 1.62493e-20)
(0.925897 -0.565912 2.10953e-20)
(1.08612 0.244278 5.66976e-21)
(0.135694 0.126205 0)
(0.680086 -0.233797 8.29529e-21)
(0.159136 0.00382352 0)
(0.856721 0.320427 -1.34341e-20)
(0.845922 -0.326076 -5.74887e-21)
(0.0903209 -0.00136786 -6.85271e-21)
(0.668173 -0.249525 -2.9156e-22)
(0.161915 0.0212819 -3.37401e-23)
(1.03225 0.544888 1.32984e-20)
(0.0265169 -0.0393747 -1.85831e-20)
(1.15452 -0.359585 5.50409e-21)
(0.564671 -0.413975 -7.70507e-21)
(0.8653 0.0233233 -1.46766e-21)
(0.489021 0.364473 0)
(0.893355 0.340123 1.3692e-20)
(0.891599 -0.347209 7.01188e-21)
(0.0760298 0.00418277 1.66778e-20)
(0.736229 0.181433 0)
(0.668104 -0.307122 4.9254e-21)
(0.185553 0.0825632 0)
(0.757168 0.0826623 6.67494e-21)
(0.582587 -0.342188 0)
(0.328037 0.207634 0)
(0.56241 0.189582 5.29824e-21)
(0.590672 -0.148648 9.15997e-21)
(0.213926 -0.0340421 -1.6932e-23)
(0.322883 0.2467 -1.65875e-20)
(0.875281 0.107591 -1.65528e-20)
(0.692065 -0.446546 -2.07764e-20)
(1.12453 0.398572 7.30215e-21)
(1.05487 -0.502723 -9.21468e-21)
(0.011051 0.0227599 -1.85147e-22)
(0.934604 -0.547743 -1.43129e-20)
(1.07529 0.259557 -5.7475e-21)
(0.117234 0.110629 -8.66651e-21)
(0.72313 0.476764 1.2334e-20)
(0.314871 -0.245099 -6.50708e-21)
(0.91306 -0.113991 0)
(0.946198 0.535645 -3.4524e-21)
(0.919618 0.518852 3.17379e-21)
(1.04274 -0.26122 1.3529e-21)
(1.07627 -0.274595 -5.6888e-21)
(0.104173 -0.0958698 4.26099e-21)
(0.119944 -0.105965 3.77336e-21)
(-0.0180237 0.0027601 1.40652e-20)
(0.984596 -0.431052 5.98252e-21)
(0.933089 0.470719 -2.25232e-21)
(0.966269 0.520777 2.30556e-22)
(-0.0168508 0.00184425 0)
(1.10559 -0.404501 0)
(0.869506 0.230199 1.98895e-20)
(0.797108 -0.391847 2.73608e-21)
(0.142875 0.088029 0)
(-0.00107673 0.00634756 2.37137e-20)
(1.11039 0.443227 -7.45945e-21)
(1.09047 -0.475506 0)
(0.810341 0.483302 -1.74603e-20)
(0.846253 0.492787 1.3061e-20)
(0.94697 -0.19099 -7.23623e-21)
(0.973514 -0.213561 -2.74826e-21)
(0.205362 -0.161841 7.44701e-21)
(0.172533 -0.138227 3.73429e-21)
(0.0123963 0.0299931 0)
(1.02168 -0.568594 0)
(1.19172 0.358466 -2.10684e-21)
(0.889373 0.506029 4.01857e-21)
(-0.0166985 0.00565475 -8.74056e-21)
(1.04765 -0.387825 0)
(0.481268 -0.00539966 2.56836e-23)
(0.367354 0.0857861 -8.49199e-21)
(0.353521 -0.0818758 -4.2242e-21)
(0.973886 0.487728 6.70176e-21)
(1.04256 -0.443202 -3.20785e-21)
(-0.0196309 0.0025129 -1.74666e-20)
(0.64062 0.365888 -1.49583e-20)
(0.789516 -0.111091 1.25026e-20)
(0.288871 -0.192969 4.32707e-23)
(1.14745 0.419613 -1.29311e-22)
(1.07068 -0.522499 -1.26212e-20)
(-0.00253115 0.0167725 4.85257e-21)
(0.829225 -0.453606 -1.7172e-22)
(-0.0135787 -0.00350581 1.59687e-20)
(0.89611 0.389825 2.56252e-21)
(0.424313 0.215769 8.01625e-21)
(0.393449 -0.201667 5.06571e-22)
(0.644117 -0.0101818 -2.14193e-20)
(0.542757 0.0833 0)
(0.475715 -0.156495 2.09541e-20)
(0.271044 0.0620118 -1.08016e-20)
(1.06142 0.518643 -1.21252e-20)
(-0.0158495 -0.00416718 -1.09991e-20)
(1.13729 -0.442498 6.49431e-23)
(0.571169 0.0943174 0)
(0.495879 -0.178464 7.30955e-21)
(0.259735 0.077662 1.52741e-20)
(0.456566 -0.00157398 -8.66514e-21)
(0.363842 0.0642957 8.96776e-21)
(0.358253 -0.0624197 -2.23007e-21)
(0.388206 0.302497 7.99734e-21)
(0.894104 0.0771668 5.82257e-21)
(0.669539 -0.468319 -1.14086e-20)
(0.560861 0.0278139 0)
(0.414146 -0.157798 0)
(0.334997 0.130286 -1.26548e-21)
(0.590039 0.0591602 -1.06318e-20)
(0.460124 -0.185668 -5.64588e-21)
(0.3135 0.127112 -1.79343e-22)
(0.683159 0.456002 -1.87452e-20)
(0.886374 -0.0923848 9.48263e-21)
(0.353555 -0.274261 1.29637e-20)
(-0.00580488 -0.0102218 -1.66329e-20)
(-0.00956775 -0.00620708 1.68948e-20)
(1.1428 -0.432366 -3.55776e-21)
(1.13062 -0.448075 -2.52436e-21)
(1.07659 0.514192 -1.03132e-20)
(1.08911 0.5022 1.55047e-20)
(1.1428 0.398648 -9.03866e-21)
(1.05973 -0.515879 7.99178e-21)
(0.00713079 0.0250288 0)
(0.301519 -0.248585 -8.3809e-21)
(0.758093 0.510813 -3.84037e-21)
(0.948991 -0.12465 0)
(0.495245 0.292402 0)
(0.40377 -0.247558 7.88175e-21)
(0.727478 -0.0298251 -6.64199e-21)
(0.96992 0.160511 0)
(0.802838 -0.514275 -7.34086e-21)
(0.249473 0.20201 -2.55198e-22)
(0.902723 -0.505817 -3.52189e-21)
(-0.0169323 -0.00453364 0)
(1.05195 0.391503 7.26818e-21)
(0.0504325 0.0629769 0)
(1.1718 0.322457 0)
(1.0061 -0.581279 -5.48962e-21)
(1.07565 0.484857 -4.01387e-21)
(-0.0208027 0.000468366 0)
(1.09438 -0.474929 3.80455e-21)
(-0.0113177 -0.00219283 5.92732e-32)
(0.783671 -0.429888 2.22398e-21)
(0.829215 0.377964 -2.4882e-21)
(0.826483 -0.378021 -2.47228e-21)
(-0.0114191 0.00253801 -5.91332e-32)
(0.787532 0.430427 2.22506e-21)
(0.892179 -0.445848 1.42655e-20)
(0.967567 0.282119 0)
(0.0997941 0.0716096 2.22291e-20)
(0.991014 -0.552562 2.0716e-21)
(-0.00600989 0.0103438 0)
(1.17832 0.377323 0)
(1.03058 0.394338 8.5985e-21)
(1.00907 -0.434797 -7.7064e-21)
(0.0330974 0.0136587 -1.15278e-20)
(1.01345 0.571809 -1.31508e-20)
(0.0104531 -0.0258864 -6.68506e-21)
(1.19784 -0.358407 0)
(0.639902 0.217723 -4.07211e-21)
(0.173879 -0.009502 4.33094e-21)
(0.658713 -0.207792 -4.00086e-21)
(1.02072 -0.575056 0)
(0.0230277 0.0400888 -8.0793e-21)
(1.18855 0.347819 -2.46747e-21)
(0.942943 0.142873 6.68883e-21)
(0.277658 0.223051 4.54863e-21)
(0.771488 -0.498406 0)
(0.870488 -0.507288 0)
(0.998806 0.23067 0)
(0.151792 0.129106 -8.0959e-21)
(-0.00329409 0.000185027 0)
(0.484671 -0.240053 1.24163e-21)
(0.48521 0.239435 -1.25047e-21)
(0.92819 -0.463964 -3.03065e-21)
(-0.0170031 -0.000606924 9.64703e-21)
(0.947866 0.44563 3.26255e-21)
(0.598513 0.190279 1.05241e-20)
(0.194786 -0.00897393 -1.02648e-20)
(0.610651 -0.18356 -4.65451e-21)
(1.04388 -0.543543 -1.0699e-20)
(1.1749 0.394209 4.43507e-21)
(-0.000575615 0.0202515 0)
(0.00982965 0.0268705 8.45516e-21)
(1.20147 0.356771 0)
(1.00436 -0.574694 8.03106e-21)
(1.09385 0.468923 5.43369e-21)
(-0.00169821 -0.00216173 -2.53997e-20)
(1.10537 -0.450759 -1.06365e-20)
(0.0537542 -0.0592841 1.91032e-20)
(1.13218 -0.326765 -6.20893e-21)
(1.00315 0.547651 0)
(0.6604 0.464291 2.36289e-20)
(0.893073 -0.0740562 -1.2081e-20)
(0.399923 -0.312022 1.22985e-20)
(1.02265 -0.234289 -2.01521e-21)
(0.88616 0.525155 -7.54225e-21)
(0.15662 -0.134447 1.1691e-20)
(0.0473902 -0.0591045 1.71165e-20)
(1.00651 0.578112 0)
(1.17844 -0.323845 4.16327e-21)
(0.675999 0.354015 3.77201e-21)
(0.723871 0.383298 0)
(0.782366 -0.151585 1.30519e-20)
(0.828234 -0.175478 -1.39598e-20)
(0.227021 -0.136484 -8.06469e-21)
(0.203545 -0.132291 0)
(0.637238 0.346589 3.67989e-21)
(0.767631 -0.123078 0)
(0.265874 -0.164855 -3.83934e-21)
(0.796129 0.497269 0)
(0.950367 -0.174015 1.16885e-20)
(0.231693 -0.185745 -2.68468e-21)
(0.913737 -0.52713 7.19139e-21)
(1.04617 0.252943 -6.05269e-21)
(0.123125 0.109432 1.77689e-20)
(1.04601 -0.542373 0)
(1.15349 0.385467 -1.43981e-21)
(0.0114448 0.0303262 0)
(0.0825676 0.0769507 5.72773e-21)
(1.06573 0.296384 3.76882e-21)
(0.956313 -0.518255 4.65999e-21)
(0.882158 -0.383306 3.19428e-22)
(-0.0132986 0.00408204 -2.77858e-24)
(0.8226 0.451535 0)
(0.494582 0.235396 -7.27982e-21)
(0.504837 0.224653 0)
(0.309858 -0.147076 1.86561e-21)
(0.639755 -0.0643791 -2.60171e-20)
(0.285623 -0.122703 -2.36087e-21)
(0.624747 -0.0828399 1.65791e-20)
(0.72814 0.450587 0)
(0.676826 0.418118 2.41925e-21)
(0.3009 -0.217035 -1.77092e-23)
(0.886807 -0.13956 -7.48114e-21)
(0.27175 -0.200177 -1.96248e-20)
(0.845799 -0.115934 1.59221e-20)
(0.806863 -0.469674 0)
(-0.0143218 -0.00608997 -1.7429e-20)
(0.939002 0.376326 0)
(1.05055 -0.536709 6.54702e-21)
(1.1673 0.39798 -1.4258e-21)
(0.00042061 0.0200405 -5.09418e-21)
(0.525498 0.337857 4.48915e-21)
(0.443408 -0.30043 8.97054e-21)
(0.785295 -0.0245913 -2.14834e-20)
(0.869391 -0.543916 -1.56838e-20)
(1.02999 0.202101 -1.5623e-20)
(0.189334 0.165372 0)
(0.0687081 -0.0718722 -2.04285e-20)
(1.11987 -0.311661 6.60381e-21)
(0.987977 0.548443 0)
(1.00677 -0.487475 0)
(1.04994 0.454372 0)
(-0.0205849 -0.000137006 0)
(1.01633 -0.502408 0)
(1.08317 0.443205 -6.45975e-21)
(-0.020373 0.000307961 0)
(0.845405 0.471389 7.26498e-21)
(0.956234 -0.230063 -4.16735e-21)
(0.153562 -0.118868 -5.52727e-21)
(0.369255 0.204612 2.1061e-21)
(0.482345 -0.260629 0)
(0.680107 0.0427587 -7.17153e-21)
(1.09863 0.479802 -6.33105e-21)
(-0.0068175 -0.00254038 -1.4763e-20)
(1.11978 -0.454769 1.53301e-20)
(0.908502 -0.473098 0)
(0.997452 0.283668 0)
(0.0978827 0.0816801 -1.9175e-20)
(0.0249666 -0.0201952 -4.82219e-21)
(1.06991 -0.392188 -1.02868e-20)
(1.02658 0.469927 -1.78079e-20)
(0.646784 0.408145 -2.46441e-21)
(0.336109 -0.241767 1.313e-20)
(0.83297 -0.0965154 -8.18589e-21)
(0.8005 0.140555 1.30115e-20)
(0.67186 -0.371587 -7.50744e-21)
(0.249501 0.162137 -1.6263e-20)
(0.456774 0.256503 -1.1588e-22)
(0.410843 -0.239603 2.59567e-21)
(0.696519 -0.0160793 8.70149e-21)
(-0.0103288 0.00309178 5.7668e-21)
(1.10685 -0.47985 -6.80267e-21)
(1.11545 0.464939 -6.74103e-21)
(0.968584 0.463097 3.33432e-21)
(1.03123 -0.342299 3.1559e-21)
(0.0549813 -0.0411993 0)
(0.43403 0.207216 7.89447e-21)
(0.362148 -0.171949 -1.64416e-20)
(0.623267 -0.0254262 1.41369e-20)
(1.00871 0.583947 -5.29344e-21)
(0.0351579 -0.0490012 -7.59291e-21)
(1.1959 -0.333074 -1.55984e-22)
(0.606891 0.293395 4.5852e-21)
(0.70609 -0.132966 0)
(0.236879 -0.123201 0)
(0.648381 0.138476 1.89849e-20)
(0.578429 -0.239998 -4.50954e-21)
(0.221204 0.0807477 0)
(0.860214 -0.475622 0)
(0.968127 0.2341 -1.27999e-20)
(0.141565 0.116002 8.47782e-21)
(0.99235 0.543181 0)
(-0.0110794 -0.00505407 2.34729e-21)
(1.1602 -0.393382 -3.71851e-21)
(0.989638 0.556748 -5.00307e-21)
(-0.00527472 -0.00986535 -7.491e-21)
(1.17809 -0.375951 3.95826e-21)
(0.028854 -0.0295378 -4.388e-21)
(1.08583 -0.377177 5.9363e-21)
(1.02237 0.488066 1.63867e-20)
(0.827449 0.124793 5.96085e-21)
(0.683686 -0.403891 1.50368e-20)
(0.277601 0.189205 0)
(-0.0137282 0.000351158 -2.15027e-21)
(1.13305 -0.39007 3.47907e-21)
(0.948143 0.532498 0)
(0.0233553 0.0156356 0)
(1.03265 -0.45594 6.16695e-21)
(1.06353 0.401609 2.02789e-21)
(-0.00840498 -0.00376681 -8.71803e-21)
(0.668925 -0.404656 -2.70877e-21)
(0.746969 0.31795 0)
(0.67101 0.404287 2.69817e-21)
(0.745127 -0.318178 0)
(-0.00855374 0.00404136 -8.72112e-21)
(0.042772 -0.0529419 4.6553e-24)
(1.16042 -0.337269 7.33645e-22)
(1.01277 0.563156 0)
(-0.0175898 0.00392225 0)
(1.08732 -0.497372 0)
(1.12362 0.460619 -8.56377e-21)
(1.06665 0.514486 5.67159e-21)
(1.05985 0.503729 -4.58803e-21)
(0.00309427 -0.0181938 8.34739e-21)
(1.14396 -0.408033 1.19828e-21)
(0.00802272 -0.0194367 0)
(1.12488 -0.405689 0)
(1.07008 0.380768 -3.95171e-21)
(1.01961 -0.473154 -4.1394e-21)
(0.0293184 0.0262798 0)
(0.234116 0.20106 0)
(0.834037 -0.544884 0)
(1.01111 0.173799 0)
(0.492958 0.186054 -9.79816e-21)
(0.268439 -0.0839743 2.26425e-20)
(0.578474 -0.0903857 -9.13774e-21)
(1.05355 0.329351 -1.13842e-20)
(0.97281 -0.490571 -1.57602e-21)
(0.0578705 0.0536148 -1.68742e-20)
(0.0763682 0.0682436 -1.09836e-20)
(1.0435 0.308931 1.58382e-20)
(0.950322 -0.495934 2.18534e-21)
(0.989257 0.590352 -6.25765e-21)
(0.0703239 -0.0785794 -8.18848e-21)
(1.17303 -0.297164 0)
(0.744371 0.47035 0)
(0.911146 -0.141615 -3.4744e-21)
(0.272589 -0.209463 1.9237e-20)
(0.67831 0.393475 0)
(0.82232 -0.126044 -1.64174e-20)
(0.275158 -0.192661 8.85518e-24)
(0.959896 0.318638 1.52326e-20)
(0.915571 -0.421923 -1.97105e-21)
(0.0723801 0.040107 9.65792e-21)
(0.982226 0.312736 0)
(0.922061 -0.442019 -1.85898e-21)
(0.0754904 0.0506328 -8.86838e-21)
(0.405439 0.178428 0)
(0.368398 -0.158035 2.59559e-20)
(0.592168 -0.0137 0)
(0.737161 0.403849 0)
(0.848393 -0.174839 9.12275e-21)
(0.207214 -0.145577 -2.9074e-21)
(0.0364512 0.0516464 1.74946e-20)
(1.00429 -0.58763 1.22934e-20)
(1.19611 0.330347 0)
(1.10578 0.421933 1.38185e-22)
(-0.0183153 -0.000159229 -5.34808e-21)
(0.979086 -0.517485 -2.60387e-21)
(1.09587 0.397482 2.55731e-22)
(-0.0168928 -0.00215737 0)
(0.943286 -0.51767 7.35386e-21)
(0.549904 0.302915 -5.43747e-21)
(0.327243 -0.191848 2.81811e-21)
(0.717373 -0.0752312 1.90513e-22)
(0.953026 -0.479004 -2.59217e-22)
(-0.0189469 -0.00171537 -2.21386e-20)
(1.01801 0.437057 0)
(0.995739 0.489065 -1.42397e-20)
(0.0451951 -0.0409745 0)
(1.06889 -0.351709 0)
(-0.0171693 -0.00424375 8.78025e-21)
(0.89951 -0.493688 3.59865e-21)
(1.01336 0.403001 -5.53126e-21)
(0.519864 0.110108 -1.30903e-20)
(0.256955 0.0246972 -1.37141e-20)
(0.493934 -0.133049 -5.16746e-23)
(0.796483 0.319028 2.30789e-21)
(0.816063 -0.279433 2.12731e-21)
(0.112908 -0.0241364 8.78499e-21)
(0.635854 -0.385541 -1.72319e-20)
(0.805231 0.0995104 -2.13936e-20)
(0.317347 0.213784 0)
(-0.00283455 0.0152342 0)
(1.00976 -0.554828 2.68945e-21)
(1.18387 0.381288 0)
(0.893118 -0.486105 0)
(0.99877 0.265471 0)
(0.114483 0.0961907 0)
(0.0188065 -0.0344348 0)
(1.02284 0.570341 4.76558e-21)
(1.193 -0.354547 -4.04971e-21)
(0.843247 0.339582 0)
(0.854284 -0.307861 -1.0739e-21)
(0.0949532 -0.0166586 -4.37725e-25)
(0.473619 0.164891 9.46441e-21)
(0.275625 -0.072574 -1.94416e-20)
(0.551954 -0.0826811 0)
(1.03941 -0.54183 1.01116e-20)
(1.16551 0.407221 -4.21624e-21)
(-0.00754019 0.0131168 0)
(0.0151735 -0.00148911 1.00751e-20)
(1.06027 -0.435263 -3.90708e-22)
(1.05654 0.440811 -2.94344e-22)
(1.03231 0.520585 0)
(1.01732 0.51668 -4.68109e-21)
(-0.0164271 -0.00235591 -5.39256e-21)
(-0.0183769 -9.86711e-05 6.66369e-21)
(1.13392 -0.425408 2.4126e-21)
(1.11566 -0.431731 -1.98428e-21)
(0.793852 0.217536 0)
(0.732917 -0.341466 -1.44306e-20)
(0.15416 0.0725972 -1.06897e-20)
(0.853041 -0.422508 -2.00519e-20)
(0.928637 0.259594 0)
(0.114037 0.0782042 1.17289e-20)
(0.60874 0.153921 1.07505e-20)
(0.577203 -0.204173 -7.67844e-21)
(0.203254 0.0376043 -1.67571e-20)
(1.00323 -0.532792 -6.08662e-21)
(1.14113 0.41305 -4.98277e-21)
(0.984877 -0.542684 2.8405e-21)
(-0.0156033 0.00345771 5.66497e-21)
(1.15396 0.39285 4.6672e-21)
(-0.0117584 0.0045079 0)
(0.93502 0.38155 0)
(0.942913 -0.364711 0)
(0.0602706 -0.00645153 -1.0899e-20)
(1.1523 0.422441 -5.21501e-21)
(1.14207 0.424149 1.32123e-20)
(1.05092 -0.528451 -3.98396e-21)
(1.03571 -0.524589 1.03322e-20)
(-0.0137009 0.00813078 -1.49323e-20)
(-0.0165292 0.00474093 8.77152e-24)
(0.901456 0.241012 0)
(0.819536 -0.422425 1.8821e-20)
(0.141023 0.0994349 -1.52033e-20)
(0.743784 0.243532 -1.00693e-20)
(0.761461 -0.292267 1.28947e-20)
(0.122932 0.0124441 0)
(1.01846 0.560755 0)
(0.000180691 -0.0170525 -1.03365e-21)
(1.186 -0.37921 -3.80386e-21)
(0.798711 0.239924 -7.40192e-21)
(0.754224 -0.329347 0)
(0.135444 0.0532282 1.77035e-20)
(0.655645 0.183051 -4.34204e-21)
(0.63012 -0.237363 9.01112e-21)
(0.179782 0.0335951 -9.75373e-21)
(1.01614 0.533721 0)
(-0.0125016 -0.00526558 0)
(1.157 -0.410644 5.29195e-21)
(0.853187 0.364451 0)
(0.886899 -0.29821 -2.21702e-21)
(0.0897863 -0.0333465 1.08411e-20)
(0.754466 -0.507254 0)
(0.943418 0.126095 0)
(0.3126 0.253526 5.86538e-22)
(0.646585 0.422891 6.04724e-22)
(0.849393 -0.0840724 0)
(0.358957 -0.265853 -1.01485e-20)
(0.951397 -0.585879 -8.18521e-21)
(0.116212 0.114852 0)
(1.1262 0.259864 0)
(-0.00629099 0.000155635 2.09643e-20)
(0.633702 -0.315704 -1.73934e-21)
(0.634869 0.315522 1.75173e-21)
(0.822104 0.285415 0)
(0.799069 -0.317072 -7.90965e-21)
(0.108066 0.0162756 0)
(1.05003 0.541269 -9.0684e-21)
(-0.00120615 -0.0168959 -2.8193e-20)
(1.16966 -0.396248 8.54032e-21)
(0.482929 -0.363227 0)
(0.871567 -0.0256648 7.99424e-21)
(0.573811 0.41462 0)
(0.794349 0.466999 0)
(-0.014156 0.00678512 5.20068e-21)
(0.933151 -0.369642 0)
(0.302494 0.150253 -1.04278e-20)
(0.319061 0.174297 1.06687e-20)
(0.510455 -0.250086 0)
(0.655622 0.0742 -9.08799e-21)
(0.529457 -0.279101 1.65953e-20)
(0.688344 0.0692137 7.26895e-21)
(0.603721 0.129423 -1.01146e-20)
(0.546183 -0.201782 -1.02588e-20)
(0.227483 0.0627199 0)
(0.382923 0.195634 -9.23869e-21)
(0.340467 0.167178 0)
(0.43504 -0.221059 0)
(0.644289 0.0178832 0)
(0.455586 -0.2179 9.43875e-21)
(0.62986 0.0408699 -5.40801e-23)
(0.785213 0.271572 -6.37248e-22)
(0.718363 -0.283451 5.65973e-21)
(0.142581 0.0282797 1.20039e-20)
(0.749286 0.228811 1.73047e-20)
(0.717179 -0.296183 0)
(0.14897 0.0442877 0)
(-0.0133077 1.37988e-05 0)
(0.9406 -0.536398 0)
(1.13189 0.383191 -4.55441e-21)
(0.592427 0.315775 1.4953e-20)
(0.729718 -0.101262 0)
(0.285084 -0.16621 -5.21871e-21)
(1.14041 0.438835 1.15457e-20)
(1.0746 -0.515519 -4.90804e-21)
(-0.0146222 0.00796514 8.51934e-21)
(0.97798 0.349934 0)
(1.01201 0.366298 -8.2718e-21)
(0.949233 -0.41617 2.45747e-21)
(0.980167 -0.433394 -7.59559e-21)
(0.0548088 0.0252831 1.20069e-20)
(0.0438092 0.0238324 1.11274e-20)
(0.577854 0.289291 0)
(0.699911 -0.108655 0)
(0.269098 -0.144753 -2.47163e-21)
(0.782592 0.454053 -5.85889e-21)
(0.908416 -0.182512 0)
(0.210138 -0.157047 -6.41275e-21)
(0.90894 0.331852 4.35992e-21)
(0.892369 -0.373172 0)
(0.0730885 0.0184362 -1.1014e-20)
(0.406717 0.108536 -1.02717e-20)
(0.496283 -0.0385738 -4.98639e-21)
(0.317862 -0.0707877 -5.23316e-21)
(1.02611 0.337479 0)
(0.964548 -0.464563 0)
(0.0566811 0.0448308 1.79422e-20)
(0.467038 0.189605 0)
(0.298792 -0.112392 -2.86182e-21)
(0.586035 -0.0647221 0)
(0.897212 0.26238 9.83121e-21)
(0.830139 -0.403167 1.04649e-20)
(0.117137 0.0683215 1.52085e-21)
(0.780548 0.430821 -5.92695e-21)
(0.890349 -0.19592 -1.03929e-20)
(0.18768 -0.137233 0)
(0.420663 0.135708 1.01814e-20)
(0.401441 0.138343 4.55037e-21)
(0.526146 -0.0476687 -4.86475e-21)
(0.312187 -0.0877219 1.03644e-20)
(0.540285 -0.0294317 0)
(0.336194 -0.112142 1.84483e-20)
(0.366928 0.155417 4.59748e-21)
(0.397776 -0.170912 -1.21127e-20)
(0.342241 0.154125 -2.95882e-21)
(0.585295 0.010918 0)
(0.445743 -0.202883 -6.00814e-21)
(0.610708 0.0369272 1.03952e-20)
(0.662147 0.329835 -5.43505e-21)
(0.705423 0.339454 0)
(0.75588 -0.158714 -9.76656e-21)
(0.779209 -0.187913 7.6273e-21)
(0.212393 -0.116865 2.332e-20)
(0.180549 -0.093715 -1.93973e-20)
(0.0440176 -0.0489358 0)
(1.11311 -0.343614 3.60508e-21)
(1.00871 0.525183 8.35779e-21)
(0.341149 0.267278 -1.98e-20)
(0.90446 0.104135 -9.1846e-21)
(0.708702 -0.476329 1.79508e-20)
(0.0282923 -0.0378231 9.52714e-21)
(0.0204707 -0.0292824 0)
(1.12907 -0.366816 -3.11906e-21)
(1.11512 -0.38374 -5.42825e-21)
(1.02859 0.528638 -2.12435e-20)
(1.03964 0.509744 1.10297e-20)
(0.461833 0.323933 0)
(0.537016 -0.363053 9.76241e-21)
(0.813221 0.0220339 -2.09597e-21)
(0.400856 0.0623916 -2.16374e-20)
(0.33099 -0.0273233 0)
(0.439386 -0.0335778 1.70704e-20)
(1.03778 0.361049 3.92144e-21)
(0.988544 -0.459626 8.57873e-21)
(0.0430206 0.0327404 0)
(0.527193 0.259818 0)
(0.300386 -0.159659 2.35506e-21)
(0.668989 -0.07728 8.43753e-21)
(0.807608 0.43856 0)
(0.910329 -0.214284 0)
(0.166146 -0.121256 1.53859e-21)
(0.96729 0.528103 0)
(0.966061 0.5081 0)
(1.08505 -0.30472 -1.99942e-21)
(0.079536 -0.0756257 1.16816e-20)
(1.06689 -0.313057 5.44993e-21)
(0.0720019 -0.0657288 -1.58116e-20)
(0.968082 0.381872 -8.21553e-21)
(0.967551 -0.387311 -8.06444e-21)
(0.0485253 0.00294321 -5.22581e-21)
(0.86835 0.48001 -4.99802e-21)
(0.989578 -0.395007 0)
(-0.0164765 0.00533501 6.38457e-21)
(0.509454 -0.372423 0)
(0.852914 -0.00651923 -6.51883e-21)
(0.531606 0.382027 0)
(0.608405 0.428336 -6.10831e-21)
(0.585632 0.403072 6.59785e-21)
(0.435609 -0.327213 6.31648e-21)
(0.867413 -0.0483157 0)
(0.435563 -0.31618 0)
(0.842146 -0.0450906 0)
(1.04259 0.275062 1.37987e-20)
(0.92559 -0.515398 -1.62997e-20)
(0.104472 0.09248 -8.20062e-22)
(0.748747 0.44263 1.20488e-20)
(0.886362 -0.162767 0)