/*--------------------------------*- C++ -*----------------------------------*\
  =========                 |
  \\      /  F ield         | OpenFOAM: The Open Source CFD Toolbox
   \\    /   O peration     | Website:  https://openfoam.org
    \\  /    A nd           | Version:  6
     \\/     M anipulation  |
\*---------------------------------------------------------------------------*/
FoamFile
{
    version     2.0;
    format      ascii;
    class       volVectorField;
    location    "0";
    object      Ulifty0;
}
// * * * * * * * * * * * * * * * * * * * * * * * * * * * * * * * * * * * * * //

dimensions      [0 1 -1 0 0 0 0];

internalField   nonuniform List<vector> 
13046
(
(0 -0.192074 0)
(0 -0.263939 0)
(0 -0.334105 0)
(0 -0.200672 0)
(0 -0.298397 0)
(0 -0.294575 0)
(0 -0.187812 0)
(0 -0.303208 0)
(0 -0.30324 0)
(0 0.0123873 0)
(0 -0.353146 0)
(0 -0.416267 0)
(0 -0.165068 0)
(0 -0.30226 0)
(0 -0.347061 0)
(0 -0.0113502 0)
(0 -0.454747 0)
(0 -0.285686 0)
(0 -0.23946 0)
(0 -0.308719 0)
(0 -0.228608 0)
(0 -0.00688698 0)
(0 -0.443754 0)
(0 -0.293716 0)
(0 -0.217166 0)
(0 -0.277088 0)
(0 -0.315281 0)
(0 -0.150134 0)
(0 -0.274054 0)
(0 -0.34957 0)
(0 -0.177439 0)
(0 -0.25025 0)
(0 -0.339298 0)
(0 -0.218261 0)
(0 -0.297292 0)
(0 -0.263028 0)
(0 -0.22875 0)
(0 -0.286567 0)
(0 -0.270662 0)
(0 -0.198234 0)
(0 -0.381087 0)
(0 -0.211424 0)
(0 -0.256738 0)
(0 -0.267754 0)
(0 -0.278684 0)
(0 -0.232032 0)
(0 -0.251007 0)
(0 -0.278831 0)
(0 -0.181188 0)
(0 -0.275446 0)
(0 -0.324692 0)
(0 -0.414362 0)
(0 -0.19997 0)
(0 -0.15909 0)
(0 -0.430326 0)
(0 -0.157483 0)
(0 -0.217614 0)
(0 -0.208388 0)
(0 -0.0754714 0)
(0 -0.445719 0)
(0 -0.114333 0)
(0 -0.356913 0)
(0 -0.303303 0)
(0 -0.386707 0)
(0 -0.330587 0)
(0 -0.0470378 0)
(0 -0.102213 0)
(0 -0.209067 0)
(0 -0.467866 0)
(0 -0.101451 0)
(0 -0.199709 0)
(0 -0.44697 0)
(0 -0.228579 0)
(0 -0.0736487 0)
(0 -0.487995 0)
(0 -0.23786 0)
(0 -0.323358 0)
(0 -0.228992 0)
(0 -0.475054 0)
(0 -0.0655079 0)
(0 -0.247411 0)
(0 -0.189571 0)
(0 -0.275361 0)
(0 -0.298962 0)
(0 -0.416654 0)
(0 -0.353362 0)
(0 -0.0447484 0)
(0 -0.0575958 0)
(0 -0.334627 0)
(0 -0.38494 0)
(0 -0.298677 0)
(0 -0.0611883 0)
(0 -0.470485 0)
(0 -0.111004 0)
(0 -0.0876911 0)
(0 -0.305355 0)
(0 -0.304174 0)
(0 -0.384593 0)
(0 -0.361985 0)
(0 -0.33299 0)
(0 -0.07407 0)
(0 -0.41238 0)
(0 -0.227556 0)
(0 -0.269144 0)
(0 -0.294928 0)
(0 -0.228846 0)
(0 -0.153823 0)
(0 -0.385498 0)
(0 -0.201686 0)
(0 -0.393682 0)
(0 -0.174802 0)
(0 0.0764754 0)
(0 -0.456269 0)
(0 -0.387966 0)
(0 -0.166077 0)
(0 -0.277456 0)
(0 -0.319579 0)
(0 -0.0925819 0)
(0 -0.0916106 0)
(0 -0.292863 0)
(0 -0.411216 0)
(0 -0.28152 0)
(0 -0.385141 0)
(0 0.0124103 0)
(0 -0.367326 0)
(0 -0.44285 0)
(0 -0.131163 0)
(0 -0.292668 0)
(0 -0.37347 0)
(0 -0.180088 0)
(0 -0.373437 0)
(0 -0.211104 0)
(0 -0.277425 0)
(0 -0.0660716 0)
(0 -0.450381 0)
(0 -0.0800754 0)
(0 -0.345663 0)
(0 -0.363308 0)
(0 -0.177728 0)
(0 -0.262557 0)
(0 -0.361458 0)
(0 -0.156125 0)
(0 -0.341717 0)
(0 -0.286794 0)
(0 -0.211401 0)
(0 -0.403938 0)
(0 -0.168556 0)
(0 -0.248847 0)
(0 -0.176538 0)
(0 -0.384754 0)
(0 -0.115175 0)
(0 -0.362306 0)
(0 -0.331315 0)
(0 -0.266271 0)
(0 -0.189526 0)
(0 -0.347535 0)
(0 -0.421208 0)
(0 -0.129762 0)
(0 -0.430804 0)
(0 -0.12765 0)
(0 -0.226208 0)
(0 -0.251748 0)
(0 -0.161535 0)
(0 -0.367407 0)
(0 -0.274162 0)
(0 -0.00681145 0)
(0 -0.418129 0)
(0 -0.39083 0)
(0 0.0398836 0)
(0 -0.459664 0)
(0 -0.375946 0)
(0 -0.071073 0)
(0 -0.33084 0)
(0 -0.373949 0)
(0 -0.169425 0)
(0 -0.212169 0)
(0 -0.416354 0)
(0 -0.160655 0)
(0 -0.248258 0)
(0 -0.35744 0)
(0 -0.3746 0)
(0 -0.393008 0)
(0 -0.0148062 0)
(0 -0.16879 0)
(0 -0.200491 0)
(0 -0.391927 0)
(0 -0.254391 0)
(0 -0.176274 0)
(0 -0.354328 0)
(0 -0.173211 0)
(0 -0.337293 0)
(0 -0.286121 0)
(0 -0.298336 0)
(0 -0.331666 0)
(0 -0.132431 0)
(0 -0.286969 0)
(0 -0.356476 0)
(0 -0.0376318 0)
(0 -0.366509 0)
(0 -0.368201 0)
(0 -0.296715 0)
(0 -0.071826 0)
(0 -0.426465 0)
(0 -0.0444171 0)
(0 -0.43472 0)
(0 -0.316111 0)
(0 -0.442133 0)
(0 -0.14938 0)
(0 -0.175619 0)
(0 -0.159222 0)
(0 -0.0621265 0)
(0 -0.479581 0)
(0 -0.228628 0)
(0 -0.443022 0)
(0 -0.0445577 0)
(0 -0.33931 0)
(0 -0.219043 0)
(0 -0.278382 0)
(0 -0.281008 0)
(0 -0.157094 0)
(0 -0.264478 0)
(0 -0.357231 0)
(0 -0.295567 0)
(0 -0.0821345 0)
(0 -0.451386 0)
(0 -0.157209 0)
(0 -0.311421 0)
(0 -0.329088 0)
(0 -0.428778 0)
(0 -0.415788 0)
(0 0.018429 0)
(0 -0.199307 0)
(0 -0.1485 0)
(0 -0.455217 0)
(0 -0.0660046 0)
(0 -0.422978 0)
(0 -0.317322 0)
(0 -0.142125 0)
(0 -0.392322 0)
(0 -0.258846 0)
(0 -0.11719 0)
(0 -0.271387 0)
(0 -0.373902 0)
(0 -0.465187 0)
(0 -0.0970432 0)
(0 -0.254913 0)
(0 -0.110311 0)
(0 -0.434423 0)
(0 -0.241885 0)
(0 -0.40737 0)
(0 -0.419704 0)
(0 0.0272999 0)
(0 -0.194175 0)
(0 -0.408331 0)
(0 -0.187228 0)
(0 0.106644 0)
(0 -0.485619 0)
(0 -0.32746 0)
(0 -0.257713 0)
(0 -0.216599 0)
(0 -0.305931 0)
(0 -0.134648 0)
(0 -0.14236 0)
(0 -0.369238 0)
(0 -0.370964 0)
(0 -0.265644 0)
(0 -0.279439 0)
(0 -0.460598 0)
(0 -0.0291247 0)
(0 -0.244038 0)
(0 -0.139759 0)
(0 -0.274017 0)
(0 -0.386283 0)
(0 -0.110594 0)
(0 -0.448423 0)
(0 -0.260914 0)
(0 -0.0888852 0)
(0 -0.318575 0)
(0 -0.394714 0)
(0 -0.245315 0)
(0 -0.255998 0)
(0 -0.26684 0)
(0 -0.123755 0)
(0 -0.40005 0)
(0 -0.253024 0)
(0 -0.122543 0)
(0 -0.253428 0)
(0 -0.388695 0)
(0 -0.153977 0)
(0 -0.130747 0)
(0 -0.180806 0)
(0 -0.413717 0)
(0 -0.174372 0)
(0 -0.121569 0)
(0 -0.411542 0)
(0 -0.277456 0)
(0 -0.0660725 0)
(0 -0.37599 0)
(0 -0.317916 0)
(0 -0.217503 0)
(0 -0.394057 0)
(0 -0.196017 0)
(0 -0.225246 0)
(0 -0.13202 0)
(0 -0.438861 0)
(0 -0.0989427 0)
(0 -0.249912 0)
(0 -0.412494 0)
(0 -0.190236 0)
(0 -0.426993 0)
(0 -0.170364 0)
(0 -0.0895206 0)
(0 -0.0736767 0)
(0 -0.262539 0)
(0 -0.431703 0)
(0 -0.265744 0)
(0 -0.411726 0)
(0 -0.387488 0)
(0 -0.387849 0)
(0 -0.0246074 0)
(0 -0.118481 0)
(0 -0.284103 0)
(0 -0.401291 0)
(0 -0.393947 0)
(0 -0.479841 0)
(0 0.121676 0)
(0 -0.199989 0)
(0 -0.259965 0)
(0 -0.341388 0)
(0 -0.131627 0)
(0 -0.35226 0)
(0 -0.316831 0)
(0 -0.370253 0)
(0 -0.0599845 0)
(0 -0.363137 0)
(0 -0.430476 0)
(0 -0.137753 0)
(0 -0.199024 0)
(0 -0.458568 0)
(0 -0.0883583 0)
(0 -0.267307 0)
(0 -0.293182 0)
(0 -0.308111 0)
(0 -0.127972 0)
(0 -0.325955 0)
(0 -0.345182 0)
(0 -0.325417 0)
(0 -0.308902 0)
(0 -0.0312719 0)
(0 -0.445869 0)
(0 -0.278456 0)
(0 -0.464228 0)
(0 -0.159647 0)
(0 -0.177142 0)
(0 -0.107997 0)
(0 -0.329603 0)
(0 -0.343389 0)
(0 -0.152539 0)
(0 -0.353476 0)
(0 -0.274303 0)
(0 -0.164893 0)
(0 -0.407787 0)
(0 -0.229124 0)
(0 -0.190235 0)
(0 -0.288663 0)
(0 -0.319884 0)
(0 -0.217201 0)
(0 -0.136681 0)
(0 -0.446351 0)
(0 -0.0574743 0)
(0 -0.409929 0)
(0 -0.366672 0)
(0 -0.436776 0)
(0 -0.0820768 0)
(0 -0.27084 0)
(0 -0.118465 0)
(0 -0.448214 0)
(0 -0.19203 0)
(0 -0.0685433 0)
(0 -0.0780521 0)
(0 -0.236703 0)
(0 -0.247009 0)
(0 -0.449965 0)
(0 -0.437038 0)
(0 -0.502429 0)
(0 -0.396537 0)
(0 0.105573 0)
(0 0.0633527 0)
(0 -0.489264 0)
(0 -0.324662 0)
(0 -0.126069 0)
(0 -0.385646 0)
(0 -0.29303 0)
(0 -0.396693 0)
(0 -0.0369657 0)
(0 -0.381668 0)
(0 -0.114063 0)
(0 -0.0930492 0)
(0 -0.225936 0)
(0 -0.225616 0)
(0 -0.439449 0)
(0 -0.422583 0)
(0 -0.351074 0)
(0 -0.471059 0)
(0 -0.0319136 0)
(0 0.107876 0)
(0 -0.520967 0)
(0 -0.34274 0)
(0 -0.24574 0)
(0 -0.238853 0)
(0 -0.304254 0)
(0 0.0808305 0)
(0 -0.372489 0)
(0 -0.48313 0)
(0 -0.149527 0)
(0 -0.211804 0)
(0 -0.39777 0)
(0 -0.0317621 0)
(0 -0.425523 0)
(0 -0.371054 0)
(0 -0.467121 0)
(0 -0.462608 0)
(0 0.115904 0)
(0 -0.198664 0)
(0 -0.359679 0)
(0 -0.200812 0)
(0 -0.214128 0)
(0 -0.320974 0)
(0 -0.272937 0)
(0 0.0335503 0)
(0 -0.440071 0)
(0 -0.323356 0)
(0 -0.190394 0)
(0 -0.319155 0)
(0 -0.261298 0)
(0 -0.247711 0)
(0 -0.245265 0)
(0 -0.293203 0)
(0 -0.19924 0)
(0 -0.136889 0)
(0 -0.464386 0)
(0 -0.205772 0)
(0 -0.321756 0)
(0 -0.223636 0)
(0 -0.203599 0)
(0 -0.329792 0)
(0 -0.233918 0)
(0 -0.140021 0)
(0 -0.190466 0)
(0 -0.459637 0)
(0 -0.425605 0)
(0 -0.422143 0)
(0 -0.323933 0)
(0 -0.351773 0)
(0 -0.00101498 0)
(0 -0.0135741 0)
(0 -0.0317105 0)
(0 -0.41089 0)
(0 -0.349293 0)
(0 -0.465131 0)
(0 -0.118032 0)
(0 -0.200344 0)
(0 -0.190203 0)
(0 -0.401364 0)
(0 -0.199115 0)
(0 -0.117072 0)
(0 -0.45896 0)
(0 -0.242136 0)
(0 -0.512476 0)
(0 -0.42667 0)
(0 0.0486772 0)
(0 -0.308885 0)
(0 -0.0518251 0)
(0 -0.457558 0)
(0 0.0409348 0)
(0 -0.426237 0)
(0 -0.367502 0)
(0 -0.519234 0)
(0 -0.536792 0)
(0 0.116856 0)
(0 -0.412004 0)
(0 -0.519234 0)
(0 0.184881 0)
(0 -0.390938 0)
(0 -0.107576 0)
(0 -0.307784 0)
(0 -0.47721 0)
(0 -0.362915 0)
(0 0.00149401 0)
(0 -0.07559 0)
(0 -0.358198 0)
(0 -0.355601 0)
(0 0.0123726 0)
(0 -0.486385 0)
(0 -0.277303 0)
(0 -0.176584 0)
(0 -0.320968 0)
(0 -0.29666 0)
(0 -0.443112 0)
(0 -0.314134 0)
(0 -0.0320793 0)
(0 -0.117109 0)
(0 -0.212328 0)
(0 -0.440377 0)
(0 -0.420597 0)
(0 -0.0973237 0)
(0 -0.261618 0)
(0 -0.685775 0)
(0 -0.698999 0)
(0 0.302937 0)
(0 -0.46799 0)
(0 -0.480775 0)
(0 0.0811962 0)
(0 -0.18218 0)
(0 -0.311724 0)
(0 -0.289089 0)
(0 -0.437572 0)
(0 -0.0094674 0)
(0 -0.351282 0)
(0 -0.342645 0)
(0 -0.0207122 0)
(0 -0.475154 0)
(0 -0.023543 0)
(0 -0.394409 0)
(0 -0.352194 0)
(0 -0.443857 0)
(0 -0.269559 0)
(0 -0.0350111 0)
(0 -0.140778 0)
(0 -0.179311 0)
(0 -0.467702 0)
(0 -0.23922 0)
(0 -0.0925204 0)
(0 -0.44909 0)
(0 -0.459243 0)
(0 -0.0207235 0)
(0 -0.245998 0)
(0 -0.143257 0)
(0 -0.137102 0)
(0 -0.233592 0)
(0 -0.250596 0)
(0 -0.382161 0)
(0 -0.401561 0)
(0 -0.163183 0)
(0 -0.234035 0)
(0 -0.398809 0)
(0 -0.104855 0)
(0 -0.207606 0)
(0 -0.441809 0)
(0 -0.437347 0)
(0 -0.0976972 0)
(0 -0.284232 0)
(0 -0.42194 0)
(0 -0.0308048 0)
(0 -0.341639 0)
(0 -0.297798 0)
(0 -0.0878323 0)
(0 -0.41855 0)
(0 -0.408742 0)
(0 -0.519407 0)
(0 0.12047 0)
(0 -0.187804 0)
(0 -0.200172 0)
(0 -0.352398 0)
(0 -0.225293 0)
(0 -0.353566 0)
(0 -0.252045 0)
(0 -0.12796 0)
(0 -0.136138 0)
(0 -0.423952 0)
(0 -0.210526 0)
(0 -0.43298 0)
(0 -0.200163 0)
(0 -0.529987 0)
(0 -0.463952 0)
(0 0.083453 0)
(0 -0.437402 0)
(0 -0.0308592 0)
(0 -0.364187 0)
(0 -0.181247 0)
(0 -0.4347 0)
(0 -0.184637 0)
(0 -0.451624 0)
(0 -0.102287 0)
(0 -0.243686 0)
(0 -0.460598 0)
(0 -0.270951 0)
(0 -0.0530449 0)
(0 -0.436302 0)
(0 0.0491821 0)
(0 -0.445361 0)
(0 -0.439764 0)
(0 0.0439291 0)
(0 -0.419015 0)
(0 -0.109006 0)
(0 -0.249505 0)
(0 -0.423178 0)
(0 -0.218125 0)
(0 -0.372633 0)
(0 -0.186192 0)
(0 -0.0214016 0)
(0 -0.409467 0)
(0 -0.362893 0)
(0 -0.391199 0)
(0 -0.0929939 0)
(0 -0.292725 0)
(0 -0.404073 0)
(0 -0.332008 0)
(0 -0.0668037 0)
(0 -0.150842 0)
(0 -0.4361 0)
(0 -0.200464 0)
(0 -0.150944 0)
(0 -0.400778 0)
(0 -0.24414 0)
(0 -0.191922 0)
(0 -0.379945 0)
(0 -0.195293 0)
(0 -0.394081 0)
(0 -0.366414 0)
(0 -0.0118473 0)
(0 -0.0688567 0)
(0 -0.290442 0)
(0 -0.394368 0)
(0 -0.211874 0)
(0 -0.35944 0)
(0 -0.223976 0)
(0 -0.0126973 0)
(0 -0.479768 0)
(0 -0.263334 0)
(0 -0.161028 0)
(0 -0.234604 0)
(0 -0.359801 0)
(0 -0.172678 0)
(0 -0.326983 0)
(0 -0.26979 0)
(0 -0.417862 0)
(0 -0.112822 0)
(0 -0.274055 0)
(0 0.0525663 0)
(0 -0.479769 0)
(0 -0.291997 0)
(0 0.038513 0)
(0 -0.49012 0)
(0 -0.292188 0)
(0 -0.402888 0)
(0 -0.299195 0)
(0 -0.0484688 0)
(0 -0.146454 0)
(0 -0.417291 0)
(0 -0.239112 0)
(0 -0.496812 0)
(0 -0.308746 0)
(0 0.0672693 0)
(0 -0.35107 0)
(0 -0.361915 0)
(0 -0.0614811 0)
(0 -0.530566 0)
(0 -0.56557 0)
(0 0.167942 0)
(0 0.194094 0)
(0 -0.474551 0)
(0 -0.574232 0)
(0 -0.454036 0)
(0 -0.273356 0)
(0 -0.0339585 0)
(0 -0.400601 0)
(0 -0.390012 0)
(0 0.0114616 0)
(0 -0.0225375 0)
(0 -0.0235033 0)
(0 -0.440827 0)
(0 -0.325875 0)
(0 -0.414301 0)
(0 -0.311605 0)
(0 -0.0756593 0)
(0 -0.386445 0)
(0 -0.351545 0)
(0 -0.23701 0)
(0 -0.463521 0)
(0 -0.108094 0)
(0 -0.204691 0)
(0 -0.332165 0)
(0 -0.253023 0)
(0 -0.0802679 0)
(0 -0.394847 0)
(0 -0.315014 0)
(0 -0.307897 0)
(0 -0.0912157 0)
(0 -0.406223 0)
(0 -0.0323144 0)
(0 -0.474675 0)
(0 -0.243372 0)
(0 -0.121217 0)
(0 -0.200634 0)
(0 -0.447566 0)
(0 -0.149943 0)
(0 -0.227323 0)
(0 -0.426159 0)
(0 -0.100699 0)
(0 -0.366959 0)
(0 -0.326097 0)
(0 -0.0960817 0)
(0 -0.376897 0)
(0 -0.313547 0)
(0 -0.213821 0)
(0 -0.34366 0)
(0 -0.220872 0)
(0 -0.126546 0)
(0 -0.232313 0)
(0 -0.408733 0)
(0 -0.313959 0)
(0 -0.470576 0)
(0 -0.0444309 0)
(0 0.0228979 0)
(0 -0.415054 0)
(0 -0.478524 0)
(0 0.0392803 0)
(0 -0.396683 0)
(0 -0.477477 0)
(0 -0.180582 0)
(0 -0.393139 0)
(0 -0.219092 0)
(0 -0.454951 0)
(0 -0.449885 0)
(0 0.0798783 0)
(0 -0.0693859 0)
(0 -0.418386 0)
(0 -0.301592 0)
(0 -0.434602 0)
(0 -0.482137 0)
(0 0.0648653 0)
(0 -0.201241 0)
(0 -0.270935 0)
(0 -0.288197 0)
(0 -0.127947 0)
(0 -0.310833 0)
(0 -0.357926 0)
(0 -0.407811 0)
(0 -0.146768 0)
(0 -0.216997 0)
(0 -0.358158 0)
(0 -0.463408 0)
(0 -0.0160889 0)
(0 -0.422946 0)
(0 -0.109286 0)
(0 -0.293343 0)
(0 -0.466157 0)
(0 0.00161098 0)
(0 -0.262996 0)
(0 -0.117311 0)
(0 -0.312455 0)
(0 -0.351947 0)
(0 -0.208932 0)
(0 -0.314009 0)
(0 -0.250905 0)
(0 -0.453191 0)
(0 -0.00844583 0)
(0 -0.373393 0)
(0 -0.377793 0)
(0 -0.344313 0)
(0 -0.0583437 0)
(0 0.0333538 0)
(0 0.0638928 0)
(0 -0.465115 0)
(0 -0.463303 0)
(0 -0.332638 0)
(0 -0.335289 0)
(0 -0.148669 0)
(0 -0.366806 0)
(0 -0.290876 0)
(0 -0.378369 0)
(0 -0.10758 0)
(0 -0.28698 0)
(0 -0.180659 0)
(0 -0.314649 0)
(0 -0.287683 0)
(0 -0.454562 0)
(0 0.0228436 0)
(0 -0.484759 0)
(0 -0.385925 0)
(0 0.0055447 0)
(0 -0.383456 0)
(0 -0.107615 0)
(0 -0.332081 0)
(0 -0.362368 0)
(0 0.00445173 0)
(0 0.00976148 0)
(0 -0.425161 0)
(0 -0.454835 0)
(0 -0.376431 0)
(0 -0.405236 0)
(0 -0.112363 0)
(0 -0.385585 0)
(0 -0.279059 0)
(0 -0.138052 0)
(0 -0.321253 0)
(0 -0.316889 0)
(0 0.0289256 0)
(0 -0.469872 0)
(0 -0.276461 0)
(0 -0.131244 0)
(0 -0.339129 0)
(0 -0.290459 0)
(0 -0.17053 0)
(0 -0.322605 0)
(0 -0.290393 0)
(0 0.0379754 0)
(0 -0.471961 0)
(0 -0.319525 0)
(0 -0.109678 0)
(0 -0.292244 0)
(0 -0.350527 0)
(0 -0.462866 0)
(0 -0.125538 0)
(0 -0.213397 0)
(0 -0.140407 0)
(0 -0.186905 0)
(0 -0.435351 0)
(0 -0.471247 0)
(0 -0.272197 0)
(0 -0.0780336 0)
(0 -0.538148 0)
(0 -0.491893 0)
(0 0.190434 0)
(0 -0.128357 0)
(0 -0.331084 0)
(0 -0.324363 0)
(0 0.00924901 0)
(0 -0.44564 0)
(0 -0.297374 0)
(0 -0.462676 0)
(0 -0.169213 0)
(0 -0.157138 0)
(0 0.144831 0)
(0 -0.531561 0)
(0 -0.374272 0)
(0 -0.24617 0)
(0 -0.231828 0)
(0 -0.362643 0)
(0 -0.191013 0)
(0 -0.372326 0)
(0 -0.181165 0)
(0 -0.192911 0)
(0 -0.327984 0)
(0 -0.284936 0)
(0 -0.223763 0)
(0 -0.222196 0)
(0 -0.373465 0)
(0 -0.201532 0)
(0 -0.347454 0)
(0 -0.190911 0)
(0 -0.138441 0)
(0 -0.325874 0)
(0 -0.306175 0)
(0 -0.15451 0)
(0 -0.339234 0)
(0 -0.305001 0)
(0 -0.392678 0)
(0 -0.496047 0)
(0 0.0238803 0)
(0 -0.164877 0)
(0 -0.219682 0)
(0 -0.376279 0)
(0 -0.00852654 0)
(0 -0.421791 0)
(0 -0.39772 0)
(0 -0.0918741 0)
(0 -0.083508 0)
(0 -0.354306 0)
(0 -0.365619 0)
(0 -0.336381 0)
(0 -0.345434 0)
(0 -0.175594 0)
(0 -0.232614 0)
(0 -0.3716 0)
(0 -0.111236 0)
(0 -0.226253 0)
(0 -0.420813 0)
(0 -0.102573 0)
(0 -0.340142 0)
(0 -0.331045 0)
(0 -0.230045 0)
(0 -0.254441 0)
(0 -0.307255 0)
(0 -0.0908731 0)
(0 -0.389924 0)
(0 -0.328891 0)
(0 -0.200599 0)
(0 -0.334285 0)
(0 -0.239397 0)
(0 -0.123511 0)
(0 -0.378625 0)
(0 -0.302863 0)
(0 -0.123718 0)
(0 -0.241465 0)
(0 -0.42103 0)
(0 -0.223991 0)
(0 -0.222044 0)
(0 -0.247122 0)
(0 -0.315098 0)
(0 -0.230467 0)
(0 -0.317719 0)
(0 -0.222799 0)
(0 -0.340401 0)
(0 -0.234758 0)
(0 -0.217108 0)
(0 -0.349017 0)
(0 -0.213029 0)
(0 -0.158049 0)
(0 -0.14507 0)
(0 -0.25203 0)
(0 -0.254916 0)
(0 -0.379679 0)
(0 -0.36761 0)
(0 -0.443634 0)
(0 -0.288548 0)
(0 -0.0510512 0)
(0 -0.210735 0)
(0 -0.130244 0)
(0 -0.453781 0)
(0 -0.430311 0)
(0 -0.430737 0)
(0 -0.286272 0)
(0 -0.314305 0)
(0 -0.0319205 0)
(0 -0.0488726 0)
(0 -0.185959 0)
(0 -0.441707 0)
(0 -0.166772 0)
(0 -0.241472 0)
(0 -0.286716 0)
(0 -0.261295 0)
(0 -0.0776406 0)
(0 -0.372003 0)
(0 -0.333191 0)
(0 -0.185334 0)
(0 -0.373395 0)
(0 -0.227504 0)
(0 -0.109369 0)
(0 -0.241379 0)
(0 -0.405786 0)
(0 -0.0574554 0)
(0 -0.0721029 0)
(0 -0.253847 0)
(0 -0.432109 0)
(0 -0.276237 0)
(0 -0.429986 0)
(0 -0.088081 0)
(0 -0.330972 0)
(0 -0.347582 0)
(0 0.13367 0)
(0 -0.334785 0)
(0 -0.502601 0)
(0 -0.448415 0)
(0 -0.160141 0)
(0 -0.159129 0)
(0 -0.150309 0)
(0 -0.153883 0)
(0 -0.454945 0)
(0 -0.172208 0)
(0 -0.442676 0)
(0 -0.17341 0)
(0 -0.0914104 0)
(0 -0.422643 0)
(0 -0.284412 0)
(0 -0.130501 0)
(0 -0.226309 0)
(0 -0.428734 0)
(0 -0.16938 0)
(0 -0.434071 0)
(0 -0.167778 0)
(0 -0.161034 0)
(0 -0.152654 0)
(0 -0.422788 0)
(0 -0.416302 0)
(0 -0.18536 0)
(0 -0.187623 0)
(0 -0.159124 0)
(0 -0.440883 0)
(0 -0.186854 0)
(0 -0.0995423 0)
(0 -0.351086 0)
(0 -0.345741 0)
(0 -0.218268 0)
(0 -0.341565 0)
(0 -0.236755 0)
(0 0.0155894 0)
(0 -0.450906 0)
(0 -0.327921 0)
(0 -0.169425 0)
(0 -0.449677 0)
(0 -0.172563 0)
(0 -0.123097 0)
(0 -0.103006 0)
(0 -0.261567 0)
(0 -0.260876 0)
(0 -0.406387 0)
(0 -0.401973 0)
(0 -0.442153 0)
(0 -0.316088 0)
(0 0.00239252 0)
(0 0.00888925 0)
(0 -0.468487 0)
(0 -0.307268 0)
(0 0.0298716 0)
(0 -0.455489 0)
(0 -0.303306 0)
(0 -0.0514374 0)
(0 -0.41773 0)
(0 -0.272554 0)
(0 -0.130778 0)
(0 -0.227475 0)
(0 -0.411516 0)
(0 -0.65501 0)
(0 -0.914821 0)
(0 -0.683545 0)
(0 -0.648727 0)
(0 -0.863989 0)
(0 -0.728263 0)
(0 -0.929906 0)
(0 -0.595128 0)
(0 -0.829506 0)
(0 -0.884142 0)
(0 -0.861449 0)
(0 -0.867727 0)
(0 -0.65844 0)
(0 -0.881747 0)
(0 -1.10134 0)
(0 -0.708022 0)
(0 -0.617377 0)
(0 -1.03865 0)
(0 -0.939763 0)
(0 -0.95867 0)
(0 -1.04283 0)
(0 -1.00449 0)
(0 -0.848887 0)
(0 -0.491697 0)
(0 -0.701567 0)
(0 -0.880377 0)
(0 -0.8506 0)
(0 -0.937213 0)
(0 -0.993699 0)
(0 -0.659803 0)
(0 -0.944855 0)
(0 -0.922597 0)
(0 -1.02746 0)
(0 -1.09694 0)
(0 -0.987618 0)
(0 -1.06159 0)
(0 -0.753907 0)
(0 -0.856343 0)
(0 -0.647369 0)
(0 -0.626063 0)
(0 -1.0322 0)
(0 -0.601946 0)
(0 -0.980538 0)
(0 -0.878619 0)
(0 -0.603358 0)
(0 -1.12772 0)
(0 -1.12024 0)
(0 -1.07422 0)
(0 -0.851988 0)
(0 -1.02549 0)
(0 -0.646351 0)
(0 -1.05727 0)
(0 -0.717311 0)
(0 -1.16844 0)
(0 -0.923443 0)
(0 -0.671637 0)
(0 -0.962677 0)
(0 -1.02686 0)
(0 -1.10737 0)
(0 -0.883123 0)
(0 -1.02695 0)
(0 -0.977051 0)
(0 -0.698591 0)
(0 -0.584345 0)
(0 -1.06152 0)
(0 -0.960427 0)
(0 -1.00706 0)
(0 -0.528572 0)
(0 -0.84615 0)
(0 -0.642825 0)
(0 -1.06129 0)
(0 -1.05042 0)
(0 -0.836999 0)
(0 -0.915362 0)
(0 -1.03498 0)
(0 -1.08808 0)
(0 -0.793896 0)
(0 -0.988578 0)
(0 -0.853658 0)
(0 -0.787836 0)
(0 -1.0069 0)
(0 -1.08585 0)
(0 -0.816604 0)
(0 -0.766232 0)
(0 -1.26074 0)
(0 -0.844988 0)
(0 -1.23208 0)
(0 -0.62743 0)
(0 -1.12553 0)
(0 -0.643927 0)
(0 -0.760476 0)
(0 -0.91141 0)
(0 -0.701186 0)
(0 -1.0803 0)
(0 -0.687034 0)
(0 -0.600981 0)
(0 -0.954507 0)
(0 -1.09898 0)
(0 -0.683922 0)
(0 -1.0611 0)
(0 -0.955488 0)
(0 -0.836426 0)
(0 -0.587641 0)
(0 -0.510291 0)
(0 -0.739221 0)
(0 -0.616004 0)
(0 -0.88294 0)
(0 -0.751746 0)
(0 -0.968979 0)
(0 -0.765632 0)
(0 -0.836324 0)
(0 -0.948031 0)
(0 -0.854987 0)
(0 -1.08118 0)
(0 -0.627126 0)
(0 -0.641001 0)
(0 -1.16898 0)
(0 -0.627312 0)
(0 -1.00995 0)
(0 -1.02934 0)
(0 -1.08465 0)
(0 -0.582323 0)
(0 -0.501803 0)
(0 -0.910205 0)
(0 -0.939288 0)
(0 -0.819435 0)
(0 -0.882957 0)
(0 -0.595489 0)
(0 -0.648478 0)
(0 -0.91732 0)
(0 -1.09075 0)
(0 -0.622402 0)
(0 -0.825187 0)
(0 -0.496983 0)
(0 -0.653504 0)
(0 -0.797197 0)
(0 -1.09975 0)
(0 -0.94278 0)
(0 -0.91899 0)
(0 -0.900646 0)
(0 -0.700252 0)
(0 -0.845466 0)
(0 -0.672352 0)
(0 -0.833735 0)
(0 -0.652374 0)
(0 -1.1409 0)
(0 -0.758577 0)
(0 -0.785776 0)
(0 -0.912849 0)
(0 -1.093 0)
(0 -0.829644 0)
(0 -0.858631 0)
(0 -0.646022 0)
(0 -0.796872 0)
(0 -0.896618 0)
(0 -1.11963 0)
(0 -0.92864 0)
(0 -0.830811 0)
(0 -0.691686 0)
(0 -0.820576 0)
(0 -0.818847 0)
(0 -0.818521 0)
(0 -0.715932 0)
(0 -0.650116 0)
(0 -0.589372 0)
(0 -0.878336 0)
(0 -0.534266 0)
(0 -1.0332 0)
(0 -0.677745 0)
(0 -0.622461 0)
(0 -1.01317 0)
(0 -0.594498 0)
(0 -0.786644 0)
(0 -0.694034 0)
(0 -0.742222 0)
(0 -1.07506 0)
(0 -0.888235 0)
(0 -0.673949 0)
(0 -0.837935 0)
(0 -0.78601 0)
(0 -0.608634 0)
(0 -0.77767 0)
(0 -1.07457 0)
(0 -1.10181 0)
(0 -1.00887 0)
(0 -0.627643 0)
(0 -0.906626 0)
(0 -1.02335 0)
(0 -0.902702 0)
(0 -1.10636 0)
(0 -0.584064 0)
(0 -0.523157 0)
(0 -0.632483 0)
(0 -0.915589 0)
(0 -1.15977 0)
(0 -0.67437 0)
(0 -0.602884 0)
(0 -0.888026 0)
(0 -1.07607 0)
(0 -0.5482 0)
(0 -0.987677 0)
(0 -0.591742 0)
(0 -0.958034 0)
(0 -0.924024 0)
(0 -0.753625 0)
(0 -0.645345 0)
(0 -0.781363 0)
(0 -1.1041 0)
(0 -0.716558 0)
(0 -0.85953 0)
(0 -1.0852 0)
(0 -0.515852 0)
(0 -0.608762 0)
(0 -0.955338 0)
(0 -0.84308 0)
(0 -0.499745 0)
(0 -0.971754 0)
(0 -0.57622 0)
(0 -0.843394 0)
(0 -1.25377 0)
(0 -1.04754 0)
(0 -1.13701 0)
(0 -0.733508 0)
(0 -0.705924 0)
(0 -1.01121 0)
(0 -0.98544 0)
(0 -0.72555 0)
(0 -0.823542 0)
(0 -0.64718 0)
(0 -0.946055 0)
(0 -0.596486 0)
(0 -1.18626 0)
(0 -0.966757 0)
(0 -1.15896 0)
(0 -0.838845 0)
(0 -1.01814 0)
(0 -1.00112 0)
(0 -1.01661 0)
(0 -0.553173 0)
(0 -0.775964 0)
(0 -1.05177 0)
(0 -0.559202 0)
(0 -0.730134 0)
(0 -0.552683 0)
(0 -0.699902 0)
(0 -1.00202 0)
(0 -1.06949 0)
(0 -1.16801 0)
(0 -0.694796 0)
(0 -1.01047 0)
(0 -0.94882 0)
(0 -0.689805 0)
(0 -0.90799 0)
(0 -1.0267 0)
(0 -0.787415 0)
(0 -1.19087 0)
(0 -0.58858 0)
(0 -1.05503 0)
(0 -0.752699 0)
(0 -0.912885 0)
(0 -1.04368 0)
(0 -1.04834 0)
(0 -0.582263 0)
(0 -0.779088 0)
(0 -0.869864 0)
(0 -0.746398 0)
(0 -1.04334 0)
(0 -0.948103 0)
(0 -0.907006 0)
(0 -1.23028 0)
(0 -0.939187 0)
(0 -0.673718 0)
(0 -1.06765 0)
(0 -1.06013 0)
(0 -1.1394 0)
(0 -1.23574 0)
(0 -1.10742 0)
(0 -1.04702 0)
(0 -0.893405 0)
(0 -0.954279 0)
(0 -0.968573 0)
(0 -0.893254 0)
(0 -0.879976 0)
(0 -1.0327 0)
(0 -0.582416 0)
(0 -0.865621 0)
(0 -0.748936 0)
(0 -0.943697 0)
(0 -0.867849 0)
(0 -0.539452 0)
(0 -0.934124 0)
(0 -0.922642 0)
(0 -0.470431 0)
(0 -0.543789 0)
(0 -0.699135 0)
(0 -0.674307 0)
(0 -1.14328 0)
(0 -0.765854 0)
(0 -0.670661 0)
(0 -0.717962 0)
(0 -0.749991 0)
(0 -1.05617 0)
(0 -0.656432 0)
(0 -1.01182 0)
(0 -0.939493 0)
(0 -1.07353 0)
(0 -0.866846 0)
(0 -1.1515 0)
(0 -0.958594 0)
(0 -0.910634 0)
(0 -0.971372 0)
(0 -1.03964 0)
(0 -0.957342 0)
(0 -0.563465 0)
(0 -0.608955 0)
(0 -0.925834 0)
(0 -0.888587 0)
(0 -0.55774 0)
(0 -0.738469 0)
(0 -0.773745 0)
(0 -0.950389 0)
(0 -1.0015 0)
(0 -1.105 0)
(0 -0.68567 0)
(0 -0.664747 0)
(0 -0.696383 0)
(0 -1.04552 0)
(0 -1.06105 0)
(0 -0.506953 0)
(0 -0.646233 0)
(0 -0.75697 0)
(0 -0.900059 0)
(0 -0.965023 0)
(0 -1.04929 0)
(0 -1.09807 0)
(0 -1.02933 0)
(0 -0.926136 0)
(0 -1.07251 0)
(0 -0.630859 0)
(0 -0.741854 0)
(0 -1.10724 0)
(0 -0.999437 0)
(0 -0.699312 0)
(0 -0.657683 0)
(0 -0.696398 0)
(0 -0.638453 0)
(0 -0.80477 0)
(0 -0.705576 0)
(0 -0.85847 0)
(0 -0.599045 0)
(0 -0.669882 0)
(0 -0.793145 0)
(0 -0.596679 0)
(0 -0.763185 0)
(0 -1.41164 0)
(0 -0.563143 0)
(0 -1.00057 0)
(0 -0.894396 0)
(0 -0.877206 0)
(0 -0.732255 0)
(0 -1.08072 0)
(0 -0.834016 0)
(0 -0.608246 0)
(0 -1.1221 0)
(0 -0.93411 0)
(0 -0.830888 0)
(0 -1.03751 0)
(0 -1.04215 0)
(0 -0.996327 0)
(0 -0.675504 0)
(0 -0.670624 0)
(0 -1.00045 0)
(0 -1.2744 0)
(0 -1.10127 0)
(0 -1.16085 0)
(0 -0.767717 0)
(0 -0.679956 0)
(0 -0.671449 0)
(0 -0.681589 0)
(0 -0.635919 0)
(0 -0.610348 0)
(0 -1.06775 0)
(0 -0.79947 0)
(0 -0.700989 0)
(0 -1.25709 0)
(0 -1.06392 0)
(0 -0.873021 0)
(0 -0.836715 0)
(0 -0.64342 0)
(0 -0.707279 0)
(0 -0.853029 0)
(0 -0.500161 0)
(0 -0.708011 0)
(0 -0.946404 0)
(0 -0.679919 0)
(0 -0.544306 0)
(0 -0.768341 0)
(0 -0.651237 0)
(0 -0.726512 0)
(0 -0.617019 0)
(0 -0.901034 0)
(0 -0.847346 0)
(0 -0.514018 0)
(0 -0.693321 0)
(0 -0.698616 0)
(0 -1.07349 0)
(0 -1.132 0)
(0 -1.08506 0)
(0 -0.668603 0)
(0 -0.717625 0)
(0 -0.590772 0)
(0 -0.679071 0)
(0 -0.70775 0)
(0 -0.654322 0)
(0 -0.664156 0)
(0 -0.828553 0)
(0 -0.701844 0)
(0 -0.852504 0)
(0 -1.0504 0)
(0 -1.16632 0)
(0 -0.746325 0)
(0 -0.837253 0)
(0 -0.936823 0)
(0 -0.753797 0)
(0 -0.855518 0)
(0 -0.670914 0)
(0 -0.531933 0)
(0 -1.04225 0)
(0 -0.74888 0)
(0 -0.711266 0)
(0 -0.908454 0)
(0 -1.1327 0)
(0 -0.942495 0)
(0 -0.529158 0)
(0 -0.885813 0)
(0 -1.05456 0)
(0 -0.794799 0)
(0 -0.749697 0)
(0 -0.615122 0)
(0 -0.67559 0)
(0 -1.10249 0)
(0 -1.08624 0)
(0 -0.856933 0)
(0 -0.910019 0)
(0 -0.660243 0)
(0 -0.673215 0)
(0 -0.626591 0)
(0 -0.67858 0)
(0 -0.801882 0)
(0 -1.10115 0)
(0 -0.59176 0)
(0 -0.89649 0)
(0 -0.670086 0)
(0 -0.987728 0)
(0 -0.785242 0)
(0 -0.776407 0)
(0 -0.532384 0)
(0 -0.937441 0)
(0 -0.927698 0)
(0 -0.606352 0)
(0 -0.98654 0)
(0 -0.585724 0)
(0 -1.12829 0)
(0 -1.0806 0)
(0 -0.803638 0)
(0 -0.661547 0)
(0 -0.595325 0)
(0 -0.605139 0)
(0 -0.803507 0)
(0 -1.09859 0)
(0 -0.688889 0)
(0 -0.564625 0)
(0 -1.16774 0)
(0 -0.505287 0)
(0 -0.635622 0)
(0 -0.79584 0)
(0 -0.678811 0)
(0 -1.01675 0)
(0 -0.864174 0)
(0 -1.00317 0)
(0 -1.03998 0)
(0 -0.833809 0)
(0 -0.877051 0)
(0 -0.551746 0)
(0 -0.626478 0)
(0 -0.954039 0)
(0 -1.14703 0)
(0 -1.01634 0)
(0 -0.728287 0)
(0 -0.555943 0)
(0 -1.03204 0)
(0 -0.779321 0)
(0 -0.802637 0)
(0 -0.699785 0)
(0 -0.651788 0)
(0 -0.900281 0)
(0 -1.17645 0)
(0 -0.614215 0)
(0 -0.54865 0)
(0 -0.902663 0)
(0 -0.98166 0)
(0 -0.700066 0)
(0 -0.699848 0)
(0 -0.550442 0)
(0 -0.959858 0)
(0 -0.830954 0)
(0 -0.838041 0)
(0 -0.628163 0)
(0 -0.649667 0)
(0 -0.84412 0)
(0 -0.84086 0)
(0 -0.843037 0)
(0 -0.798252 0)
(0 -0.775507 0)
(0 -1.04437 0)
(0 -0.700657 0)
(0 -0.753796 0)
(0 -0.832687 0)
(0 -0.710026 0)
(0 -0.657149 0)
(0 -1.15509 0)
(0 -0.59521 0)
(0 -0.779632 0)
(0 -0.799138 0)
(0 -0.60521 0)
(0 -0.681917 0)
(0 -1.19826 0)
(0 -0.885536 0)
(0 -0.672119 0)
(0 -0.549602 0)
(0 -1.08033 0)
(0 -0.969383 0)
(0 -0.964617 0)
(0 -0.939498 0)
(0 -0.959232 0)
(0 -0.777869 0)
(0 -0.84974 0)
(0 -1.00244 0)
(0 -0.774587 0)
(0 -0.651007 0)
(0 -0.537279 0)
(0 -0.525221 0)
(0 -0.576005 0)
(0 -0.512135 0)
(0 -0.543497 0)
(0 -0.638836 0)
(0 -1.12759 0)
(0 -0.957727 0)
(0 -0.900695 0)
(0 -0.620626 0)
(0 -1.14028 0)
(0 -0.666157 0)
(0 -0.89692 0)
(0 -0.96551 0)
(0 -0.581569 0)
(0 -0.600449 0)
(0 -1.12504 0)
(0 -1.06266 0)
(0 -0.908761 0)
(0 -0.904647 0)
(0 -1.02687 0)
(0 -1.20848 0)
(0 -0.563977 0)
(0 -0.618107 0)
(0 -0.753099 0)
(0 -0.804469 0)
(0 -1.29993 0)
(0 -0.675842 0)
(0 -0.930219 0)
(0 -1.13216 0)
(0 -0.775737 0)
(0 -1.07537 0)
(0 -1.04221 0)
(0 -0.797831 0)
(0 -1.06349 0)
(0 -0.822256 0)
(0 -0.619117 0)
(0 -0.66656 0)
(0 -1.04677 0)
(0 -0.783008 0)
(0 -0.800594 0)
(0 -0.758895 0)
(0 -0.766658 0)
(0 -0.637554 0)
(0 -0.988257 0)
(0 -0.789074 0)
(0 -1.15164 0)
(0 -0.741062 0)
(0 -1.1197 0)
(0 -1.15528 0)
(0 -0.536228 0)
(0 -1.25909 0)
(0 -0.995357 0)
(0 -0.694346 0)
(0 -0.777345 0)
(0 -0.997843 0)
(0 -0.729326 0)
(0 -0.803199 0)
(0 -1.08858 0)
(0 -1.05345 0)
(0 -0.9784 0)
(0 -1.05832 0)
(0 -1.06443 0)
(0 -1.36929 0)
(0 -0.777061 0)
(0 -0.825319 0)
(0 -1.10932 0)
(0 -0.815232 0)
(0 -0.616374 0)
(0 -0.548497 0)
(0 -1.20665 0)
(0 -0.874714 0)
(0 -0.516157 0)
(0 -1.29996 0)
(0 -0.665475 0)
(0 -0.566327 0)
(0 -0.792454 0)
(0 -0.565436 0)
(0 -0.878645 0)
(0 -0.781699 0)
(0 -0.553659 0)
(0 -0.651719 0)
(0 -1.04663 0)
(0 -0.773726 0)
(0 -0.808602 0)
(0 -1.06504 0)
(0 -0.649443 0)
(0 -1.14504 0)
(0 -1.11357 0)
(0 -0.754988 0)
(0 -0.660321 0)
(0 -1.12701 0)
(0 -1.08116 0)
(0 -0.626251 0)
(0 -0.660443 0)
(0 -0.935969 0)
(0 -0.845717 0)
(0 -1.14816 0)
(0 -0.48566 0)
(0 -0.838791 0)
(0 -0.841549 0)
(0 -0.657577 0)
(0 -1.05374 0)
(0 -0.956162 0)
(0 -1.00567 0)
(0 -0.912884 0)
(0 -0.91821 0)
(0 -1.18172 0)
(0 -0.911775 0)
(0 -0.966502 0)
(0 -0.558179 0)
(0 -0.63459 0)
(0 -1.09882 0)
(0 -0.972924 0)
(0 -0.625331 0)
(0 -0.76306 0)
(0 -0.97193 0)
(0 -0.890918 0)
(0 -1.12188 0)
(0 -0.532987 0)
(0 -0.670779 0)
(0 -1.03918 0)
(0 -0.735021 0)
(0 -0.791069 0)
(0 -0.675385 0)
(0 -0.88108 0)
(0 -1.04686 0)
(0 -0.799467 0)
(0 -0.905504 0)
(0 -0.991345 0)
(0 -0.964839 0)
(0 -0.6149 0)
(0 -1.07819 0)
(0 -0.735949 0)
(0 -1.02163 0)
(0 -0.5435 0)
(0 -0.517865 0)
(0 -0.574527 0)
(0 -0.871288 0)
(0 -0.723224 0)
(0 -0.778342 0)
(0 -0.725725 0)
(0 -0.565921 0)
(0 -0.950184 0)
(0 -0.840801 0)
(0 -0.619587 0)
(0 -0.733592 0)
(0 -0.786527 0)
(0 -0.833692 0)
(0 -0.656125 0)
(0 -0.999157 0)
(0 -1.06667 0)
(0 -0.841502 0)
(0 -1.01721 0)
(0 -0.872877 0)
(0 -0.659505 0)
(0 -0.487328 0)
(0 -0.577982 0)
(0 -1.1556 0)
(0 -0.962558 0)
(0 -1.00005 0)
(0 -0.487534 0)
(0 -1.08873 0)
(0 -0.913666 0)
(0 -1.07961 0)
(0 -0.55366 0)
(0 -0.976785 0)
(0 -1.02851 0)
(0 -0.81701 0)
(0 -0.974924 0)
(0 -0.911306 0)
(0 -0.813989 0)
(0 -0.7661 0)
(0 -0.865475 0)
(0 -0.556254 0)
(0 -0.585502 0)
(0 -0.791074 0)
(0 -0.678821 0)
(0 -1.07006 0)
(0 -0.724344 0)
(0 -0.706655 0)
(0 -0.694355 0)
(0 -0.818221 0)
(0 -0.804373 0)
(0 -0.783397 0)
(0 -1.19451 0)
(0 -0.939594 0)
(0 -0.66081 0)
(0 -1.11781 0)
(0 -0.634726 0)
(0 -0.817446 0)
(0 -0.608108 0)
(0 -1.14176 0)
(0 -0.963137 0)
(0 -0.768136 0)
(0 -0.58796 0)
(0 -0.970545 0)
(0 -1.0285 0)
(0 -0.903694 0)
(0 -0.599275 0)
(0 -1.03223 0)
(0 -0.951178 0)
(0 -1.01859 0)
(0 -0.792761 0)
(0 -0.508415 0)
(0 -0.57257 0)
(0 -0.996772 0)
(0 -1.10354 0)
(0 -0.732245 0)
(0 -0.901098 0)
(0 -0.594549 0)
(0 -0.893393 0)
(0 -1.122 0)
(0 -0.980122 0)
(0 -1.06878 0)
(0 -1.0221 0)
(0 -1.09024 0)
(0 -0.636502 0)
(0 -0.887464 0)
(0 -0.640712 0)
(0 -0.937731 0)
(0 -1.09385 0)
(0 -0.553578 0)
(0 -1.11324 0)
(0 -0.534539 0)
(0 -0.89549 0)
(0 -0.961969 0)
(0 -0.663165 0)
(0 -0.646508 0)
(0 -0.648517 0)
(0 -0.637609 0)
(0 -1.03385 0)
(0 -0.930792 0)
(0 -1.22091 0)
(0 -1.2133 0)
(0 -0.861815 0)
(0 -0.802001 0)
(0 -0.513797 0)
(0 -1.24192 0)
(0 -0.534539 0)
(0 -0.913233 0)
(0 -0.620767 0)
(0 -0.560976 0)
(0 -1.18565 0)
(0 -1.1601 0)
(0 -0.755333 0)
(0 -0.729773 0)
(0 -1.51643 0)
(0 -0.652852 0)
(0 -0.95933 0)
(0 -0.919431 0)
(0 -1.1518 0)
(0 -0.746976 0)
(0 -1.44929 0)
(0 -0.867781 0)
(0 -1.06405 0)
(0 -0.556443 0)
(0 -0.982884 0)
(0 -0.774612 0)
(0 -0.563964 0)
(0 -0.679476 0)
(0 -0.953054 0)
(0 -1.07324 0)
(0 -0.794477 0)
(0 -1.01363 0)
(0 -0.659103 0)
(0 -0.88677 0)
(0 -0.807731 0)
(0 -0.779771 0)
(0 -0.842315 0)
(0 -0.488706 0)
(0 -0.578572 0)
(0 -0.58336 0)
(0 -0.631332 0)
(0 -0.896116 0)
(0 -0.722696 0)
(0 -0.952827 0)
(0 -0.775353 0)
(0 -1.12264 0)
(0 -0.675111 0)
(0 -0.696474 0)
(0 -0.656794 0)
(0 -0.935268 0)
(0 -1.05754 0)
(0 -0.551206 0)
(0 -0.91731 0)
(0 -0.79562 0)
(0 -0.668418 0)
(0 -0.538578 0)
(0 -1.0644 0)
(0 -0.594034 0)
(0 -0.902826 0)
(0 -0.641454 0)
(0 -0.849643 0)
(0 -1.01378 0)
(0 -0.931831 0)
(0 -1.15431 0)
(0 -0.794394 0)