/*--------------------------------*- C++ -*----------------------------------*\
  =========                 |
  \\      /  F ield         | OpenFOAM: The Open Source CFD Toolbox
   \\    /   O peration     | Website:  https://openfoam.org
    \\  /    A nd           | Version:  6
     \\/     M anipulation  |
\*---------------------------------------------------------------------------*/
FoamFile
{
    version     2.0;
    format      ascii;
    class       volVectorField;
    location    "0";
    object      Ulifty0;
}
// * * * * * * * * * * * * * * * * * * * * * * * * * * * * * * * * * * * * * //

dimensions      [0 1 -1 0 0 0 0];

internalField   nonuniform List<vector> 
13046
(
(0 -0.192073394958 0)
(0 -0.26393875733 0)
(0 -0.334104577754 0)
(0 -0.200671789731 0)
(0 -0.2983967973 0)
(0 -0.294574691842 0)
(0 -0.187811333435 0)
(0 -0.303207263294 0)
(0 -0.303239830495 0)
(0 0.0123875285575 0)
(0 -0.353146071751 0)
(0 -0.416266804354 0)
(0 -0.165067246078 0)
(0 -0.30226012845 0)
(0 -0.347060733209 0)
(0 -0.0113500866352 0)
(0 -0.454746608839 0)
(0 -0.285686042984 0)
(0 -0.23945933511 0)
(0 -0.308718336388 0)
(0 -0.228608041571 0)
(0 -0.00688679909877 0)
(0 -0.443753678356 0)
(0 -0.29371611704 0)
(0 -0.217165914589 0)
(0 -0.277087562257 0)
(0 -0.315280909633 0)
(0 -0.150133756607 0)
(0 -0.274053621385 0)
(0 -0.349569681893 0)
(0 -0.177439104858 0)
(0 -0.250249180345 0)
(0 -0.33929789703 0)
(0 -0.218260712689 0)
(0 -0.29729158416 0)
(0 -0.263027773793 0)
(0 -0.228749583531 0)
(0 -0.286566320518 0)
(0 -0.270661815634 0)
(0 -0.198233956828 0)
(0 -0.381086546795 0)
(0 -0.211423360874 0)
(0 -0.256737279653 0)
(0 -0.267753580262 0)
(0 -0.278684059348 0)
(0 -0.232031353533 0)
(0 -0.25100634325 0)
(0 -0.278831185624 0)
(0 -0.181187876275 0)
(0 -0.275445698513 0)
(0 -0.324691472841 0)
(0 -0.414362274143 0)
(0 -0.199970113741 0)
(0 -0.159088912288 0)
(0 -0.430325830386 0)
(0 -0.157482035918 0)
(0 -0.217613800812 0)
(0 -0.208387764752 0)
(0 -0.0754711890288 0)
(0 -0.445718377015 0)
(0 -0.114332152226 0)
(0 -0.356912676701 0)
(0 -0.303303269878 0)
(0 -0.386706510905 0)
(0 -0.330586714184 0)
(0 -0.0470375117302 0)
(0 -0.102212427701 0)
(0 -0.209066165783 0)
(0 -0.467865880773 0)
(0 -0.101451107659 0)
(0 -0.199708070449 0)
(0 -0.446970273881 0)
(0 -0.228578621595 0)
(0 -0.0736485378261 0)
(0 -0.487995079766 0)
(0 -0.237860095956 0)
(0 -0.323357492146 0)
(0 -0.228991517027 0)
(0 -0.475053859851 0)
(0 -0.0655077661218 0)
(0 -0.247410199499 0)
(0 -0.189570312939 0)
(0 -0.275360229386 0)
(0 -0.298961380638 0)
(0 -0.416653910454 0)
(0 -0.353362121103 0)
(0 -0.0447480976076 0)
(0 -0.0575954375497 0)
(0 -0.334626724558 0)
(0 -0.384940207261 0)
(0 -0.29867646189 0)
(0 -0.0611877974605 0)
(0 -0.470485111932 0)
(0 -0.11100339542 0)
(0 -0.0876907847685 0)
(0 -0.305354762632 0)
(0 -0.304173546857 0)
(0 -0.384593239808 0)
(0 -0.361985223902 0)
(0 -0.332989779605 0)
(0 -0.0740696476402 0)
(0 -0.412380262429 0)
(0 -0.227555420334 0)
(0 -0.269143780731 0)
(0 -0.294928204956 0)
(0 -0.228845722405 0)
(0 -0.153822948227 0)
(0 -0.385497297072 0)
(0 -0.201686103402 0)
(0 -0.393681413253 0)
(0 -0.174801726763 0)
(0 0.0764754779599 0)
(0 -0.456268493424 0)
(0 -0.387965579326 0)
(0 -0.166076588839 0)
(0 -0.277455982771 0)
(0 -0.319578749406 0)
(0 -0.0925816180445 0)
(0 -0.0916103161745 0)
(0 -0.292862631296 0)
(0 -0.411215902474 0)
(0 -0.281519578699 0)
(0 -0.385140636507 0)
(0 0.0124105080899 0)
(0 -0.367326172607 0)
(0 -0.442849701173 0)
(0 -0.131162924746 0)
(0 -0.292667963716 0)
(0 -0.373470176229 0)
(0 -0.180087448326 0)
(0 -0.373437251875 0)
(0 -0.211103649144 0)
(0 -0.2774251344 0)
(0 -0.0660710884496 0)
(0 -0.450380565136 0)
(0 -0.0800750565619 0)
(0 -0.345663178515 0)
(0 -0.363307977352 0)
(0 -0.177727784229 0)
(0 -0.262556774276 0)
(0 -0.361457553521 0)
(0 -0.156124198782 0)
(0 -0.341716667291 0)
(0 -0.286793929323 0)
(0 -0.211401070021 0)
(0 -0.403937778417 0)
(0 -0.168555603975 0)
(0 -0.248846704656 0)
(0 -0.176537095745 0)
(0 -0.384754144122 0)
(0 -0.115174964334 0)
(0 -0.362305478585 0)
(0 -0.331315046777 0)
(0 -0.266271078196 0)
(0 -0.189525857493 0)
(0 -0.347535204077 0)
(0 -0.421207565966 0)
(0 -0.129760954128 0)
(0 -0.43080340949 0)
(0 -0.127649259802 0)
(0 -0.226208016356 0)
(0 -0.251747686157 0)
(0 -0.161534837603 0)
(0 -0.36740677478 0)
(0 -0.274161562441 0)
(0 -0.00681121435273 0)
(0 -0.418128504284 0)
(0 -0.390829558502 0)
(0 0.0398837399611 0)
(0 -0.459664113341 0)
(0 -0.375946240959 0)
(0 -0.0710727280561 0)
(0 -0.330839854054 0)
(0 -0.37394920028 0)
(0 -0.169425257201 0)
(0 -0.212168524547 0)
(0 -0.416353672079 0)
(0 -0.160654702953 0)
(0 -0.248257331374 0)
(0 -0.357439881702 0)
(0 -0.374599650238 0)
(0 -0.393008107522 0)
(0 -0.0148059476382 0)
(0 -0.168789528869 0)
(0 -0.200490528233 0)
(0 -0.391926373279 0)
(0 -0.254390848411 0)
(0 -0.176273080148 0)
(0 -0.354327806541 0)
(0 -0.173211015963 0)
(0 -0.337292590453 0)
(0 -0.286121053406 0)
(0 -0.298335714666 0)
(0 -0.331666250516 0)
(0 -0.132431089084 0)
(0 -0.286968580924 0)
(0 -0.356475342986 0)
(0 -0.0376314967076 0)
(0 -0.36650859469 0)
(0 -0.368200541948 0)
(0 -0.296714697326 0)
(0 -0.071825569924 0)
(0 -0.426464441949 0)
(0 -0.0444167196786 0)
(0 -0.434719414047 0)
(0 -0.31611046303 0)
(0 -0.442133050155 0)
(0 -0.149379170215 0)
(0 -0.175618511827 0)
(0 -0.159221598646 0)
(0 -0.0621263817653 0)
(0 -0.479580642403 0)
(0 -0.22862752994 0)
(0 -0.443021566295 0)
(0 -0.0445572991807 0)
(0 -0.339309497659 0)
(0 -0.219042930536 0)
(0 -0.278382007892 0)
(0 -0.281007813672 0)
(0 -0.157093963205 0)
(0 -0.264478034423 0)
(0 -0.357230766021 0)
(0 -0.29556663609 0)
(0 -0.0821339470663 0)
(0 -0.4513856073 0)
(0 -0.15720837078 0)
(0 -0.31142085208 0)
(0 -0.329087356646 0)
(0 -0.428777811786 0)
(0 -0.415787768952 0)
(0 0.0184292481461 0)
(0 -0.199306635408 0)
(0 -0.148499701648 0)
(0 -0.455216660395 0)
(0 -0.0660041310799 0)
(0 -0.422977379622 0)
(0 -0.31732145001 0)
(0 -0.142124487723 0)
(0 -0.392321499947 0)
(0 -0.258846274129 0)
(0 -0.117189306358 0)
(0 -0.271386352376 0)
(0 -0.373901686719 0)
(0 -0.465186856507 0)
(0 -0.0970425913713 0)
(0 -0.254913180748 0)
(0 -0.110310861084 0)
(0 -0.434422628226 0)
(0 -0.241884796603 0)
(0 -0.407369848362 0)
(0 -0.419703895139 0)
(0 0.0273001180103 0)
(0 -0.194175049763 0)
(0 -0.408331124329 0)
(0 -0.187227143717 0)
(0 0.106643666482 0)
(0 -0.485618433882 0)
(0 -0.32746015655 0)
(0 -0.257712441143 0)
(0 -0.216598673939 0)
(0 -0.305931182858 0)
(0 -0.134647717 0)
(0 -0.14235922263 0)
(0 -0.369237525561 0)
(0 -0.370963293408 0)
(0 -0.265643707928 0)
(0 -0.279438325445 0)
(0 -0.460598036113 0)
(0 -0.0291245639014 0)
(0 -0.244037377337 0)
(0 -0.139758986921 0)
(0 -0.274016107826 0)
(0 -0.386283134675 0)
(0 -0.110593169941 0)
(0 -0.448423316155 0)
(0 -0.260914281244 0)
(0 -0.0888848919277 0)
(0 -0.318575085408 0)
(0 -0.394713619383 0)
(0 -0.245314768602 0)
(0 -0.255997394606 0)
(0 -0.266839652061 0)
(0 -0.123754610923 0)
(0 -0.400049290661 0)
(0 -0.253024191169 0)
(0 -0.12254259281 0)
(0 -0.253427187984 0)
(0 -0.388694812616 0)
(0 -0.153976595707 0)
(0 -0.130747036532 0)
(0 -0.18080590388 0)
(0 -0.413717021206 0)
(0 -0.1743709294 0)
(0 -0.121568772503 0)
(0 -0.411541791366 0)
(0 -0.27745618852 0)
(0 -0.0660722118745 0)
(0 -0.37598943724 0)
(0 -0.317915220884 0)
(0 -0.217503058535 0)
(0 -0.394056711478 0)
(0 -0.196016006559 0)
(0 -0.225245402291 0)
(0 -0.132019547606 0)
(0 -0.438860429963 0)
(0 -0.0989424865284 0)
(0 -0.249911523978 0)
(0 -0.412493852194 0)
(0 -0.190235518753 0)
(0 -0.42699255988 0)
(0 -0.170363141517 0)
(0 -0.0895203643186 0)
(0 -0.0736764293933 0)
(0 -0.262538596338 0)
(0 -0.431702732268 0)
(0 -0.265743079038 0)
(0 -0.411726133037 0)
(0 -0.387487668049 0)
(0 -0.38784908311 0)
(0 -0.0246071260435 0)
(0 -0.11848091769 0)
(0 -0.284102695018 0)
(0 -0.401290799228 0)
(0 -0.393947077175 0)
(0 -0.479840505988 0)
(0 0.121676310943 0)
(0 -0.199988611017 0)
(0 -0.259965233407 0)
(0 -0.341388133429 0)
(0 -0.131626535671 0)
(0 -0.352259907683 0)
(0 -0.316830977025 0)
(0 -0.370252363202 0)
(0 -0.0599842022659 0)
(0 -0.363136345213 0)
(0 -0.430475328483 0)
(0 -0.13775286183 0)
(0 -0.199023826909 0)
(0 -0.458567827695 0)
(0 -0.088357685439 0)
(0 -0.267307324898 0)
(0 -0.293181277949 0)
(0 -0.308110939274 0)
(0 -0.127971384104 0)
(0 -0.325954504759 0)
(0 -0.345181491132 0)
(0 -0.325416401387 0)
(0 -0.308902132042 0)
(0 -0.0312717477208 0)
(0 -0.445868509031 0)
(0 -0.278455872292 0)
(0 -0.464227806613 0)
(0 -0.159646566805 0)
(0 -0.177142013713 0)
(0 -0.107997064522 0)
(0 -0.329602417868 0)
(0 -0.343388412066 0)
(0 -0.152538838275 0)
(0 -0.353476028995 0)
(0 -0.274302328601 0)
(0 -0.16489253197 0)
(0 -0.407786321647 0)
(0 -0.229124002127 0)
(0 -0.190234689189 0)
(0 -0.288663003576 0)
(0 -0.319883528022 0)
(0 -0.217200917309 0)
(0 -0.136680421944 0)
(0 -0.446350599528 0)
(0 -0.0574739205012 0)
(0 -0.409928508149 0)
(0 -0.366672072296 0)
(0 -0.436775476905 0)
(0 -0.0820763183185 0)
(0 -0.270839430896 0)
(0 -0.118464969766 0)
(0 -0.448214099123 0)
(0 -0.192029784424 0)
(0 -0.0685431628475 0)
(0 -0.0780519395001 0)
(0 -0.236702554773 0)
(0 -0.247008255869 0)
(0 -0.449965195971 0)
(0 -0.437037424783 0)
(0 -0.502429323575 0)
(0 -0.396537147579 0)
(0 0.105572833478 0)
(0 0.0633528252045 0)
(0 -0.489263683506 0)
(0 -0.324662139652 0)
(0 -0.126068747361 0)
(0 -0.385646027484 0)
(0 -0.29302991049 0)
(0 -0.396692670035 0)
(0 -0.0369654352253 0)
(0 -0.38166820796 0)
(0 -0.114062935015 0)
(0 -0.0930490514368 0)
(0 -0.225935927138 0)
(0 -0.225615784538 0)
(0 -0.439448770442 0)
(0 -0.422582678395 0)
(0 -0.351074013378 0)
(0 -0.47105926957 0)
(0 -0.0319132185649 0)
(0 0.107876124767 0)
(0 -0.520967128523 0)
(0 -0.342739571398 0)
(0 -0.245739256303 0)
(0 -0.238852367595 0)
(0 -0.304253611204 0)
(0 0.0808305458257 0)
(0 -0.372488904383 0)
(0 -0.483129506421 0)
(0 -0.149526307816 0)
(0 -0.211803562492 0)
(0 -0.397769430982 0)
(0 -0.0317618184975 0)
(0 -0.425522992944 0)
(0 -0.371054295473 0)
(0 -0.467120643082 0)
(0 -0.462608031519 0)
(0 0.11590391125 0)
(0 -0.198663831836 0)
(0 -0.359678812603 0)
(0 -0.200811990069 0)
(0 -0.214127286126 0)
(0 -0.320973229967 0)
(0 -0.272936491649 0)
(0 0.0335504040355 0)
(0 -0.440070525518 0)
(0 -0.323356038185 0)
(0 -0.190393164067 0)
(0 -0.319154300115 0)
(0 -0.261297560018 0)
(0 -0.247710218214 0)
(0 -0.245264685631 0)
(0 -0.29320279209 0)
(0 -0.199240329361 0)
(0 -0.136888366128 0)
(0 -0.464385506422 0)
(0 -0.205771846296 0)
(0 -0.321755362152 0)
(0 -0.223635456901 0)
(0 -0.203598837471 0)
(0 -0.329791718711 0)
(0 -0.233917911729 0)
(0 -0.140021215934 0)
(0 -0.19046572597 0)
(0 -0.459637161979 0)
(0 -0.425605148933 0)
(0 -0.422143005436 0)
(0 -0.323932914342 0)
(0 -0.351772905487 0)
(0 -0.0010147989777 0)
(0 -0.0135739030746 0)
(0 -0.0317101376284 0)
(0 -0.4108894292 0)
(0 -0.349292396117 0)
(0 -0.465130819053 0)
(0 -0.118032211859 0)
(0 -0.20034310778 0)
(0 -0.190202818586 0)
(0 -0.401364292562 0)
(0 -0.199114755873 0)
(0 -0.117071748921 0)
(0 -0.458959623867 0)
(0 -0.242136274563 0)
(0 -0.512475618448 0)
(0 -0.426669718833 0)
(0 0.0486773356929 0)
(0 -0.308884450873 0)
(0 -0.0518246504208 0)
(0 -0.457558312037 0)
(0 0.0409349549264 0)
(0 -0.426236816362 0)
(0 -0.367501733091 0)
(0 -0.519234256194 0)
(0 -0.536791781761 0)
(0 0.116856028524 0)
(0 -0.41200437519 0)
(0 -0.519233467852 0)
(0 0.184880953765 0)
(0 -0.390938115361 0)
(0 -0.107575225582 0)
(0 -0.307783472238 0)
(0 -0.47720985315 0)
(0 -0.36291451851 0)
(0 0.00149432447625 0)
(0 -0.0755896915915 0)
(0 -0.358198157408 0)
(0 -0.355600615751 0)
(0 0.0123726808185 0)
(0 -0.486385266692 0)
(0 -0.277302679721 0)
(0 -0.176583356293 0)
(0 -0.320967856955 0)
(0 -0.296660058346 0)
(0 -0.443111806529 0)
(0 -0.314133435768 0)
(0 -0.032078840734 0)
(0 -0.117107876606 0)
(0 -0.212327884444 0)
(0 -0.440376925054 0)
(0 -0.420596913949 0)
(0 -0.0973231382004 0)
(0 -0.261618057989 0)
(0 -0.685775042839 0)
(0 -0.698999612774 0)
(0 0.302936803979 0)
(0 -0.467989816383 0)
(0 -0.480774496339 0)
(0 0.0811963280998 0)
(0 -0.182179415728 0)
(0 -0.31172338876 0)
(0 -0.289088427324 0)
(0 -0.437571949937 0)
(0 -0.00946706204143 0)
(0 -0.351281393779 0)
(0 -0.34264451936 0)
(0 -0.0207118000771 0)
(0 -0.475154100091 0)
(0 -0.0235427830165 0)
(0 -0.394408901088 0)
(0 -0.352193884326 0)
(0 -0.44385698976 0)
(0 -0.269558067856 0)
(0 -0.0350109388215 0)
(0 -0.14077812526 0)
(0 -0.179310671982 0)
(0 -0.467701935951 0)
(0 -0.239219721452 0)
(0 -0.0925202089116 0)
(0 -0.449089850317 0)
(0 -0.459243060583 0)
(0 -0.020723376681 0)
(0 -0.245997715052 0)
(0 -0.143256377625 0)
(0 -0.137101560538 0)
(0 -0.23359180443 0)
(0 -0.25059544663 0)
(0 -0.382160992101 0)
(0 -0.401560400391 0)
(0 -0.163183102447 0)
(0 -0.234034626028 0)
(0 -0.398808527699 0)
(0 -0.104855058327 0)
(0 -0.207604938074 0)
(0 -0.44180911734 0)
(0 -0.437346844024 0)
(0 -0.0976966747087 0)
(0 -0.284231406119 0)
(0 -0.421939539588 0)
(0 -0.0308043914814 0)
(0 -0.341638470493 0)
(0 -0.297797614314 0)
(0 -0.0878318077595 0)
(0 -0.418549708043 0)
(0 -0.408741588455 0)
(0 -0.519407120168 0)
(0 0.120470308859 0)
(0 -0.18780369944 0)
(0 -0.20017131766 0)
(0 -0.352397521436 0)
(0 -0.225292212663 0)
(0 -0.353566224213 0)
(0 -0.252044276931 0)
(0 -0.127959830559 0)
(0 -0.136137759883 0)
(0 -0.423951874372 0)
(0 -0.210525122246 0)
(0 -0.432980149758 0)
(0 -0.20016279524 0)
(0 -0.529986839651 0)
(0 -0.463951664205 0)
(0 0.0834530573962 0)
(0 -0.437401853602 0)
(0 -0.0308587944926 0)
(0 -0.364186349132 0)
(0 -0.181247029278 0)
(0 -0.434699550794 0)
(0 -0.184636189534 0)
(0 -0.451624085144 0)
(0 -0.102286168508 0)
(0 -0.243686033878 0)
(0 -0.460597703479 0)
(0 -0.270950920787 0)
(0 -0.0530446809749 0)
(0 -0.436302195101 0)
(0 0.0491823037466 0)
(0 -0.445361162457 0)
(0 -0.439763414852 0)
(0 0.0439292541796 0)
(0 -0.419015005294 0)
(0 -0.10900544991 0)
(0 -0.249504817683 0)
(0 -0.423178031564 0)
(0 -0.218124934394 0)
(0 -0.372632459876 0)
(0 -0.186191971012 0)
(0 -0.0214013687137 0)
(0 -0.409467081581 0)
(0 -0.362892811404 0)
(0 -0.391198286756 0)
(0 -0.0929934772239 0)
(0 -0.292724823856 0)
(0 -0.404073265571 0)
(0 -0.332008160837 0)
(0 -0.0668034266444 0)
(0 -0.150842220642 0)
(0 -0.436099971196 0)
(0 -0.200463316016 0)
(0 -0.150943838602 0)
(0 -0.400777312114 0)
(0 -0.244139860704 0)
(0 -0.191922222801 0)
(0 -0.379944609398 0)
(0 -0.195292105638 0)
(0 -0.394080589189 0)
(0 -0.36641349283 0)
(0 -0.0118470903948 0)
(0 -0.0688564527049 0)
(0 -0.290441275647 0)
(0 -0.394367564386 0)
(0 -0.211873434666 0)
(0 -0.359439674249 0)
(0 -0.223975408542 0)
(0 -0.01269718021 0)
(0 -0.479767615889 0)
(0 -0.263333237046 0)
(0 -0.161027590596 0)
(0 -0.234603500843 0)
(0 -0.359800339647 0)
(0 -0.172677939572 0)
(0 -0.32698298699 0)
(0 -0.269789366056 0)
(0 -0.417861858405 0)
(0 -0.112821615536 0)
(0 -0.274054960049 0)
(0 0.0525664067387 0)
(0 -0.479768622255 0)
(0 -0.291996562107 0)
(0 0.0385131050454 0)
(0 -0.490119495334 0)
(0 -0.292187206574 0)
(0 -0.402887653733 0)
(0 -0.299194959354 0)
(0 -0.0484686156966 0)
(0 -0.146453245129 0)
(0 -0.417291150435 0)
(0 -0.239111969714 0)
(0 -0.496812103389 0)
(0 -0.308745949939 0)
(0 0.0672694025446 0)
(0 -0.351070239691 0)
(0 -0.361914433939 0)
(0 -0.0614808175908 0)
(0 -0.53056575884 0)
(0 -0.565569808571 0)
(0 0.167941512786 0)
(0 0.194093690477 0)
(0 -0.474550601888 0)
(0 -0.574231399666 0)
(0 -0.454036186059 0)
(0 -0.273356002666 0)
(0 -0.0339582949706 0)
(0 -0.400600705821 0)
(0 -0.390011410272 0)
(0 0.0114618439157 0)
(0 -0.0225372988981 0)
(0 -0.0235030822278 0)
(0 -0.44082670758 0)
(0 -0.325874203329 0)
(0 -0.414300688466 0)
(0 -0.311604302551 0)
(0 -0.0756589275121 0)
(0 -0.386444825254 0)
(0 -0.35154443069 0)
(0 -0.237010038234 0)
(0 -0.463520680887 0)
(0 -0.1080936523 0)
(0 -0.204690729304 0)
(0 -0.332164287826 0)
(0 -0.253022133314 0)
(0 -0.0802674498759 0)
(0 -0.39484655456 0)
(0 -0.315013524387 0)
(0 -0.30789659508 0)
(0 -0.0912152790171 0)
(0 -0.406222831311 0)
(0 -0.0323142596991 0)
(0 -0.474674371403 0)
(0 -0.243371095607 0)
(0 -0.121217067445 0)
(0 -0.200633509411 0)
(0 -0.447565339614 0)
(0 -0.149942941018 0)
(0 -0.227322784928 0)
(0 -0.426159216231 0)
(0 -0.100698840072 0)
(0 -0.366958853829 0)
(0 -0.326096792371 0)
(0 -0.0960813295748 0)
(0 -0.376896683357 0)
(0 -0.313546653917 0)
(0 -0.213821173755 0)
(0 -0.343660103887 0)
(0 -0.220871580888 0)
(0 -0.126546006016 0)
(0 -0.232312733001 0)
(0 -0.408732912325 0)
(0 -0.313959182684 0)
(0 -0.470576022074 0)
(0 -0.0444304865506 0)
(0 0.0228981767552 0)
(0 -0.41505337655 0)
(0 -0.478524288562 0)
(0 0.039280502885 0)
(0 -0.396682978587 0)
(0 -0.47747738739 0)
(0 -0.180582092661 0)
(0 -0.393138301045 0)
(0 -0.219091050817 0)
(0 -0.454951386766 0)
(0 -0.449885290666 0)
(0 0.0798784360698 0)
(0 -0.0693857026429 0)
(0 -0.418386224035 0)
(0 -0.301591775929 0)
(0 -0.434601643419 0)
(0 -0.48213689039 0)
(0 0.0648654785472 0)
(0 -0.201240353578 0)
(0 -0.270934306726 0)
(0 -0.288196425518 0)
(0 -0.127946506723 0)
(0 -0.310832205079 0)
(0 -0.357925756869 0)
(0 -0.407810698082 0)
(0 -0.146767820994 0)
(0 -0.216996799513 0)
(0 -0.358157856028 0)
(0 -0.463407488425 0)
(0 -0.0160885083931 0)
(0 -0.422946133883 0)
(0 -0.109285633277 0)
(0 -0.293342364092 0)
(0 -0.466157250116 0)
(0 0.0016111235001 0)
(0 -0.262995683449 0)
(0 -0.117310302676 0)
(0 -0.312454373717 0)
(0 -0.351947260085 0)
(0 -0.208931586891 0)
(0 -0.314008359173 0)
(0 -0.250905006958 0)
(0 -0.453190919865 0)
(0 -0.00844550942454 0)
(0 -0.373392806614 0)
(0 -0.377792372962 0)
(0 -0.344312450669 0)
(0 -0.0583434387027 0)
(0 0.0333539498269 0)
(0 0.0638928846337 0)
(0 -0.46511525158 0)
(0 -0.463303014218 0)
(0 -0.332637359028 0)
(0 -0.335288904153 0)
(0 -0.148668581061 0)
(0 -0.366805391603 0)
(0 -0.290875888474 0)
(0 -0.378368520785 0)
(0 -0.107579688495 0)
(0 -0.286980121102 0)
(0 -0.180658605468 0)
(0 -0.314648620543 0)
(0 -0.287682856543 0)
(0 -0.454562119621 0)
(0 0.0228438609233 0)
(0 -0.484758598941 0)
(0 -0.385925217905 0)
(0 0.00554501427941 0)
(0 -0.383456195766 0)
(0 -0.107614844414 0)
(0 -0.332080563514 0)
(0 -0.362368034804 0)
(0 0.00445201713012 0)
(0 0.00976173636737 0)
(0 -0.425160722098 0)
(0 -0.454834830879 0)
(0 -0.376430980309 0)
(0 -0.405235398153 0)
(0 -0.112362755298 0)
(0 -0.385584283392 0)
(0 -0.27905878205 0)
(0 -0.138051521194 0)
(0 -0.321252952373 0)
(0 -0.316888449824 0)
(0 0.0289256862234 0)
(0 -0.469871657793 0)
(0 -0.276460753135 0)
(0 -0.131243922657 0)
(0 -0.339129045055 0)
(0 -0.290458637071 0)
(0 -0.170529301787 0)
(0 -0.322604291563 0)
(0 -0.290392894662 0)
(0 0.0379755359506 0)
(0 -0.471960456807 0)
(0 -0.319525073446 0)
(0 -0.109677520586 0)
(0 -0.292243687494 0)
(0 -0.350527250682 0)
(0 -0.462865752384 0)
(0 -0.125537712268 0)
(0 -0.213396722273 0)
(0 -0.140406954498 0)
(0 -0.186904413076 0)
(0 -0.435350531791 0)
(0 -0.471247198692 0)
(0 -0.272197108536 0)
(0 -0.0780330240611 0)
(0 -0.538148011081 0)
(0 -0.491893483731 0)
(0 0.19043381447 0)
(0 -0.128356199059 0)
(0 -0.331083666307 0)
(0 -0.324362389812 0)
(0 0.00924915733621 0)
(0 -0.445640080713 0)
(0 -0.297373611138 0)
(0 -0.462675861475 0)
(0 -0.169212458716 0)
(0 -0.157138319628 0)
(0 0.144831375491 0)
(0 -0.531561128223 0)
(0 -0.374272129581 0)
(0 -0.246170241689 0)
(0 -0.231827299302 0)
(0 -0.362642354729 0)
(0 -0.191012574613 0)
(0 -0.372325633298 0)
(0 -0.181164702862 0)
(0 -0.192910747302 0)
(0 -0.327983349489 0)
(0 -0.284935752205 0)
(0 -0.223762588899 0)
(0 -0.222196157906 0)
(0 -0.373464982711 0)
(0 -0.201531867833 0)
(0 -0.347453961674 0)
(0 -0.190910354285 0)
(0 -0.138440531283 0)
(0 -0.325873952147 0)
(0 -0.30617433566 0)
(0 -0.154509535717 0)
(0 -0.339234151895 0)
(0 -0.30500114587 0)
(0 -0.392678281912 0)
(0 -0.496046524022 0)
(0 0.0238805517547 0)
(0 -0.164876417865 0)
(0 -0.219682003508 0)
(0 -0.376278772579 0)
(0 -0.00852626356415 0)
(0 -0.421790874502 0)
(0 -0.397720072763 0)
(0 -0.091873685916 0)
(0 -0.0835076359164 0)
(0 -0.3543058202 0)
(0 -0.365618242507 0)
(0 -0.336380442771 0)
(0 -0.345434186414 0)
(0 -0.17559350713 0)
(0 -0.232613356962 0)
(0 -0.37160015725 0)
(0 -0.111235687916 0)
(0 -0.226252308841 0)
(0 -0.420812596781 0)
(0 -0.102572846106 0)
(0 -0.340141329416 0)
(0 -0.331044511849 0)
(0 -0.230044524253 0)
(0 -0.254440593793 0)
(0 -0.307254432045 0)
(0 -0.0908727550237 0)
(0 -0.389923781202 0)
(0 -0.328891253617 0)
(0 -0.200598738483 0)
(0 -0.33428460464 0)
(0 -0.239396443956 0)
(0 -0.123510872996 0)
(0 -0.378624688606 0)
(0 -0.302862482003 0)
(0 -0.12371758196 0)
(0 -0.241464389199 0)
(0 -0.421029704014 0)
(0 -0.223990628851 0)
(0 -0.22204350754 0)
(0 -0.247121314795 0)
(0 -0.315097570894 0)
(0 -0.230467045687 0)
(0 -0.317718783453 0)
(0 -0.222798585379 0)
(0 -0.340400424703 0)
(0 -0.234757716367 0)
(0 -0.217107483004 0)
(0 -0.349016629157 0)
(0 -0.213028512796 0)
(0 -0.158048471883 0)
(0 -0.145069633747 0)
(0 -0.25202917184 0)
(0 -0.254915074558 0)
(0 -0.379678842202 0)
(0 -0.367610026739 0)
(0 -0.443633607954 0)
(0 -0.288547888848 0)
(0 -0.0510510132854 0)
(0 -0.210735314012 0)
(0 -0.130243287886 0)
(0 -0.4537806564 0)
(0 -0.430310890929 0)
(0 -0.430737026903 0)
(0 -0.28627134413 0)
(0 -0.314305052491 0)
(0 -0.0319203495075 0)
(0 -0.0488723956663 0)
(0 -0.185958388379 0)
(0 -0.441706706137 0)
(0 -0.166771169959 0)
(0 -0.241471682766 0)
(0 -0.286715752997 0)
(0 -0.261294265946 0)
(0 -0.0776401809002 0)
(0 -0.372002919793 0)
(0 -0.333190738667 0)
(0 -0.185334095317 0)
(0 -0.373394945638 0)
(0 -0.227503774747 0)
(0 -0.10936837798 0)
(0 -0.241378441722 0)
(0 -0.405785488003 0)
(0 -0.0574551636502 0)
(0 -0.0721026443848 0)
(0 -0.253846713704 0)
(0 -0.432108704683 0)
(0 -0.27623698901 0)
(0 -0.429986221988 0)
(0 -0.0880806788119 0)
(0 -0.330971779603 0)
(0 -0.347582241767 0)
(0 0.133670321647 0)
(0 -0.334785266353 0)
(0 -0.502600444982 0)
(0 -0.448415290244 0)
(0 -0.160140599636 0)
(0 -0.159128597343 0)
(0 -0.150308986823 0)
(0 -0.153883041176 0)
(0 -0.454944753168 0)
(0 -0.172207474688 0)
(0 -0.442675524939 0)
(0 -0.173409656593 0)
(0 -0.0914099020035 0)
(0 -0.422642463333 0)
(0 -0.28441208101 0)
(0 -0.130501171835 0)
(0 -0.226308333797 0)
(0 -0.428734175078 0)
(0 -0.169379359741 0)
(0 -0.434071092599 0)
(0 -0.167776983923 0)
(0 -0.161033663243 0)
(0 -0.152653626501 0)
(0 -0.422787833367 0)
(0 -0.41630227524 0)
(0 -0.185359037147 0)
(0 -0.187621935661 0)
(0 -0.15912376093 0)
(0 -0.440883072392 0)
(0 -0.186853496646 0)
(0 -0.0995419480787 0)
(0 -0.351086178816 0)
(0 -0.345740646938 0)
(0 -0.218267459087 0)
(0 -0.34156477064 0)
(0 -0.236754125444 0)
(0 0.0155895674595 0)
(0 -0.450905405108 0)
(0 -0.327920490996 0)
(0 -0.169425130456 0)
(0 -0.449677063865 0)
(0 -0.172562548401 0)
(0 -0.123096719347 0)
(0 -0.103005854115 0)
(0 -0.261566310266 0)
(0 -0.260875279809 0)
(0 -0.406386697049 0)
(0 -0.401972867548 0)
(0 -0.442152528828 0)
(0 -0.316088095402 0)
(0 0.00239269779503 0)
(0 0.00888939712959 0)
(0 -0.468487119875 0)
(0 -0.307267513898 0)
(0 0.0298716951674 0)
(0 -0.45548909806 0)
(0 -0.303305766739 0)
(0 -0.0514372235903 0)
(0 -0.41772999392 0)
(0 -0.272553173699 0)
(0 -0.130777713125 0)
(0 -0.227474792668 0)
(0 -0.411515891986 0)
(0 -0.655009641182 0)
(0 -0.914821051081 0)
(0 -0.683544757015 0)
(0 -0.648726825711 0)
(0 -0.863989320839 0)
(0 -0.728263012589 0)
(0 -0.929906325097 0)
(0 -0.595127964626 0)
(0 -0.829505735935 0)
(0 -0.88414224187 0)
(0 -0.861449200427 0)
(0 -0.867727248989 0)
(0 -0.658439864883 0)
(0 -0.88174701866 0)
(0 -1.10133747167 0)
(0 -0.70802187767 0)
(0 -0.617377482693 0)
(0 -1.03865215584 0)
(0 -0.939763029946 0)
(0 -0.958669679521 0)
(0 -1.04282794124 0)
(0 -1.00449307839 0)
(0 -0.848886599148 0)
(0 -0.491696892464 0)
(0 -0.701566881649 0)
(0 -0.880376701829 0)
(0 -0.850599694765 0)
(0 -0.937213093932 0)
(0 -0.993698659652 0)
(0 -0.659802765242 0)
(0 -0.944854532805 0)
(0 -0.922597193469 0)
(0 -1.02745728594 0)
(0 -1.09694135935 0)
(0 -0.987618129557 0)
(0 -1.06158981021 0)
(0 -0.753907191083 0)
(0 -0.8563425811 0)
(0 -0.647368549281 0)
(0 -0.626063281654 0)
(0 -1.03219893536 0)
(0 -0.601945701167 0)
(0 -0.98053815104 0)
(0 -0.878619214412 0)
(0 -0.603357815445 0)
(0 -1.12772026585 0)
(0 -1.12023655118 0)
(0 -1.07421856839 0)
(0 -0.851988325314 0)
(0 -1.02549155032 0)
(0 -0.646350475153 0)
(0 -1.05727479738 0)
(0 -0.717311242053 0)
(0 -1.16843664385 0)
(0 -0.923443013029 0)
(0 -0.671637182354 0)
(0 -0.962676560306 0)
(0 -1.0268598511 0)
(0 -1.1073654524 0)
(0 -0.883123173049 0)
(0 -1.02695158502 0)
(0 -0.977051289865 0)
(0 -0.698591321873 0)
(0 -0.584345256977 0)
(0 -1.06151534476 0)
(0 -0.960427164331 0)
(0 -1.00706478018 0)
(0 -0.528571962508 0)
(0 -0.846150105878 0)
(0 -0.642824885208 0)
(0 -1.06129466676 0)
(0 -1.05042212329 0)
(0 -0.836998982955 0)
(0 -0.915361630458 0)
(0 -1.03497689725 0)
(0 -1.08807746284 0)
(0 -0.793895689929 0)
(0 -0.988577753743 0)
(0 -0.853658189855 0)
(0 -0.787835709353 0)
(0 -1.00690106646 0)
(0 -1.08584938931 0)
(0 -0.816604047818 0)
(0 -0.766232103697 0)
(0 -1.26073928465 0)
(0 -0.844988462274 0)
(0 -1.23207830594 0)
(0 -0.627430037729 0)
(0 -1.12553349014 0)
(0 -0.643926950571 0)
(0 -0.760476098469 0)
(0 -0.911409861431 0)
(0 -0.701185750934 0)
(0 -1.08029861641 0)
(0 -0.687034136288 0)
(0 -0.600980658034 0)
(0 -0.954507449593 0)
(0 -1.09898017312 0)
(0 -0.683921944148 0)
(0 -1.06109789096 0)
(0 -0.955488351464 0)
(0 -0.836425524747 0)
(0 -0.587640960707 0)
(0 -0.510290774509 0)
(0 -0.739221392665 0)
(0 -0.616003674697 0)
(0 -0.882940426899 0)
(0 -0.751745911596 0)
(0 -0.968978945339 0)
(0 -0.765631707466 0)
(0 -0.83632352405 0)
(0 -0.948030891343 0)
(0 -0.854987318926 0)
(0 -1.08118122031 0)
(0 -0.627125530663 0)
(0 -0.641001391559 0)
(0 -1.16898417997 0)
(0 -0.627311841462 0)
(0 -1.00995311898 0)
(0 -1.02933590173 0)
(0 -1.08465416199 0)
(0 -0.582322422084 0)
(0 -0.501802379638 0)
(0 -0.910204835998 0)
(0 -0.939288334013 0)
(0 -0.819434784439 0)
(0 -0.882957136074 0)
(0 -0.595489367665 0)
(0 -0.648478361355 0)
(0 -0.917319947842 0)
(0 -1.09075418597 0)
(0 -0.622402323457 0)
(0 -0.825186524458 0)
(0 -0.496982546023 0)
(0 -0.65350398352 0)
(0 -0.79719687803 0)
(0 -1.09975107647 0)
(0 -0.942779646587 0)
(0 -0.918990259979 0)
(0 -0.900645792019 0)
(0 -0.70025239687 0)
(0 -0.845465659564 0)
(0 -0.672351704243 0)
(0 -0.833734696185 0)
(0 -0.652373633746 0)
(0 -1.1408986489 0)
(0 -0.758576999385 0)
(0 -0.785776376092 0)
(0 -0.912848951055 0)
(0 -1.0930049489 0)
(0 -0.829643884173 0)
(0 -0.858630912487 0)
(0 -0.646022442869 0)
(0 -0.796872263156 0)
(0 -0.896617938193 0)
(0 -1.11962843291 0)
(0 -0.928639595572 0)
(0 -0.830811255828 0)
(0 -0.691685718519 0)
(0 -0.820575755765 0)
(0 -0.818846795568 0)
(0 -0.818520749185 0)
(0 -0.715931737993 0)
(0 -0.650115871942 0)
(0 -0.58937169024 0)
(0 -0.878336140715 0)
(0 -0.534265521313 0)
(0 -1.03319574631 0)
(0 -0.677744643172 0)
(0 -0.622461068299 0)
(0 -1.0131661532 0)
(0 -0.594498117707 0)
(0 -0.786643713269 0)
(0 -0.69403415497 0)
(0 -0.742221527081 0)
(0 -1.07506403631 0)
(0 -0.888234850443 0)
(0 -0.673949412786 0)
(0 -0.837934867054 0)
(0 -0.78601016459 0)
(0 -0.608634186712 0)
(0 -0.777669542362 0)
(0 -1.07456820329 0)
(0 -1.10180541406 0)
(0 -1.00887303807 0)
(0 -0.627643360718 0)
(0 -0.906625669811 0)
(0 -1.02334527463 0)
(0 -0.90270186582 0)
(0 -1.10635823172 0)
(0 -0.584063358733 0)
(0 -0.523157253547 0)
(0 -0.632482727035 0)
(0 -0.915589368307 0)
(0 -1.15976822775 0)
(0 -0.674369572484 0)
(0 -0.602884107403 0)
(0 -0.88802573402 0)
(0 -1.07607058621 0)
(0 -0.548199532207 0)
(0 -0.987677427689 0)
(0 -0.591742269451 0)
(0 -0.95803384409 0)
(0 -0.924023953386 0)
(0 -0.753625274103 0)
(0 -0.645344456332 0)
(0 -0.781363090827 0)
(0 -1.10410054336 0)
(0 -0.716557459035 0)
(0 -0.859530007789 0)
(0 -1.08520190367 0)
(0 -0.515851616464 0)
(0 -0.608761747577 0)
(0 -0.955337830868 0)
(0 -0.843080203154 0)
(0 -0.499744859522 0)
(0 -0.971753563728 0)
(0 -0.576219595996 0)
(0 -0.843393925155 0)
(0 -1.25376879158 0)
(0 -1.04753569543 0)
(0 -1.13701210441 0)
(0 -0.733508489859 0)
(0 -0.705924173621 0)
(0 -1.0112100984 0)
(0 -0.985439565107 0)
(0 -0.725549784605 0)
(0 -0.823542204461 0)
(0 -0.647180071644 0)
(0 -0.946054584969 0)
(0 -0.596485935961 0)
(0 -1.18626390015 0)
(0 -0.966756821196 0)
(0 -1.15896359094 0)
(0 -0.838845318354 0)
(0 -1.01814299454 0)
(0 -1.00112163448 0)
(0 -1.01660865846 0)
(0 -0.553173112049 0)
(0 -0.775964258126 0)
(0 -1.05176681042 0)
(0 -0.559201500873 0)
(0 -0.730134198984 0)
(0 -0.552682399744 0)
(0 -0.699902333615 0)
(0 -1.00202355459 0)
(0 -1.06948965106 0)
(0 -1.16801353495 0)
(0 -0.694795765861 0)
(0 -1.01046870551 0)
(0 -0.948819788134 0)
(0 -0.689804426043 0)
(0 -0.907989734327 0)
(0 -1.02670315445 0)
(0 -0.787415292688 0)
(0 -1.19086817134 0)
(0 -0.588579680509 0)
(0 -1.05502985834 0)
(0 -0.752698916165 0)
(0 -0.91288506793 0)
(0 -1.04367668437 0)
(0 -1.04833911087 0)
(0 -0.582263054664 0)
(0 -0.779088392359 0)
(0 -0.869863518251 0)
(0 -0.746398241533 0)
(0 -1.04333907457 0)
(0 -0.948103241198 0)
(0 -0.907006290561 0)
(0 -1.23028476395 0)
(0 -0.939186997404 0)
(0 -0.673718172109 0)
(0 -1.06765401762 0)
(0 -1.06013107414 0)
(0 -1.13940397217 0)
(0 -1.2357375335 0)
(0 -1.10742247048 0)
(0 -1.0470173959 0)
(0 -0.893404734675 0)
(0 -0.954278861147 0)
(0 -0.968572692386 0)
(0 -0.893253536483 0)
(0 -0.879976004502 0)
(0 -1.03269876012 0)
(0 -0.582416222311 0)
(0 -0.865621500303 0)
(0 -0.748935752171 0)
(0 -0.943696746174 0)
(0 -0.867849032255 0)
(0 -0.539451824856 0)
(0 -0.934123911852 0)
(0 -0.922642285653 0)
(0 -0.470430579246 0)
(0 -0.543788543956 0)
(0 -0.699135253523 0)
(0 -0.674306952642 0)
(0 -1.14327904037 0)
(0 -0.765853711436 0)
(0 -0.670661044736 0)
(0 -0.717962488779 0)
(0 -0.749990569304 0)
(0 -1.0561698859 0)
(0 -0.656432054866 0)
(0 -1.01182269572 0)
(0 -0.939493304542 0)
(0 -1.0735268227 0)
(0 -0.866846444057 0)
(0 -1.15149795055 0)
(0 -0.958594194089 0)
(0 -0.910634343102 0)
(0 -0.971372062373 0)
(0 -1.03964214103 0)
(0 -0.957342227414 0)
(0 -0.563464548121 0)
(0 -0.608955440641 0)
(0 -0.92583442992 0)
(0 -0.888586981938 0)
(0 -0.557740488513 0)
(0 -0.738469493382 0)
(0 -0.773744728966 0)
(0 -0.950389261964 0)
(0 -1.00150432835 0)
(0 -1.10500360439 0)
(0 -0.685669752193 0)