/*--------------------------------*- C++ -*----------------------------------*\
  =========                 |
  \\      /  F ield         | OpenFOAM: The Open Source CFD Toolbox
   \\    /   O peration     | Website:  https://openfoam.org
    \\  /    A nd           | Version:  6
     \\/     M anipulation  |
\*---------------------------------------------------------------------------*/
FoamFile
{
    version     2.0;
    format      ascii;
    class       volVectorField;
    location    "0";
    object      Ulift0;
}
// * * * * * * * * * * * * * * * * * * * * * * * * * * * * * * * * * * * * * //

dimensions      [0 1 -1 0 0 0 0];

internalField   nonuniform List<vector> 
13046
(
(0.416974 -0.192074 0)
(0.534499 -0.263939 2.14063e-23)
(0.410603 -0.334105 -1.2761e-20)
(0.439099 -0.200672 0)
(0.382324 -0.298397 1.30623e-20)
(0.496798 -0.294575 0)
(0.453315 -0.187812 -1.57444e-21)
(0.523582 -0.303208 -3.19536e-21)
(0.383366 -0.30324 1.74202e-21)
(0.452323 0.0123873 5.0917e-21)
(0.738704 -0.353146 0)
(0.211266 -0.416267 8.71009e-23)
(0.430393 -0.165068 -2.08568e-21)
(0.554504 -0.30226 -2.70595e-21)
(0.364391 -0.347061 2.49857e-20)
(0.399918 -0.0113502 8.83878e-21)
(0.271492 -0.454747 -8.41173e-21)
(0.724261 -0.285686 -1.94225e-21)
(0.407566 -0.23946 0)
(0.461391 -0.308719 4.34262e-21)
(0.491877 -0.228608 -1.72805e-20)
(0.399393 -0.00688698 6.99325e-21)
(0.245956 -0.443754 -9.27451e-21)
(0.713414 -0.293716 6.3979e-22)
(0.42294 -0.217166 4.5095e-21)
(0.498574 -0.277088 -1.26708e-21)
(0.406832 -0.315281 0)
(0.405134 -0.150134 7.73055e-21)
(0.556589 -0.274054 3.89821e-21)
(0.359194 -0.34957 6.35977e-21)
(0.397081 -0.177439 0)
(0.53602 -0.25025 0)
(0.39875 -0.339298 -1.27611e-20)
(0.419412 -0.218261 3.9256e-21)
(0.410906 -0.297292 8.72696e-22)
(0.48337 -0.263028 -3.66128e-21)
(0.442029 -0.22875 -1.25322e-20)
(0.426155 -0.286567 0)
(0.484054 -0.270662 0)
(0.350081 -0.198234 2.38054e-21)
(0.43595 -0.381087 3.751e-21)
(0.539979 -0.211424 -5.38241e-21)
(0.451365 -0.256738 -2.33723e-21)
(0.432463 -0.267754 7.88443e-21)
(0.451465 -0.278684 0)
(0.455622 -0.232032 -8.87715e-21)
(0.412342 -0.251007 0)
(0.451069 -0.278831 -1.60914e-21)
(0.414366 -0.181188 0)
(0.522362 -0.275446 -4.46616e-22)
(0.378878 -0.324692 9.44735e-21)
(0.469375 -0.414362 1.25158e-21)
(0.292631 -0.19997 0)
(0.547822 -0.15909 4.67892e-21)
(0.490399 -0.430326 9.49738e-21)
(0.551648 -0.157483 -8.73378e-21)
(0.290399 -0.217614 1.55487e-21)
(0.642309 -0.208388 -4.4894e-21)
(0.329063 -0.0754714 0)
(0.357916 -0.445719 -1.49242e-20)
(0.485364 -0.114333 -1.67241e-20)
(0.577071 -0.356913 9.19571e-21)
(0.302774 -0.303303 -1.98469e-20)
(0.256874 -0.386707 -1.25717e-20)
(0.660035 -0.330587 2.86889e-21)
(0.43414 -0.0470378 -6.53303e-22)
(0.320233 -0.102213 0)
(0.639041 -0.209067 6.05423e-21)
(0.377673 -0.467866 -2.95204e-21)
(0.322061 -0.101451 -2.28482e-21)
(0.626856 -0.199709 6.05427e-21)
(0.380431 -0.44697 -2.95204e-21)
(0.660043 -0.228579 -1.20341e-23)
(0.338194 -0.0736487 5.89279e-21)
(0.343598 -0.487995 -7.31412e-21)
(0.39176 -0.23786 0)
(0.450842 -0.323358 3.83938e-21)
(0.49205 -0.228992 -9.61637e-21)
(0.316289 -0.475054 -8.3336e-22)
(0.346015 -0.0655079 9.22327e-21)
(0.669371 -0.247411 -7.20596e-21)
(0.433415 -0.189571 -1.96223e-21)
(0.509222 -0.275361 2.39422e-21)
(0.393518 -0.298962 0)
(0.249682 -0.416654 1.58809e-21)
(0.684032 -0.353362 0)
(0.44187 -0.0447484 2.28212e-21)
(0.482808 -0.0575958 7.8255e-21)
(0.232916 -0.334627 0)
(0.635265 -0.38494 3.52273e-21)
(0.196465 -0.298677 0)
(0.541613 -0.0611883 0)
(0.630243 -0.470485 -5.25305e-22)
(0.419243 -0.111004 1.173e-20)
(0.427079 -0.0876911 9.2697e-21)
(0.611744 -0.305355 -3.53276e-21)
(0.61759 -0.304174 5.6979e-21)
(0.327484 -0.384593 -4.93625e-21)
(0.307539 -0.361985 6.95353e-21)
(0.238347 -0.33299 4.21352e-22)
(0.500335 -0.07407 7.8255e-21)
(0.628814 -0.41238 0)
(0.46461 -0.227556 -6.43083e-21)
(0.411224 -0.269144 0)
(0.475364 -0.294928 0)
(0.307099 -0.228846 -1.80561e-21)
(0.525108 -0.153823 4.83202e-21)
(0.497023 -0.385498 0)
(0.316073 -0.201686 1.97444e-21)
(0.460706 -0.393682 0)
(0.5402 -0.174802 4.84261e-21)
(0.486547 0.0764754 0)
(0.169226 -0.456269 -1.13202e-20)
(0.841882 -0.387966 8.7308e-21)
(0.425612 -0.166077 -1.55733e-21)
(0.536693 -0.277456 3.99471e-21)
(0.376811 -0.319579 1.32226e-20)
(0.400322 -0.0925819 2.65951e-21)
(0.403824 -0.0916106 2.65951e-21)
(0.632684 -0.292863 2.80014e-21)
(0.317075 -0.411216 -5.55523e-21)
(0.621139 -0.28152 -1.18232e-20)
(0.323816 -0.385141 -5.55523e-21)
(0.450056 0.0124103 -4.3933e-21)
(0.746704 -0.367326 1.12139e-20)
(0.195561 -0.44285 -3.18421e-21)
(0.413153 -0.131163 0)
(0.58827 -0.292668 8.21614e-21)
(0.347839 -0.37347 -2.10774e-20)
(0.359955 -0.180088 0)
(0.431273 -0.373437 2.36548e-21)
(0.552601 -0.211104 -1.27444e-20)
(0.198542 -0.277425 0)
(0.530855 -0.0660716 0)
(0.602143 -0.450381 0)
(0.456901 -0.0800754 0)
(0.635019 -0.345663 -9.20866e-21)
(0.285417 -0.363308 -1.25211e-20)
(0.392456 -0.177728 0)
(0.544189 -0.262557 0)
(0.387737 -0.361458 0)
(0.483705 -0.156125 0)
(0.538636 -0.341717 0)
(0.342506 -0.286794 0)
(0.317172 -0.211401 1.97444e-21)
(0.484248 -0.403938 0)
(0.548654 -0.168556 1.43137e-20)
(0.329561 -0.248847 -2.85797e-21)
(0.520412 -0.176538 -7.64839e-21)
(0.499267 -0.384754 -3.48956e-21)
(0.46694 -0.115175 -1.13837e-20)
(0.580523 -0.362306 0)
(0.288266 -0.331315 -1.97118e-20)
(0.358841 -0.266271 0)
(0.494534 -0.189526 1.79353e-20)
(0.501065 -0.347535 8.78248e-22)
(0.520719 -0.421208 -3.96966e-21)
(0.545542 -0.129762 1.27992e-20)
(0.524754 -0.430804 0)
(0.528807 -0.12765 1.07083e-20)
(0.276493 -0.226208 9.67646e-21)
(0.257112 -0.251748 9.67646e-21)
(0.492264 -0.161535 6.46325e-22)
(0.515524 -0.367407 -8.1362e-21)
(0.319676 -0.274162 -2.74731e-21)
(0.470602 -0.00681145 -2.23874e-21)
(0.203567 -0.418129 -1.86303e-21)
(0.727608 -0.39083 -2.33508e-21)
(0.454211 0.0398836 -5.90379e-21)
(0.170364 -0.459664 -1.46457e-21)
(0.78263 -0.375946 0)
(0.435487 -0.071073 9.19805e-21)
(0.633147 -0.33084 0)
(0.271398 -0.373949 -1.21022e-20)
(0.33915 -0.169425 0)
(0.574955 -0.212169 -4.07322e-21)
(0.42098 -0.416354 7.31149e-21)
(0.506911 -0.160655 -7.00207e-21)
(0.332784 -0.248258 0)
(0.509012 -0.35744 0)
(0.19297 -0.3746 0)
(0.690896 -0.393008 0)
(0.477099 -0.0148062 -2.24195e-21)
(0.343202 -0.16879 0)
(0.565525 -0.200491 -8.12278e-21)
(0.430397 -0.391927 -1.51344e-21)
(0.335055 -0.254391 0)
(0.493845 -0.176274 0)
(0.490787 -0.354328 0)
(0.468942 -0.173211 3.65897e-21)
(0.512286 -0.337293 0)
(0.342255 -0.286121 0)
(0.564263 -0.298336 -1.48994e-20)
(0.344755 -0.331666 -6.54604e-22)
(0.428954 -0.132431 9.81622e-21)
(0.585662 -0.286969 0)
(0.359925 -0.356476 -2.64639e-20)
(0.47281 -0.0376318 -1.06506e-20)
(0.241285 -0.366509 1.11051e-20)
(0.675977 -0.368201 -1.90625e-20)
(0.229006 -0.296715 1.10757e-20)
(0.520013 -0.071826 5.677e-21)
(0.613377 -0.426465 2.02484e-20)
(0.52254 -0.0444171 -2.1294e-20)
(0.652529 -0.43472 0)
(0.207259 -0.316111 3.43764e-21)
(0.470224 -0.442133 -7.82114e-21)
(0.579632 -0.14938 7.74065e-21)
(0.280942 -0.175619 8.97829e-21)
(0.442538 -0.159222 -2.6994e-21)
(0.344877 -0.0621265 4.46561e-21)
(0.338763 -0.479581 7.41718e-22)
(0.685924 -0.228628 -1.20341e-23)
(0.657623 -0.443022 0)
(0.517288 -0.0445577 6.47571e-21)
(0.194678 -0.33931 0)
(0.439921 -0.219043 1.1425e-20)
(0.400589 -0.278382 0)
(0.472664 -0.281008 1.49327e-21)
(0.406858 -0.157094 0)
(0.566536 -0.264478 4.74457e-22)
(0.385758 -0.357231 -1.32606e-20)
(0.213711 -0.295567 -4.49176e-21)
(0.524976 -0.0821345 0)
(0.596381 -0.451386 2.02484e-20)
(0.445888 -0.157209 0)
(0.561626 -0.311421 -6.61693e-22)
(0.352416 -0.329088 0)
(0.176523 -0.428778 0)
(0.763697 -0.415788 -1.14625e-20)
(0.489144 0.018429 0)
(0.265419 -0.199307 8.97829e-21)
(0.564082 -0.1485 0)
(0.476823 -0.455217 0)
(0.499908 -0.0660046 -2.1294e-20)
(0.612516 -0.422978 0)
(0.207554 -0.317322 1.35377e-20)
(0.50794 -0.142125 4.81602e-21)
(0.516905 -0.392322 -2.35261e-20)
(0.287716 -0.258846 7.85609e-21)
(0.399888 -0.11719 0)
(0.594569 -0.271387 8.77043e-21)
(0.346043 -0.373902 6.56933e-21)
(0.569039 -0.465187 -6.00502e-21)
(0.552181 -0.0970432 -9.82237e-21)
(0.227867 -0.254913 -1.44783e-21)
(0.543257 -0.110311 0)
(0.545687 -0.434423 -9.32476e-21)
(0.253485 -0.241885 1.04148e-22)
(0.15021 -0.40737 5.87971e-21)
(0.753424 -0.419704 0)
(0.49057 0.0272999 2.66856e-21)
(0.329335 -0.194175 3.28476e-22)
(0.460585 -0.408331 -1.93108e-20)
(0.561318 -0.187228 9.63066e-22)
(0.445886 0.106644 -7.88514e-23)
(0.180737 -0.485619 7.97379e-22)
(0.866588 -0.32746 0)
(0.383605 -0.257713 2.86453e-21)
(0.463165 -0.216599 -5.71627e-22)
(0.461033 -0.305931 1.13886e-21)
(0.490603 -0.134648 -8.90923e-21)
(0.50801 -0.14236 7.06457e-21)
(0.536846 -0.369238 1.61038e-20)
(0.53703 -0.370964 -1.74896e-20)
(0.316473 -0.265644 -5.26433e-21)
(0.29756 -0.279439 -1.37968e-21)
(0.305498 -0.460598 -7.84471e-22)
(0.361652 -0.0291247 1.16427e-20)
(0.697882 -0.244038 0)
(0.398981 -0.139759 0)
(0.589559 -0.274017 0)
(0.365627 -0.386283 3.5539e-21)
(0.54113 -0.110594 3.73911e-21)
(0.55645 -0.448423 0)
(0.245623 -0.260914 0)
(0.421906 -0.0888852 -1.37465e-20)
(0.631022 -0.318575 0)
(0.297535 -0.394714 6.34286e-21)
(0.443448 -0.245315 7.91273e-21)
(0.462174 -0.255998 -3.82905e-21)
(0.443501 -0.26684 1.02491e-21)
(0.52678 -0.123755 1.11178e-20)
(0.544353 -0.40005 0)
(0.286234 -0.253024 -1.03511e-20)
(0.379003 -0.122543 0)
(0.59347 -0.253428 -4.132e-21)
(0.358719 -0.388695 -6.44405e-21)
(0.43204 -0.153977 -1.07343e-20)
(0.459636 -0.130747 -1.10433e-20)
(0.308219 -0.180806 -1.8438e-21)
(0.450308 -0.413717 -8.05747e-21)
(0.561843 -0.174372 1.46053e-20)
(0.514235 -0.121569 1.14405e-20)
(0.548562 -0.411542 -1.85732e-20)
(0.265817 -0.277456 -1.12161e-20)
(0.4335 -0.0660725 -6.15751e-21)
(0.285348 -0.37599 -4.44388e-21)
(0.643362 -0.317916 3.88405e-21)
(0.332879 -0.217503 6.01997e-21)
(0.459456 -0.394057 0)
(0.535198 -0.196017 -7.66932e-21)
(0.260601 -0.225246 1.02609e-20)
(0.54667 -0.13202 -5.43777e-21)
(0.50905 -0.438861 0)
(0.367418 -0.0989427 -1.26981e-21)
(0.617846 -0.249912 6.59539e-21)
(0.339513 -0.412494 1.9402e-21)
(0.307574 -0.190236 -5.41814e-22)
(0.470055 -0.426993 0)
(0.570028 -0.170364 1.49383e-20)
(0.3799 -0.0895206 0)
(0.381765 -0.0736767 0)
(0.647665 -0.262539 -8.82353e-21)
(0.341888 -0.431703 1.32392e-20)
(0.640221 -0.265744 -6.73863e-21)
(0.315098 -0.411726 1.3252e-21)
(0.219792 -0.387488 -6.03719e-21)
(0.69845 -0.387849 0)
(0.477842 -0.0246074 -4.30409e-21)
(0.393909 -0.118481 0)
(0.606096 -0.284103 -2.59248e-21)
(0.337245 -0.401291 -3.00737e-21)
(0.90203 -0.393947 -1.83155e-20)
(0.123606 -0.479841 5.18248e-21)
(0.493108 0.121676 -9.91417e-21)
(0.484263 -0.199989 1.17028e-20)
(0.357085 -0.259965 0)
(0.477195 -0.341388 -2.86752e-21)
(0.46883 -0.131627 -1.16509e-20)
(0.558002 -0.35226 0)
(0.306726 -0.316831 -8.53261e-21)
(0.242766 -0.370253 -4.02382e-21)
(0.455088 -0.0599845 -4.91914e-21)
(0.641717 -0.363137 7.8241e-21)
(0.489803 -0.430476 -5.78024e-22)
(0.557284 -0.137753 0)
(0.272411 -0.199024 1.55488e-21)
(0.568403 -0.458568 1.69365e-20)
(0.533124 -0.0883583 -6.47865e-21)
(0.21049 -0.267307 0)
(0.544815 -0.293182 5.72878e-21)
(0.358963 -0.308111 0)
(0.438443 -0.127972 -1.14376e-20)
(0.57889 -0.325955 3.16981e-21)
(0.314203 -0.345182 2.69121e-21)
(0.528097 -0.325417 1.32452e-22)
(0.341457 -0.308902 8.2953e-21)
(0.381319 -0.0312719 8.11884e-21)
(0.268784 -0.445869 -2.19361e-21)
(0.686784 -0.278456 -1.94225e-21)
(0.463623 -0.464228 -7.82112e-21)
(0.589331 -0.159647 8.56894e-22)
(0.274535 -0.177142 0)
(0.454486 -0.107997 -1.14376e-20)
(0.602545 -0.329603 3.1698e-21)
(0.313507 -0.343389 -3.83583e-21)
(0.48364 -0.152539 0)
(0.519777 -0.353476 -7.99429e-21)
(0.319068 -0.274303 0)
(0.532182 -0.164893 7.36045e-21)
(0.485459 -0.407787 0)
(0.30091 -0.229124 0)
(0.430774 -0.190235 -1.96223e-21)
(0.522122 -0.288663 -7.45125e-21)
(0.387566 -0.319884 7.59317e-21)
(0.269997 -0.217201 1.00018e-20)
(0.559881 -0.136681 1.55566e-21)
(0.510447 -0.446351 8.51073e-21)
(0.484448 -0.0574743 1.19177e-20)
(0.652265 -0.409929 -1.95672e-20)
(0.217444 -0.366672 1.55921e-22)
(0.587761 -0.436776 1.9773e-20)
(0.531035 -0.0820768 -6.47865e-21)
(0.227676 -0.27084 -5.71242e-21)
(0.313778 -0.118465 -8.77985e-21)
(0.400952 -0.448214 -1.1972e-20)
(0.615623 -0.19203 0)
(0.366449 -0.0685433 -9.44871e-23)
(0.353864 -0.0780521 -2.4481e-21)
(0.644845 -0.236703 -2.08491e-21)
(0.669212 -0.247009 -7.20596e-21)
(0.33621 -0.449965 1.88535e-21)
(0.334606 -0.437038 9.34328e-21)
(0.1503 -0.502429 1.13089e-20)
(0.894819 -0.396537 -1.83155e-20)
(0.490199 0.105573 3.70617e-21)
(0.418069 0.0633527 4.63932e-23)
(0.182617 -0.489264 0)
(0.807745 -0.324662 0)
(0.50503 -0.126069 -9.9339e-21)
(0.566132 -0.385646 -1.63655e-21)
(0.297736 -0.29303 0)
(0.22119 -0.396693 8.01581e-21)
(0.462383 -0.0369657 -4.27896e-21)
(0.682646 -0.381668 0)
(0.338737 -0.114063 -9.55554e-21)
(0.349958 -0.0930492 -9.43735e-21)
(0.615003 -0.225936 -8.48304e-21)
(0.624654 -0.225616 4.47647e-21)
(0.367273 -0.439449 1.94986e-21)
(0.356772 -0.422583 3.42054e-21)
(0.163201 -0.351074 0)
(0.676114 -0.471059 0)
(0.525267 -0.0319136 6.45464e-22)
(0.450766 0.107876 -7.8855e-23)
(0.170719 -0.520967 7.27135e-21)
(0.881435 -0.34274 0)
(0.477417 -0.24574 -7.04264e-21)
(0.407348 -0.238853 1.13796e-21)
(0.436498 -0.304254 1.50731e-21)
(0.458308 0.0808305 5.8838e-21)
(0.835869 -0.372489 8.7308e-21)
(0.147654 -0.48313 -1.05228e-20)
(0.34633 -0.149527 -3.14926e-21)
(0.576984 -0.211804 7.71287e-21)
(0.4053 -0.39777 1.37418e-20)
(0.500555 -0.0317621 4.1377e-21)
(0.687557 -0.425523 1.37488e-20)
(0.200881 -0.371054 1.95681e-21)
(0.901019 -0.467121 -4.13105e-22)
(0.0898287 -0.462608 4.13243e-21)
(0.537741 0.115904 -5.80621e-21)
(0.359111 -0.198664 -5.55707e-21)
(0.449708 -0.359679 2.98865e-22)
(0.534509 -0.200812 1.00365e-20)
(0.469979 -0.214128 0)
(0.47892 -0.320974 5.99624e-21)
(0.380905 -0.272937 6.56198e-21)
(0.432373 0.0335503 -9.5727e-21)
(0.211468 -0.440071 -4.98672e-22)
(0.762784 -0.323356 1.96979e-20)
(0.479833 -0.190394 0)
(0.492826 -0.319155 1.99905e-21)
(0.37199 -0.261298 3.69746e-21)
(0.477759 -0.247711 6.93704e-21)
(0.424831 -0.245265 1.13795e-21)
(0.449734 -0.293203 -1.60914e-21)
(0.265407 -0.19924 -4.38775e-21)
(0.57738 -0.136889 -8.75633e-22)
(0.503644 -0.464386 6.07522e-21)
(0.499937 -0.205772 0)
(0.458904 -0.321756 0)
(0.379291 -0.223636 -3.92477e-22)
(0.503627 -0.203599 -1.46163e-21)
(0.473103 -0.329792 3.82823e-21)
(0.379379 -0.233918 -7.9911e-23)
(0.298279 -0.140021 -5.13627e-21)
(0.599992 -0.190466 1.48087e-20)
(0.406108 -0.459637 7.33019e-21)
(0.241166 -0.425605 7.08362e-21)
(0.21435 -0.422143 6.3726e-21)
(0.725785 -0.323933 -5.36481e-21)
(0.704533 -0.351773 4.36867e-21)
(0.430671 -0.00101498 -1.0763e-20)
(0.43591 -0.0135741 -5.67132e-21)
(0.500823 -0.0317105 1.27764e-20)
(0.674834 -0.41089 4.54228e-21)
(0.208373 -0.349293 0)
(0.395375 -0.465131 -7.06234e-21)
(0.315846 -0.118032 -2.28482e-21)
(0.623045 -0.200344 0)
(0.328281 -0.190203 0)
(0.434824 -0.401364 -3.71243e-21)
(0.549375 -0.199115 5.6685e-21)
(0.547307 -0.117072 0)
(0.532039 -0.45896 -9.32475e-21)
(0.237774 -0.242136 1.04148e-22)
(0.819845 -0.512476 1.07086e-21)
(0.106887 -0.42667 0)
(0.551059 0.0486772 -1.22008e-20)
(0.179615 -0.308885 0)
(0.524574 -0.0518251 0)
(0.629969 -0.457558 1.14996e-22)
(0.466748 0.0409348 5.1794e-21)
(0.186098 -0.426237 0)
(0.776762 -0.367502 -1.14625e-20)
(0.0595378 -0.519234 -5.12005e-32)
(0.944313 -0.536792 1.47207e-20)
(0.567108 0.116856 7.28119e-21)
(1.01636 -0.412004 1.40789e-20)
(0.11128 -0.519234 -5.12004e-32)
(0.527834 0.184881 7.44791e-21)
(0.583784 -0.390938 2.05046e-21)
(0.496288 -0.107576 0)
(0.275091 -0.307784 -3.80539e-21)
(0.726646 -0.47721 -8.7665e-21)
(0.146893 -0.362915 0)
(0.537297 0.00149401 0)
(0.455784 -0.07559 1.79857e-21)
(0.622031 -0.358198 -9.12714e-21)
(0.258567 -0.355601 -5.95451e-21)
(0.385168 0.0123726 8.36308e-21)
(0.25787 -0.486385 7.45602e-21)
(0.751224 -0.277303 0)
(0.440135 -0.176584 4.00559e-22)
(0.371735 -0.320968 -2.7628e-21)
(0.531657 -0.29666 9.72349e-21)
(0.655088 -0.443112 0)
(0.178918 -0.314134 -4.83407e-21)
(0.52391 -0.0320793 7.12117e-21)
(0.557909 -0.117109 -6.99342e-21)
(0.255119 -0.212328 1.02933e-21)
(0.521394 -0.440377 0)
(0.560902 -0.420597 0)
(0.524794 -0.0973237 0)
(0.243782 -0.261618 1.41048e-21)
(0.0531543 -0.685775 0)
(1.39334 -0.698999 -1.23723e-21)
(0.754866 0.302937 1.55947e-21)
(0.863245 -0.46799 8.29058e-21)
(0.100881 -0.480775 7.3317e-21)
(0.518751 0.0811962 -1.86953e-20)
(0.430562 -0.18218 5.07625e-21)
(0.372785 -0.311724 1.2567e-21)
(0.521416 -0.289089 -1.02e-20)
(0.696413 -0.437572 -4.44594e-21)
(0.51294 -0.0094674 2.08033e-21)
(0.172894 -0.351282 0)
(0.160608 -0.342645 2.93317e-21)
(0.535675 -0.0207122 0)
(0.694006 -0.475154 -6.72141e-21)
(0.450498 -0.023543 2.58469e-21)
(0.23239 -0.394409 5.85275e-22)
(0.692493 -0.352194 -4.02681e-21)
(0.28772 -0.443857 -3.43593e-21)
(0.687085 -0.269559 -6.19122e-21)
(0.379801 -0.0350111 0)
(0.298449 -0.140778 -9.26128e-22)
(0.612123 -0.179311 1.48088e-20)
(0.431852 -0.467702 -6.39773e-21)
(0.63862 -0.23922 -4.4894e-21)
(0.351834 -0.0925204 5.31817e-23)
(0.350041 -0.44909 -1.49243e-20)
(0.279885 -0.459243 4.0943e-21)
(0.354902 -0.0207235 0)
(0.69189 -0.245998 3.09344e-21)
(0.366065 -0.143257 -2.62714e-21)
(0.379264 -0.137102 0)
(0.573893 -0.233592 3.7359e-21)
(0.598177 -0.250596 3.7359e-21)
(0.383654 -0.382161 -6.74314e-21)
(0.381957 -0.401561 0)
(0.36188 -0.163183 -2.0022e-21)
(0.572544 -0.234035 0)
(0.402231 -0.398809 1.00107e-20)
(0.334895 -0.104855 0)
(0.628994 -0.207606 -8.64023e-21)
(0.385571 -0.441809 -1.31728e-21)
(0.575806 -0.437347 9.75708e-21)
(0.522986 -0.0976972 5.62822e-21)
(0.236286 -0.284232 -1.45467e-21)
(0.661199 -0.42194 0)
(0.500679 -0.0308048 -3.98046e-22)
(0.188409 -0.341639 0)
(0.229298 -0.297798 -1.58766e-21)
(0.504045 -0.0878323 5.49259e-21)
(0.583699 -0.41855 -2.9488e-21)
(0.91574 -0.408742 -6.41801e-22)
(0.111374 -0.519407 -4.82979e-21)
(0.48781 0.12047 0)
(0.38241 -0.187804 5.72641e-21)
(0.390679 -0.200172 0)
(0.430414 -0.352398 1.2872e-21)
(0.542149 -0.225293 4.69275e-21)
(0.41266 -0.353566 1.2872e-21)
(0.528966 -0.252045 1.58807e-20)
(0.33948 -0.12796 0)
(0.325737 -0.136138 -1.15419e-21)
(0.401293 -0.423952 8.69202e-21)
(0.612678 -0.210526 1.56734e-21)
(0.401413 -0.43298 1.5997e-20)
(0.59417 -0.200163 7.15941e-21)
(0.886549 -0.529987 0)
(0.0854445 -0.463952 1.48476e-21)
(0.572587 0.083453 0)
(0.674186 -0.437402 1.05001e-20)
(0.500369 -0.0308592 2.88101e-21)
(0.180214 -0.364187 1.95681e-21)
(0.306132 -0.181247 -1.63046e-21)
(0.443463 -0.4347 7.54094e-21)
(0.571064 -0.184637 1.27394e-22)
(0.545259 -0.451624 3.3107e-21)
(0.543207 -0.102287 -6.08325e-21)
(0.227808 -0.243686 0)
(0.305561 -0.460598 -3.38701e-21)
(0.682472 -0.270951 -6.1912e-21)
(0.375577 -0.0530449 0)
(0.795397 -0.436302 0)
(0.494435 0.0491821 0)
(0.125086 -0.445361 0)
(0.79634 -0.439764 0)
(0.514366 0.0439291 7.01009e-21)
(0.151218 -0.419015 0)
(0.366517 -0.109006 -3.65286e-21)
(0.618723 -0.249505 1.10719e-20)
(0.354705 -0.423178 3.42054e-21)
(0.34288 -0.218125 6.65519e-22)
(0.473669 -0.372633 0)
(0.530312 -0.186192 -3.46771e-22)
(0.455792 -0.0214016 2.58468e-21)
(0.230279 -0.409467 5.41492e-21)
(0.706197 -0.362893 3.41828e-22)
(0.583054 -0.391199 0)
(0.498947 -0.0929939 0)
(0.257356 -0.292725 1.53352e-21)
(0.275218 -0.404073 -8.46966e-21)
(0.655257 -0.332008 7.30645e-21)
(0.42942 -0.0668037 4.22017e-21)
(0.323813 -0.150842 -1.15419e-21)
(0.417146 -0.4361 2.92916e-21)
(0.59345 -0.200464 5.5921e-21)
(0.531476 -0.150944 9.77513e-21)
(0.518314 -0.400778 -6.03655e-21)
(0.305582 -0.24414 1.03731e-20)
(0.345728 -0.191922 7.73499e-21)
(0.450176 -0.379945 1.40524e-21)
(0.547643 -0.195293 5.66849e-21)
(0.20793 -0.394081 -1.07014e-20)
(0.6988 -0.366414 -2.33508e-21)
(0.456551 -0.0118473 -2.23874e-21)
(0.408255 -0.0688567 1.14153e-21)
(0.644575 -0.290442 2.80014e-21)
(0.302163 -0.394368 0)
(0.366474 -0.211874 5.72641e-21)
(0.433923 -0.35944 -1.49694e-20)
(0.520663 -0.223976 1.52283e-20)
(0.369306 -0.0126973 2.35345e-21)
(0.279572 -0.479768 7.52541e-21)
(0.720887 -0.263334 -5.98229e-21)
(0.375851 -0.161028 1.83228e-21)
(0.551764 -0.234604 0)
(0.393992 -0.359801 0)
(0.474724 -0.172678 5.50119e-21)
(0.504605 -0.326983 3.74576e-21)
(0.349293 -0.26979 0)
(0.565659 -0.417862 0)
(0.524767 -0.112822 1.14405e-20)
(0.265236 -0.274055 1.41049e-21)
(0.398376 0.0525663 0)
(0.204842 -0.479769 -4.59838e-22)
(0.783295 -0.291997 -4.65739e-22)
(0.400585 0.038513 3.16657e-21)
(0.231721 -0.49012 7.67767e-21)
(0.783059 -0.292188 -1.37546e-21)
(0.280062 -0.402888 -3.10294e-21)
(0.664821 -0.299195 3.96054e-21)
(0.411868 -0.0484688 4.37593e-21)
(0.529957 -0.146454 1.93757e-20)
(0.503805 -0.417291 -7.25966e-21)
(0.280429 -0.239112 0)
(0.20725 -0.496812 -4.59838e-22)
(0.824835 -0.308746 -2.99589e-22)
(0.417168 0.0672693 0)
(0.257006 -0.35107 0)
(0.641187 -0.361915 5.23583e-21)
(0.468039 -0.0614811 2.49338e-23)
(0.0624247 -0.530566 6.1013e-21)
(1.04665 -0.56557 1.37302e-20)
(0.619468 0.167942 0)
(0.560595 0.194094 -6.0767e-21)
(1.08046 -0.474551 0)
(0.0972666 -0.574232 -5.18908e-21)
(0.287704 -0.454036 1.13868e-20)
(0.693638 -0.273356 1.14312e-21)
(0.381632 -0.0339585 0)
(0.179986 -0.400601 0)
(0.729501 -0.390012 0)
(0.472724 0.0114616 -8.61028e-21)
(0.421281 -0.0225375 -2.23356e-21)
(0.418618 -0.0235033 -2.23357e-21)
(0.252399 -0.440827 7.95263e-22)
(0.708555 -0.325875 -1.36594e-21)
(0.257109 -0.414301 0)
(0.693227 -0.311605 0)
(0.477357 -0.0756593 1.58401e-21)
(0.628854 -0.386445 3.52273e-21)
(0.248804 -0.351545 0)
(0.23661 -0.23701 0)
(0.546757 -0.463521 0)
(0.557009 -0.108094 0)
(0.398177 -0.204691 1.55082e-21)
(0.410472 -0.332165 1.33632e-20)
(0.512242 -0.253023 2.14146e-23)
(0.488772 -0.0802679 -5.7798e-21)
(0.600544 -0.394847 2.14005e-21)
(0.238914 -0.315014 4.54819e-21)
(0.254057 -0.307897 -2.56329e-21)
(0.504509 -0.0912157 -5.77981e-21)
(0.599585 -0.406223 2.14005e-21)
(0.354356 -0.0323144 2.32493e-21)
(0.303923 -0.474675 -3.18852e-21)
(0.69698 -0.243372 0)
(0.315205 -0.121217 0)
(0.610124 -0.200634 -1.5723e-22)
(0.386559 -0.447566 1.5997e-20)
(0.344412 -0.149943 0)
(0.591088 -0.227323 7.71289e-21)
(0.396221 -0.426159 1.4313e-20)
(0.480446 -0.100699 -1.13837e-20)
(0.600659 -0.366959 -1.86816e-21)
(0.286673 -0.326097 2.42453e-21)
(0.480231 -0.0960817 0)
(0.585161 -0.376897 2.09769e-21)
(0.262389 -0.313547 -5.33893e-21)
(0.379857 -0.213821 0)
(0.446375 -0.34366 -1.06657e-20)
(0.519426 -0.220872 0)
(0.354385 -0.126546 0)
(0.595928 -0.232313 2.15559e-21)
(0.372442 -0.408733 1.14256e-21)
(0.179392 -0.313959 -2.36469e-21)
(0.650393 -0.470576 -9.28996e-21)
(0.538786 -0.0444309 0)
(0.52264 0.0228979 6.30092e-24)
(0.124788 -0.415054 -2.10748e-21)
(0.76548 -0.478524 3.93715e-21)
(0.529242 0.0392803 3.04305e-21)
(0.110409 -0.396683 0)
(0.772886 -0.477477 5.00802e-21)
(0.352348 -0.180582 -2.64498e-21)
(0.421546 -0.393139 -1.51344e-21)
(0.557933 -0.219092 -1.27635e-20)
(0.858321 -0.454951 2.06884e-20)
(0.126171 -0.449885 5.38412e-21)
(0.526791 0.0798783 0)
(0.4062 -0.0693859 1.79767e-21)
(0.295473 -0.418386 0)
(0.655508 -0.301592 0)
(0.0890482 -0.434602 -4.987e-21)
(0.823049 -0.482137 1.19847e-20)
(0.528801 0.0648653 -9.85241e-21)
(0.460526 -0.201241 1.22882e-20)
(0.399164 -0.270935 1.30623e-20)
(0.493337 -0.288197 9.18595e-21)
(0.426811 -0.127947 -3.09016e-22)
(0.573573 -0.310833 -9.13301e-22)
(0.333437 -0.357926 -1.30425e-21)
(0.49864 -0.407811 4.95578e-21)
(0.54269 -0.146768 -1.37332e-21)
(0.293937 -0.216997 0)
(0.146128 -0.358158 0)
(0.690421 -0.463408 1.02116e-21)
(0.515692 -0.0160889 0)
(0.567192 -0.422946 0)
(0.509711 -0.109286 0)
(0.247112 -0.293343 0)
(0.256345 -0.466157 0)
(0.369399 0.00161098 3.6308e-21)
(0.72148 -0.262996 -7.93262e-21)
(0.437612 -0.117311 0)
(0.596493 -0.312455 6.664e-23)
(0.330527 -0.351947 7.50635e-22)
(0.417469 -0.208932 1.55082e-21)
(0.427048 -0.314009 1.42869e-20)
(0.51157 -0.250905 0)
(0.712789 -0.453191 -4.44594e-21)
(0.516421 -0.00844583 2.08033e-21)
(0.167526 -0.373393 0)
(0.27164 -0.377793 -1.61766e-20)
(0.660303 -0.344313 -5.53502e-22)
(0.454637 -0.0583437 9.80104e-21)
(0.424341 0.0333538 0)
(0.444415 0.0638928 -5.8574e-21)
(0.197814 -0.465115 2.25061e-21)
(0.196903 -0.463303 -1.8995e-21)
(0.76845 -0.332638 -1.94881e-21)
(0.814174 -0.335289 -1.94882e-21)
(0.490906 -0.148669 0)
(0.540855 -0.366806 1.62457e-20)
(0.318399 -0.290876 -1.37969e-21)
(0.565114 -0.378369 -4.72175e-23)
(0.496279 -0.10758 0)
(0.276528 -0.28698 5.39193e-21)
(0.453787 -0.180659 4.87492e-22)
(0.50312 -0.314649 1.90562e-21)
(0.357256 -0.287683 1.74203e-21)
(0.751151 -0.454562 1.18261e-20)
(0.519077 0.0228436 -6.61246e-21)
(0.727962 -0.484759 1.61215e-20)
(0.141016 -0.385925 -2.10749e-21)
(0.526235 0.0055447 -6.61876e-21)
(0.122314 -0.383456 0)
(0.440441 -0.107615 0)
(0.603888 -0.332081 0)
(0.301851 -0.362368 -4.76237e-21)
(0.497717 0.00445173 -7.54172e-21)
(0.51342 0.00976148 -8.54862e-21)
(0.715039 -0.425161 4.8176e-21)
(0.748795 -0.454835 -4.14108e-21)
(0.161131 -0.376431 5.80829e-21)
(0.155366 -0.405236 9.0222e-21)
(0.509862 -0.112363 0)
(0.566464 -0.385585 -2.02097e-20)
(0.28577 -0.279059 4.52698e-21)
(0.45198 -0.138052 -4.45616e-21)
(0.546064 -0.321253 8.47527e-21)
(0.329195 -0.316889 0)
(0.385572 0.0289256 0)
(0.230814 -0.469872 3.55015e-22)
(0.752768 -0.276461 -1.37546e-21)
(0.473747 -0.131244 6.46561e-21)
(0.549533 -0.339129 0)
(0.320267 -0.290459 -1.13185e-20)
(0.468474 -0.17053 3.34764e-21)
(0.527155 -0.322605 1.90562e-21)
(0.357817 -0.290393 6.23983e-21)
(0.423383 0.0379754 0)
(0.218512 -0.471961 0)
(0.783168 -0.319525 -1.69272e-21)
(0.422647 -0.109678 0)
(0.595383 -0.292244 4.25652e-22)
(0.332702 -0.350527 -5.17614e-21)
(0.516646 -0.462866 0)
(0.567298 -0.125538 0)
(0.251846 -0.213397 2.17331e-22)
(0.314652 -0.140407 1.12628e-22)
(0.598046 -0.186905 0)
(0.420903 -0.435351 7.94107e-21)
(0.599405 -0.471247 -2.83655e-21)
(0.211156 -0.272197 0)
(0.546455 -0.0780336 0)
(0.0531549 -0.538148 9.12225e-22)
(1.03461 -0.491893 -1.23723e-21)
(0.559997 0.190434 1.55946e-21)
(0.467923 -0.128357 0)
(0.580853 -0.331084 -2.17735e-21)
(0.33109 -0.324363 0)
(0.412095 0.00924901 4.27992e-21)
(0.246709 -0.44564 3.45431e-21)
(0.738762 -0.297374 -9.63898e-21)
(0.447173 -0.462676 0)
(0.595782 -0.169213 -3.9313e-21)
(0.28818 -0.157138 0)
(0.48325 0.144831 0)
(0.145893 -0.531561 -1.02966e-20)
(0.955954 -0.374272 0)
(0.353998 -0.24617 -5.72936e-22)
(0.328321 -0.231828 -1.62532e-21)
(0.489833 -0.362643 0)
(0.513733 -0.191013 5.21279e-21)
(0.473596 -0.372326 -3.48956e-21)
(0.513594 -0.181165 -3.46775e-22)
(0.468462 -0.192911 2.06193e-21)
(0.500923 -0.327984 1.99905e-21)
(0.364548 -0.284936 0)
(0.34657 -0.223763 -5.55707e-21)
(0.356444 -0.222196 0)
(0.458815 -0.373465 0)
(0.522567 -0.201532 0)
(0.468793 -0.347454 6.7101e-21)
(0.513962 -0.190911 1.2484e-20)
(0.460166 -0.138441 9.86334e-23)
(0.547289 -0.325874 3.15148e-21)
(0.339968 -0.306175 2.05547e-21)
(0.460615 -0.15451 1.91081e-21)
(0.537577 -0.339234 0)
(0.328834 -0.305001 0)
(0.124667 -0.392678 0)
(0.768148 -0.496047 0)
(0.545016 0.0238803 5.39146e-21)
(0.357297 -0.164877 1.12921e-21)
(0.555268 -0.219682 0)
(0.406091 -0.376279 3.14281e-21)
(0.495867 -0.00852654 -1.41869e-20)
(0.723429 -0.421791 8.95868e-21)
(0.188266 -0.39772 2.6658e-21)
(0.459643 -0.0918741 0)
(0.471939 -0.083508 1.79857e-21)
(0.599104 -0.354306 -1.86816e-21)
(0.622535 -0.365619 9.56111e-21)
(0.273031 -0.336381 -2.07195e-21)
(0.273701 -0.345434 -5.9545e-21)
(0.375788 -0.175594 0)
(0.555247 -0.232614 0)
(0.414226 -0.3716 -1.23399e-21)
(0.35143 -0.111236 6.34982e-21)
(0.615295 -0.226253 0)
(0.373131 -0.420813 3.26715e-21)
(0.454199 -0.102573 2.1111e-21)
(0.586332 -0.340142 0)
(0.289255 -0.331045 2.22017e-21)
(0.421242 -0.230045 -1.02417e-21)
(0.494041 -0.254441 3.03067e-21)
(0.436624 -0.307255 7.87962e-21)
(0.488739 -0.0908731 0)
(0.60913 -0.389924 0)
(0.262785 -0.328891 4.12683e-21)
(0.396515 -0.200599 0)
(0.425758 -0.334285 -9.23733e-22)
(0.522848 -0.239397 0)
(0.490264 -0.123511 -5.07321e-21)
(0.563553 -0.378625 9.19571e-21)
(0.289535 -0.302863 -4.96464e-22)
(0.36065 -0.123718 1.46761e-21)
(0.608666 -0.241465 2.15559e-21)
(0.371215 -0.42103 0)
(0.404222 -0.223991 -1.02417e-21)
(0.403401 -0.222044 1.01201e-21)
(0.492696 -0.247122 2.98078e-21)
(0.427415 -0.315098 7.00693e-21)
(0.505305 -0.230467 0)
(0.448373 -0.317719 -3.58432e-21)
(0.370984 -0.222799 -1.48381e-21)
(0.445481 -0.340401 4.60254e-21)
(0.372239 -0.234758 -1.17124e-21)
(0.505043 -0.217108 0)
(0.464827 -0.349017 1.05383e-20)
(0.510658 -0.213029 7.27122e-21)
(0.384907 -0.158049 1.83228e-21)
(0.384849 -0.14507 0)
(0.571258 -0.25203 6.8511e-21)
(0.56631 -0.254916 7.32556e-21)
(0.38984 -0.379679 -4.89696e-21)
(0.368721 -0.36761 -5.00835e-21)
(0.289594 -0.443634 0)
(0.678961 -0.288548 -2.7376e-21)
(0.391817 -0.0510512 5.2195e-21)
(0.251906 -0.210735 -3.40016e-21)
(0.558707 -0.130244 -8.75631e-22)
(0.501695 -0.453781 6.30075e-21)
(0.278548 -0.430311 -6.2976e-21)
(0.271673 -0.430737 0)
(0.691644 -0.286272 -2.73761e-21)
(0.678493 -0.314305 3.96053e-21)
(0.398909 -0.0319205 -3.32804e-21)
(0.410151 -0.0488726 -8.53297e-21)
(0.286474 -0.185959 0)
(0.457056 -0.441707 -3.14123e-21)
(0.568824 -0.166772 1.47117e-20)
(0.423842 -0.241472 -1.08951e-20)
(0.426168 -0.286716 0)
(0.463989 -0.261295 2.1357e-21)
(0.471889 -0.0776406 1.58401e-21)
(0.611693 -0.372003 8.55095e-21)
(0.252068 -0.333191 0)
(0.362966 -0.185334 0)
(0.414454 -0.373395 -1.21428e-21)
(0.543077 -0.227504 -1.9101e-20)
(0.365509 -0.109369 0)
(0.609097 -0.241379 0)
(0.357825 -0.405786 7.4432e-22)
(0.366771 -0.0574554 0)
(0.385721 -0.0721029 0)
(0.656533 -0.253847 2.31962e-21)
(0.307253 -0.432109 6.99819e-21)
(0.653505 -0.276237 -8.74181e-22)
(0.312431 -0.429986 4.48231e-21)
(0.444213 -0.088081 -2.63774e-21)
(0.607095 -0.330972 1.38692e-22)
(0.284799 -0.347582 -2.92702e-21)
(0.45594 0.13367 -5.31928e-21)
(0.904994 -0.334785 0)
(0.149845 -0.502601 3.54506e-21)
(0.450673 -0.448415 0)
(0.586316 -0.160141 -3.07441e-21)
(0.281337 -0.159129 0)
(0.287406 -0.150309 -4.59278e-21)
(0.301422 -0.153883 2.37226e-21)
(0.42942 -0.454945 -2.28093e-21)
(0.591729 -0.172208 0)
(0.441398 -0.442676 0)
(0.592066 -0.17341 0)