/*--------------------------------*- C++ -*----------------------------------*\
  =========                 |
  \\      /  F ield         | OpenFOAM: The Open Source CFD Toolbox
   \\    /   O peration     | Website:  https://openfoam.org
    \\  /    A nd           | Version:  6
     \\/     M anipulation  |
\*---------------------------------------------------------------------------*/
FoamFile
{
    version     2.0;
    format      ascii;
    class       volVectorField;
    location    "0";
    object      Ulift0;
}
// * * * * * * * * * * * * * * * * * * * * * * * * * * * * * * * * * * * * * //

dimensions      [0 1 -1 0 0 0 0];

internalField   nonuniform List<vector> 
13046
(
(0.416974132882 -0.192073394958 0)
(0.534498918484 -0.26393875733 2.14012471436e-23)
(0.410603461669 -0.334104577754 -1.27610420499e-20)
(0.439099227472 -0.200671789731 0)
(0.382323535349 -0.2983967973 1.3062294436e-20)
(0.496798223448 -0.294574691842 0)
(0.453314550919 -0.187811333435 -1.57444267577e-21)
(0.52358192585 -0.303207263294 -3.19536241229e-21)
(0.383365515354 -0.303239830495 1.74201567249e-21)
(0.452322824329 0.0123875285575 5.09169134113e-21)
(0.738704928041 -0.353146071751 0)
(0.211265873368 -0.416266804354 8.70998743233e-23)
(0.430392520536 -0.165067246078 -2.08568910179e-21)
(0.554504195936 -0.30226012845 -2.7059415275e-21)
(0.364390753241 -0.347060733209 2.49857419216e-20)
(0.399917508391 -0.0113500866352 8.83876521984e-21)
(0.271492190124 -0.454746608839 -8.41172205843e-21)
(0.724261834736 -0.285686042984 -1.94224022253e-21)
(0.407565663809 -0.23945933511 0)
(0.461390861433 -0.308718336388 4.34262141186e-21)
(0.491876607898 -0.228608041571 -1.72804978087e-20)
(0.399392605707 -0.00688679909877 6.99324567926e-21)
(0.245955691209 -0.443753678356 -9.2745117956e-21)
(0.71341449828 -0.29371611704 6.39788674922e-22)
(0.422940123197 -0.217165914589 4.50949092299e-21)
(0.498574484817 -0.277087562257 -1.26708562546e-21)
(0.406831938283 -0.315280909633 0)
(0.405133662662 -0.150133756607 7.73053679427e-21)
(0.55658911469 -0.274053621385 3.89821094161e-21)
(0.359193956545 -0.349569681893 6.35977255357e-21)
(0.397080525466 -0.177439104858 0)
(0.53602049365 -0.250249180345 0)
(0.398750531404 -0.33929789703 -1.2761044884e-20)
(0.419412323549 -0.218260712689 3.92559807038e-21)
(0.41090595887 -0.29729158416 8.7269475743e-22)
(0.483370097294 -0.263027773793 -3.66128433017e-21)
(0.442028847526 -0.228749583531 -1.25322330793e-20)
(0.426155456035 -0.286566320518 0)
(0.48405425276 -0.270661815634 0)
(0.350080604191 -0.198233956828 2.38054372252e-21)
(0.435950502568 -0.381086546795 3.75100646138e-21)
(0.53997929874 -0.211423360874 -5.3824077261e-21)
(0.451365295499 -0.256737279653 -2.33722785996e-21)
(0.432462751665 -0.267753580262 7.88443106923e-21)
(0.451465301413 -0.278684059348 0)
(0.455621823641 -0.232031353533 -8.87714885492e-21)
(0.412342061893 -0.25100634325 0)
(0.451069138261 -0.278831185624 -1.60913609006e-21)
(0.414366053574 -0.181187876275 0)
(0.522362078362 -0.275445698513 -4.46615747678e-22)
(0.378878340198 -0.324691472841 9.44734442087e-21)
(0.46937507507 -0.414362274143 1.25157652447e-21)
(0.29263083546 -0.199970113741 0)
(0.547822017244 -0.159088912288 4.67893335887e-21)
(0.490399282647 -0.430325830386 9.49737614211e-21)
(0.551647806278 -0.157482035918 -8.73378796825e-21)
(0.290399297668 -0.217613800812 1.55487340635e-21)
(0.642309642809 -0.208387764752 -4.48940459089e-21)
(0.329062900537 -0.0754711890288 0)
(0.357915577913 -0.445718377015 -1.49242434096e-20)
(0.485363982502 -0.114332152226 -1.6724069812e-20)
(0.577071597969 -0.356912676701 9.1957087411e-21)
(0.302773547389 -0.303303269878 -1.98468784001e-20)
(0.256873685629 -0.386706510905 -1.25717173258e-20)
(0.66003523286 -0.330586714184 2.86889257645e-21)
(0.434140000628 -0.0470375117302 -6.53305064748e-22)
(0.32023321022 -0.102212427701 0)
(0.639041601106 -0.209066165783 6.05424989264e-21)
(0.377672644517 -0.467865880773 -2.9520372561e-21)
(0.322060806462 -0.101451107659 -2.28481954234e-21)
(0.626856004869 -0.199708070449 6.05428418248e-21)
(0.380431166178 -0.446970273881 -2.95204208216e-21)
(0.660043155991 -0.228578621595 -1.20341037315e-23)
(0.338194162962 -0.0736485378261 5.89279145544e-21)
(0.343598328075 -0.487995079766 -7.31411841538e-21)
(0.391759773373 -0.237860095956 0)
(0.450841795964 -0.323357492146 3.83937803784e-21)
(0.492049568557 -0.228991517027 -9.61637194948e-21)
(0.316289422572 -0.475053859851 -8.33357002453e-22)
(0.346015007416 -0.0655077661218 9.22326687933e-21)
(0.669371390813 -0.247410199499 -7.20596555957e-21)
(0.433415366709 -0.189570312939 -1.96222990691e-21)
(0.509221769551 -0.275360229386 2.39421326823e-21)
(0.39351764569 -0.298961380638 0)
(0.249682165595 -0.416653910454 1.58809102243e-21)
(0.684032391441 -0.353362121103 0)
(0.441869592136 -0.0447480976076 2.28211553259e-21)
(0.482808013181 -0.0575954375497 7.82550235773e-21)
(0.232915648669 -0.334626724558 0)
(0.635265372495 -0.384940207261 3.52272829911e-21)
(0.196464619864 -0.29867646189 0)
(0.541612956688 -0.0611877974605 0)
(0.630242911162 -0.470485111932 -5.25305716326e-22)
(0.419242900222 -0.11100339542 1.17299975341e-20)
(0.427078495297 -0.0876907847685 9.26969467514e-21)
(0.611744640469 -0.305354762632 -3.5327670476e-21)
(0.617590270162 -0.304173546857 5.69790051211e-21)
(0.327483913555 -0.384593239808 -4.93625492656e-21)
(0.307539328189 -0.361985223902 6.95352833249e-21)
(0.238346986372 -0.332989779605 4.21352360181e-22)
(0.500334222209 -0.0740696476402 7.82550355875e-21)
(0.628814657435 -0.412380262429 0)
(0.464610251501 -0.227555420334 -6.43082531112e-21)
(0.411224350152 -0.269143780731 0)
(0.475364104899 -0.294928204956 0)
(0.30709895757 -0.228845722405 -1.80561702592e-21)
(0.525108338186 -0.153822948227 4.83201263623e-21)
(0.497023436086 -0.385497297072 0)
(0.316072579809 -0.201686103402 1.97444120711e-21)
(0.460705859367 -0.393681413253 0)
(0.540199657968 -0.174801726763 4.84260292818e-21)
(0.486546426522 0.0764754779599 0)
(0.169225968095 -0.456268493424 -1.13201893756e-20)
(0.841882743657 -0.387965579326 8.73080664713e-21)
(0.425611748644 -0.166076588839 -1.55733331897e-21)
(0.53669317175 -0.277455982771 3.99471253155e-21)
(0.376811291266 -0.319578749406 1.3222627386e-20)
(0.400321859621 -0.0925816180445 2.65950103441e-21)
(0.403824015085 -0.0916103161745 2.65950569795e-21)
(0.632684374284 -0.292862631296 2.8001359381e-21)
(0.317075391245 -0.411215902474 -5.55522916295e-21)
(0.621139633706 -0.281519578699 -1.18231543032e-20)
(0.323815972234 -0.385140636507 -5.55522775058e-21)
(0.450055525199 0.0124105080899 -4.39330271662e-21)
(0.746704191663 -0.367326172607 1.12139104478e-20)
(0.195561428577 -0.442849701173 -3.18420543951e-21)
(0.413153026112 -0.131162924746 0)
(0.5882698436 -0.292667963716 8.21614063152e-21)
(0.347839108731 -0.373470176229 -2.10773751778e-20)
(0.359954493041 -0.180087448326 0)
(0.431272889715 -0.373437251875 2.36548533462e-21)
(0.552601034433 -0.211103649144 -1.27444036584e-20)
(0.198542256655 -0.2774251344 0)
(0.530855122457 -0.0660710884496 0)
(0.602143694198 -0.450380565136 0)
(0.456900972226 -0.0800750565619 0)
(0.635019446991 -0.345663178515 -9.20866537109e-21)
(0.28541663741 -0.363307977352 -1.25211333723e-20)
(0.392456110416 -0.177727784229 0)
(0.544189159707 -0.262556774276 0)
(0.387736827477 -0.361457553521 0)
(0.48370518079 -0.156124198782 0)
(0.538635743318 -0.341716667291 0)
(0.342506339469 -0.286793929323 0)
(0.317172392825 -0.211401070021 1.97444043173e-21)
(0.484248268744 -0.403937778417 0)
(0.548654066197 -0.168555603975 1.43136781774e-20)
(0.329560974107 -0.248846704656 -2.85797662386e-21)
(0.520411543572 -0.176537095745 -7.64839896742e-21)
(0.499267279044 -0.384754144122 -3.48955659355e-21)
(0.466940088268 -0.115174964334 -1.13837364898e-20)
(0.580523314228 -0.362305478585 0)
(0.288266245829 -0.331315046777 -1.97117662699e-20)
(0.35884047153 -0.266271078196 0)
(0.494533549461 -0.189525857493 1.79353406491e-20)
(0.501065386259 -0.347535204077 8.78252373802e-22)
(0.520719471328 -0.421207565966 -3.96965540101e-21)
(0.545541522657 -0.129760954128 1.27992321321e-20)
(0.524753819612 -0.43080340949 0)
(0.528806386322 -0.127649259802 1.07083312991e-20)
(0.276492679631 -0.226208016356 9.67645803491e-21)
(0.257111846617 -0.251747686157 9.67645781221e-21)
(0.492263728102 -0.161534837603 6.46323470842e-22)
(0.515523712853 -0.36740677478 -8.13620475687e-21)
(0.319675573685 -0.274161562441 -2.74731279471e-21)
(0.470601178559 -0.00681121435273 -2.23873069997e-21)
(0.203566818028 -0.418128504284 -1.8630316677e-21)
(0.727608835767 -0.390829558502 -2.33508983978e-21)
(0.454210111152 0.0398837399611 -5.90378433625e-21)
(0.170364164581 -0.459664113341 -1.46456579239e-21)
(0.78263034452 -0.375946240959 0)
(0.435486908631 -0.0710727280561 9.19804040187e-21)
(0.633147562359 -0.330839854054 0)
(0.271397687264 -0.37394920028 -1.21022064128e-20)
(0.339150135262 -0.169425257201 0)
(0.574955564049 -0.212168524547 -4.07322113129e-21)
(0.420980178511 -0.416353672079 7.31149049683e-21)
(0.50691100982 -0.160654702953 -7.00208041148e-21)
(0.332784336715 -0.248257331374 0)
(0.509011750097 -0.357439881702 0)
(0.192970055221 -0.374599650238 0)
(0.690896081337 -0.393008107522 0)
(0.477098533183 -0.0148059476382 -2.24194282185e-21)
(0.343202285871 -0.168789528869 0)
(0.56552539534 -0.200490528233 -8.12277852113e-21)
(0.430396806115 -0.391926373279 -1.51343930122e-21)
(0.335054531282 -0.254390848411 0)
(0.493845064073 -0.176273080148 0)
(0.490786648204 -0.354327806541 0)
(0.468941426603 -0.173211015963 3.65897206086e-21)
(0.512285645418 -0.337292590453 0)
(0.342254790422 -0.286121053406 0)
(0.564263394379 -0.298335714666 -1.48994365034e-20)
(0.344754518987 -0.331666250516 -6.54602193563e-22)
(0.428954032985 -0.132431089084 9.8162117851e-21)
(0.585662376939 -0.286968580924 0)
(0.359925199235 -0.356475342986 -2.64638643446e-20)
(0.472810105535 -0.0376314967076 -1.06506328938e-20)
(0.241284706698 -0.36650859469 1.11050910932e-20)
(0.675977003038 -0.368200541948 -1.90624949006e-20)
(0.229005563945 -0.296714697326 1.10756894635e-20)
(0.520012958736 -0.071825569924 5.6769954589e-21)
(0.613377247524 -0.426464441949 2.0248376574e-20)
(0.522539676954 -0.0444167196786 -2.12940064415e-20)
(0.652529775274 -0.434719414047 0)
(0.207258948615 -0.31611046303 3.43763912061e-21)
(0.470223669337 -0.442133050155 -7.82113638823e-21)
(0.579631973919 -0.149379170215 7.74064655374e-21)
(0.280942395771 -0.175618511827 8.97828633105e-21)
(0.44253830134 -0.159221598646 -2.69939888805e-21)
(0.344876375552 -0.0621263817653 4.46560943602e-21)
(0.338763468414 -0.479580642403 7.41719748111e-22)
(0.685924553081 -0.22862752994 -1.20340764876e-23)
(0.657623109226 -0.443021566295 0)
(0.517287609097 -0.0445572991807 6.47569791531e-21)
(0.194678031441 -0.339309497659 0)
(0.439921024317 -0.219042930536 1.14250171257e-20)
(0.400588648997 -0.278382007892 0)
(0.472663799122 -0.281007813672 1.49326557392e-21)
(0.406858041426 -0.157093963205 0)
(0.566535973654 -0.264478034423 4.74457104437e-22)
(0.385757575029 -0.357230766021 -1.3260565903e-20)
(0.213710608632 -0.29556663609 -4.49175905335e-21)
(0.524976068366 -0.0821339470663 0)
(0.596381117197 -0.4513856073 2.02484060401e-20)
(0.445887985437 -0.15720837078 0)
(0.561625735245 -0.31142085208 -6.61697097383e-22)
(0.352416149891 -0.329087356646 0)
(0.17652260996 -0.428777811786 0)
(0.763697480088 -0.415787768952 -1.14625327428e-20)
(0.489143230822 0.0184292481461 0)
(0.265419379753 -0.199306635408 8.9782839043e-21)
(0.564082387928 -0.148499701648 0)
(0.476822846026 -0.455216660395 0)
(0.499907217924 -0.0660041310799 -2.12939772296e-20)
(0.612516428586 -0.422977379622 0)
(0.207553557627 -0.31732145001 1.3537690135e-20)
(0.507939849469 -0.142124487723 4.81600371524e-21)
(0.516904939578 -0.392321499947 -2.35261463768e-20)
(0.287715489072 -0.258846274129 7.85608796126e-21)
(0.399888245328 -0.117189306358 0)
(0.594569144565 -0.271386352376 8.7704302655e-21)
(0.346042895366 -0.373901686719 6.56932125118e-21)
(0.569039264371 -0.465186856507 -6.00503002095e-21)
(0.552180474083 -0.0970425913713 -9.82234839541e-21)
(0.227866517379 -0.254913180748 -1.4478321393e-21)
(0.543257177187 -0.110310861084 0)
(0.545686894775 -0.434422628226 -9.32475597968e-21)
(0.253484651553 -0.241884796603 1.04147489216e-22)
(0.150210062018 -0.407369848362 5.87970561322e-21)
(0.753424680896 -0.419703895139 0)
(0.490569230926 0.0273001180103 2.66855374715e-21)
(0.329334610705 -0.194175049763 3.28478926025e-22)
(0.460585264601 -0.408331124329 -1.93108421218e-20)
(0.561317845602 -0.187227143717 9.6306628621e-22)
(0.445885482805 0.106643666482 -7.88496225203e-23)
(0.180736738318 -0.485618433882 7.97378406607e-22)
(0.866588455313 -0.32746015655 0)
(0.383605461032 -0.257712441143 2.86452559934e-21)
(0.463165189808 -0.216598673939 -5.71618090365e-22)
(0.461033377953 -0.305931182858 1.13885111136e-21)
(0.490602514405 -0.134647717 -8.90921583273e-21)
(0.508009912682 -0.14235922263 7.06457026406e-21)
(0.536845882553 -0.369237525561 1.61038172193e-20)
(0.537030456806 -0.370963293408 -1.74895921709e-20)
(0.316472597504 -0.265643707928 -5.26433013254e-21)
(0.297559938401 -0.279438325445 -1.37967985802e-21)
(0.305497549352 -0.460598036113 -7.84467629549e-22)
(0.361652170029 -0.0291245639014 1.16426893575e-20)
(0.697882632278 -0.244037377337 0)
(0.398980799363 -0.139758986921 0)
(0.589559519327 -0.274016107826 0)
(0.365627377727 -0.386283134675 3.55389562186e-21)
(0.541129901315 -0.110593169941 3.73910632455e-21)
(0.556450527872 -0.448423316155 0)
(0.245622845338 -0.260914281244 0)
(0.421905639898 -0.0888848919277 -1.37465230845e-20)
(0.63102222814 -0.318575085408 0)
(0.297534945667 -0.394713619383 6.34285982842e-21)
(0.443447507661 -0.245314768602 7.91272805716e-21)
(0.462174519846 -0.255997394606 -3.82904844688e-21)
(0.443501363284 -0.266839652061 1.02491013669e-21)
(0.526779696994 -0.123754610923 1.11178194558e-20)
(0.544353153716 -0.400049290661 0)
(0.286234244062 -0.253024191169 -1.03511059961e-20)
(0.379003133301 -0.12254259281 0)
(0.593470037961 -0.253427187984 -4.13200382855e-21)
(0.358718669956 -0.388694812616 -6.44405091326e-21)
(0.4320401433 -0.153976595707 -1.07342906686e-20)
(0.459636206919 -0.130747036532 -1.1043305831e-20)
(0.30821913677 -0.18080590388 -1.84379101866e-21)
(0.450308516169 -0.413717021206 -8.05746408211e-21)
(0.561843306922 -0.1743709294 1.46053255929e-20)
(0.514234978442 -0.121568772503 1.14405197995e-20)
(0.548562398285 -0.411541791366 -1.85731811935e-20)
(0.265817326081 -0.27745618852 -1.12160639874e-20)
(0.433499310629 -0.0660722118745 -6.15750689797e-21)
(0.285347673913 -0.37598943724 -4.44387702828e-21)
(0.643362453679 -0.317915220884 3.88405875976e-21)
(0.332878651076 -0.217503058535 6.01996533923e-21)
(0.45945643219 -0.394056711478 0)
(0.535198053895 -0.196016006559 -7.6693166915e-21)
(0.260600637579 -0.225245402291 1.02608667424e-20)
(0.546669933495 -0.132019547606 -5.43774384906e-21)
(0.509050457992 -0.438860429963 0)
(0.367418284714 -0.0989424865284 -1.26980711282e-21)
(0.61784585941 -0.249911523978 6.59538679919e-21)
(0.339513050118 -0.412493852194 1.94019599e-21)
(0.30757434375 -0.190235518753 -5.41814001686e-22)
(0.470055299332 -0.42699255988 0)
(0.570028372242 -0.170363141517 1.49382888336e-20)
(0.379900200723 -0.0895203643186 0)
(0.381764753828 -0.0736764293933 0)
(0.647665016521 -0.262538596338 -8.82352909229e-21)
(0.341888189585 -0.431702732268 1.32392111039e-20)
(0.640221515541 -0.265743079038 -6.73862216118e-21)
(0.315097592327 -0.411726133037 1.32519254784e-21)
(0.219791608664 -0.387487668049 -6.03719141609e-21)
(0.698450124618 -0.38784908311 0)
(0.477841997189 -0.0246071260435 -4.3040874899e-21)
(0.393908779451 -0.11848091769 0)
(0.606096498106 -0.284102695018 -2.59247701035e-21)
(0.337245303052 -0.401290799228 -3.00736700874e-21)
(0.902031073092 -0.393947077175 -1.83155107501e-20)
(0.123606308544 -0.479840505988 5.18247981506e-21)
(0.493107618359 0.121676310943 -9.91416181582e-21)
(0.484263279369 -0.199988611017 1.17028173067e-20)
(0.357084720835 -0.259965233407 0)
(0.477195541475 -0.341388133429 -2.86751554925e-21)
(0.468829756379 -0.131626535671 -1.16508467661e-20)
(0.558002460945 -0.352259907683 0)
(0.306725820437 -0.316830977025 -8.53260869021e-21)
(0.24276579291 -0.370252363202 -4.0238154949e-21)
(0.455087738338 -0.0599842022659 -4.919128555e-21)
(0.641717399838 -0.363136345213 7.82410049464e-21)
(0.489803043585 -0.430475328483 -5.78020631812e-22)
(0.557283516233 -0.13775286183 0)
(0.272410927654 -0.199023826909 1.5548787644e-21)
(0.56840272266 -0.458567827695 1.69365076068e-20)
(0.533123178458 -0.088357685439 -6.47865245746e-21)
(0.210490373131 -0.267307324898 0)
(0.544814922845 -0.293181277949 5.72877740292e-21)
(0.35896318267 -0.308110939274 0)
(0.438443015363 -0.127971384104 -1.14375980699e-20)
(0.578890150173 -0.325954504759 3.1698072215e-21)
(0.31420314823 -0.345181491132 2.69120313133e-21)
(0.5280970345 -0.325416401387 1.32451643793e-22)
(0.341456885611 -0.308902132042 8.29529985152e-21)
(0.381318879804 -0.0312717477208 8.11883332639e-21)
(0.268783698089 -0.445868509031 -2.193608551e-21)
(0.686784069812 -0.278455872292 -1.94224531533e-21)
(0.463622773607 -0.464227806613 -7.82112510226e-21)
(0.589330908011 -0.159646566805 8.56891595923e-22)
(0.274534418933 -0.177142013713 0)
(0.454485535388 -0.107997064522 -1.14375921033e-20)
(0.602545513758 -0.329602417868 3.16979270522e-21)
(0.313506804109 -0.343388412066 -3.83582674012e-21)
(0.48363957166 -0.152538838275 0)
(0.519777430253 -0.353476028995 -7.99429146429e-21)
(0.319067787834 -0.274302328601 0)
(0.532181893552 -0.16489253197 7.36044725973e-21)
(0.485458730899 -0.407786321647 0)
(0.300909585412 -0.229124002127 0)
(0.43077439873 -0.190234689189 -1.96223020823e-21)
(0.522122379377 -0.288663003576 -7.45125075316e-21)
(0.387565728513 -0.319883528022 7.59316168759e-21)
(0.269997392695 -0.217200917309 1.00017971889e-20)
(0.559880607064 -0.136680421944 1.5556746404e-21)
(0.510447151281 -0.446350599528 8.51073125619e-21)
(0.484447774968 -0.0574739205012 1.19176970758e-20)
(0.652265292827 -0.409928508149 -1.95671698541e-20)
(0.217443771817 -0.366672072296 1.55920699281e-22)
(0.587760813498 -0.436775476905 1.97730369682e-20)
(0.53103497566 -0.0820763183185 -6.4786473522e-21)
(0.227675792638 -0.270839430896 -5.71241630228e-21)
(0.313777464577 -0.118464969766 -8.77984759899e-21)
(0.400952015827 -0.448214099123 -1.19720304631e-20)
(0.615622811505 -0.192029784424 0)
(0.366448509172 -0.0685431628475 -9.4486115872e-23)
(0.3538636775 -0.0780519395001 -2.44809610209e-21)
(0.644845444159 -0.236702554773 -2.08491202417e-21)
(0.669212518631 -0.247008255869 -7.20596379732e-21)
(0.336210465408 -0.449965195971 1.88534925201e-21)
(0.334606162867 -0.437037424783 9.3432777039e-21)
(0.150299735477 -0.502429323575 1.13089093071e-20)
(0.894819422465 -0.396537147579 -1.83154916628e-20)
(0.490198172623 0.105572833478 3.70615799932e-21)
(0.418069003125 0.0633528252045 4.63932952958e-23)
(0.182616694268 -0.489263683506 0)
(0.807745898782 -0.324662139652 0)
(0.505029505396 -0.126068747361 -9.93388728447e-21)
(0.566132578528 -0.385646027484 -1.63655271345e-21)
(0.297735885331 -0.29302991049 0)
(0.221190134688 -0.396692670035 8.01580790681e-21)
(0.462382406873 -0.0369654352253 -4.27895363978e-21)
(0.682646553164 -0.38166820796 0)
(0.338737273235 -0.114062935015 -9.5555292688e-21)
(0.349958136213 -0.0930490514368 -9.4373468814e-21)
(0.615003291178 -0.225935927138 -8.48304261257e-21)
(0.624653921306 -0.225615784538 4.47647497592e-21)
(0.367272569241 -0.439448770442 1.94985709265e-21)
(0.356772071162 -0.422582678395 3.42053436046e-21)
(0.163201354689 -0.351074013378 0)
(0.676114302343 -0.47105926957 0)
(0.525266843659 -0.0319132185649 6.45461127045e-22)
(0.450765052797 0.107876124767 -7.8853206562e-23)
(0.170718911134 -0.520967128523 7.2713502411e-21)
(0.881435645797 -0.342739571398 0)
(0.477416725551 -0.245739256303 -7.04262765039e-21)
(0.407347533746 -0.238852367595 1.13795719003e-21)
(0.436498438754 -0.304253611204 1.50730805861e-21)
(0.458307107757 0.0808305458257 5.88379419749e-21)
(0.835869135036 -0.372488904383 8.7308042591e-21)
(0.147654142387 -0.483129506421 -1.05228052363e-20)
(0.34633023401 -0.149526307816 -3.1492612127e-21)
(0.576983691434 -0.211803562492 7.71287978241e-21)
(0.405300307247 -0.397769430982 1.37417949016e-20)
(0.500554881309 -0.0317618184975 4.13769933462e-21)
(0.687557136037 -0.425522992944 1.3748817232e-20)
(0.20088075876 -0.371054295473 1.95681306843e-21)
(0.901019933888 -0.467120643082 -4.13104696563e-22)
(0.0898287379347 -0.462608031519 4.13243023834e-21)
(0.537739913818 0.11590391125 -5.80619805489e-21)
(0.359111135724 -0.198663831836 -5.55706954273e-21)
(0.449708119546 -0.359678812603 2.98864404564e-22)
(0.534508785094 -0.200811990069 1.00364919248e-20)
(0.469978684564 -0.214127286126 0)
(0.47892049904 -0.320973229967 5.99623526821e-21)
(0.380904773527 -0.272936491649 6.56198297419e-21)
(0.432372248981 0.0335504040355 -9.5726913095e-21)
(0.211467822202 -0.440070525518 -4.98671213862e-22)
(0.762784376589 -0.323356038185 1.96979176168e-20)
(0.479832538437 -0.190393164067 0)
(0.492826359584 -0.319154300115 1.99905409473e-21)
(0.371989598125 -0.261297560018 3.69746040193e-21)
(0.477759215654 -0.247710218214 6.93703805856e-21)
(0.424830678089 -0.245264685631 1.13795055673e-21)
(0.449734107379 -0.29320279209 -1.60913755864e-21)
(0.265406554054 -0.199240329361 -4.38775029342e-21)
(0.577380238451 -0.136888366128 -8.75641274899e-22)
(0.503643766001 -0.464385506422 6.07522264268e-21)
(0.49993651766 -0.205771846296 0)
(0.45890386106 -0.321755362152 0)
(0.379290794357 -0.223635456901 -3.92477056846e-22)
(0.503627407988 -0.203598837471 -1.46162392717e-21)
(0.473102722296 -0.329791718711 3.82823168428e-21)
(0.379379050041 -0.233917911729 -7.99109788166e-23)
(0.29827892594 -0.140021215934 -5.13626474274e-21)
(0.599992410278 -0.19046572597 1.48087205736e-20)
(0.406107751649 -0.459637161979 7.3301838022e-21)
(0.241165623924 -0.425605148933 7.08361283038e-21)
(0.214350435434 -0.422143005436 6.37260180593e-21)
(0.72578571909 -0.323932914342 -5.36481600769e-21)
(0.704533831559 -0.351772905487 4.36866898462e-21)
(0.430670919011 -0.0010147989777 -1.07630181616e-20)
(0.435909567829 -0.0135739030746 -5.67131533293e-21)
(0.500822296558 -0.0317101376284 1.27763426411e-20)
(0.67483461141 -0.4108894292 4.5422821771e-21)
(0.208373336031 -0.349292396117 0)
(0.395375443465 -0.465130819053 -7.06234066643e-21)
(0.315846092333 -0.118032211859 -2.28481952666e-21)
(0.623045594892 -0.20034310778 0)
(0.3282805987 -0.190202818586 0)
(0.434824011442 -0.401364292562 -3.7124295308e-21)
(0.549374633734 -0.199114755873 5.66849859572e-21)
(0.54730665768 -0.117071748921 0)
(0.532039430594 -0.458959623867 -9.32475178366e-21)
(0.237773696144 -0.242136274563 1.04147473248e-22)
(0.81984521107 -0.512475618448 1.07086667674e-21)
(0.106887374053 -0.426669718833 0)
(0.551058068541 0.0486773356929 -1.2200801622e-20)
(0.17961460321 -0.308884450873 0)
(0.524573865773 -0.0518246504208 0)
(0.629969595543 -0.457558312037 1.14992071371e-22)
(0.466747094604 0.0409349549264 5.1793952493e-21)
(0.186098095816 -0.426236816362 0)
(0.776762479546 -0.367501733091 -1.14625331616e-20)
(0.0595377736695 -0.519234256194 -5.12004506704e-32)
(0.944313339304 -0.536791781761 1.47206908765e-20)
(0.567107466797 0.116856028524 7.28117946053e-21)
(1.01635755157 -0.41200437519 1.40788773925e-20)
(0.1112801595 -0.519233467852 -5.12003729338e-32)
(0.527833498289 0.184880953765 7.44790272186e-21)
(0.583784575151 -0.390938115361 2.05045087408e-21)
(0.496287927522 -0.107575225582 0)
(0.275091434243 -0.307783472238 -3.80538963284e-21)
(0.726646598445 -0.47720985315 -8.76649707721e-21)
(0.146893121868 -0.36291451851 0)
(0.537296311322 0.00149432447625 0)
(0.45578356731 -0.0755896915915 1.79857344464e-21)
(0.622031081994 -0.358198157408 -9.12714151864e-21)
(0.258567372831 -0.355600615751 -5.95450615027e-21)
(0.385168129481 0.0123726808185 8.36306757769e-21)
(0.257870357465 -0.486385266692 7.45601565672e-21)
(0.751224510531 -0.277302679721 0)
(0.440135037947 -0.176583356293 4.00552742428e-22)
(0.371735453782 -0.320967856955 -2.76279444839e-21)
(0.531657428947 -0.296660058346 9.72348534224e-21)
(0.655088325477 -0.443111806529 0)
(0.178918062666 -0.314133435768 -4.83406439015e-21)
(0.523909565426 -0.032078840734 7.121161115e-21)
(0.557908955749 -0.117107876606 -6.99341584783e-21)
(0.255119190436 -0.212327884444 1.02933108173e-21)
(0.521394424679 -0.440376925054 0)
(0.560901998793 -0.420596913949 0)
(0.52479397236 -0.0973231382004 0)
(0.243781959053 -0.261618057989 1.41048305956e-21)
(0.0531543264254 -0.685775042839 0)
(1.39333885478 -0.698999612774 -1.23722871393e-21)
(0.754865488387 0.302936803979 1.55946208798e-21)
(0.863246016468 -0.467989816383 8.29058451914e-21)
(0.100881035927 -0.480774496339 7.33169729593e-21)
(0.51875086239 0.0811963280998 -1.86952811501e-20)
(0.430561946547 -0.182179415728 5.0762483218e-21)
(0.372784943092 -0.31172338876 1.25669861467e-21)
(0.521416049002 -0.289088427324 -1.01999904313e-20)
(0.696413712556 -0.437571949937 -4.44594915701e-21)
(0.512939250681 -0.00946706204143 2.08032514509e-21)
(0.172894224663 -0.351281393779 0)
(0.160608201219 -0.34264451936 2.93316909564e-21)
(0.535674382336 -0.0207118000771 0)
(0.694006597102 -0.475154100091 -6.721405104e-21)
(0.450497183218 -0.0235427830165 2.58468484067e-21)
(0.232389804344 -0.394408901088 5.85272793356e-22)
(0.692493440303 -0.352193884326 -4.02682560793e-21)
(0.287720352242 -0.44385698976 -3.43592526486e-21)
(0.687085162638 -0.269558067856 -6.19121679207e-21)
(0.379801155848 -0.0350109388215 0)
(0.298448897346 -0.14077812526 -9.26127650734e-22)
(0.612122771288 -0.179310671982 1.48087420754e-20)
(0.431851959163 -0.467701935951 -6.39772786311e-21)
(0.638620131716 -0.239219721452 -4.48940375186e-21)
(0.351833967483 -0.0925202089116 5.31800531068e-23)
(0.350041182855 -0.449089850317 -1.4924256212e-20)
(0.2798852499 -0.459243060583 4.09430525512e-21)
(0.354901620062 -0.020723376681 0)
(0.691890183568 -0.245997715052 3.09344470373e-21)
(0.366065142423 -0.143256377625 -2.62713507458e-21)
(0.379264153831 -0.137101560538 0)
(0.573893313863 -0.23359180443 3.73590848237e-21)
(0.59817709792 -0.25059544663 3.73591778417e-21)
(0.383654244881 -0.382160992101 -6.74313880126e-21)
(0.381956547592 -0.401560400391 0)
(0.361879456383 -0.163183102447 -2.00220100149e-21)
(0.572543611779 -0.234034626028 0)
(0.402231116259 -0.398808527699 1.00106631912e-20)
(0.334894681006 -0.104855058327 0)
(0.628993949345 -0.207604938074 -8.64023487384e-21)
(0.38557105003 -0.44180911734 -1.31728134379e-21)
(0.575805921928 -0.437346844024 9.75708431998e-21)
(0.522985555758 -0.0976966747087 5.62822054219e-21)
(0.23628640073 -0.284231406119 -1.45467358371e-21)
(0.661199502479 -0.421939539588 0)
(0.500678145554 -0.0308043914814 -3.98044329983e-22)
(0.18840936988 -0.341638470493 0)
(0.229298113092 -0.297797614314 -1.58765378428e-21)
(0.504044947176 -0.0878318077595 5.49257577618e-21)
(0.583699259691 -0.418549708043 -2.94880155618e-21)
(0.915741076991 -0.408741588455 -6.41800882206e-22)
(0.111373930153 -0.519407120168 -4.82979283646e-21)
(0.487809533194 0.120470308859 0)
(0.38241015991 -0.18780369944 5.72640323807e-21)
(0.390679162654 -0.20017131766 0)
(0.430413564877 -0.352397521436 1.28719806808e-21)
(0.542148921497 -0.225292212663 4.69274333463e-21)
(0.412660517796 -0.353566224213 1.28719747263e-21)
(0.528965563685 -0.252044276931 1.5880671314e-20)
(0.339479913645 -0.127959830559 0)
(0.325737083138 -0.136137759883 -1.15419010965e-21)
(0.401293547935 -0.423951874372 8.69201897663e-21)
(0.612677947692 -0.210525122246 1.56734758918e-21)
(0.401412855189 -0.432980149758 1.59969682746e-20)
(0.59416994433 -0.20016279524 7.15940797737e-21)
(0.886549987129 -0.529986839651 0)
(0.0854445202481 -0.463951664205 1.48475996493e-21)
(0.572586283427 0.0834530573962 0)
(0.674185841868 -0.437401853602 1.05001027418e-20)
(0.500368967716 -0.0308587944926 2.88100551121e-21)
(0.180213952116 -0.364186349132 1.95681100922e-21)
(0.306132234174 -0.181247029278 -1.63045364411e-21)
(0.443462754274 -0.434699550794 7.54094354508e-21)
(0.571063754964 -0.184636189534 1.27408360067e-22)
(0.54525876525 -0.451624085144 3.31069475404e-21)
(0.543207135311 -0.102286168508 -6.08323855993e-21)
(0.227807621114 -0.243686033878 0)
(0.30556080044 -0.460597703479 -3.38700544326e-21)
(0.682472278772 -0.270950920787 -6.19119739022e-21)
(0.37557681419 -0.0530446809749 0)
(0.795397567885 -0.436302195101 0)
(0.494434409262 0.0491823037466 0)
(0.125086018538 -0.445361162457 0)
(0.796340142217 -0.439763414852 0)
(0.514365475985 0.0439292541796 7.01007699021e-21)
(0.151217566048 -0.419015005294 0)
(0.366516434541 -0.10900544991 -3.65285923416e-21)
(0.618723124311 -0.249504817683 1.10718606799e-20)
(0.354704692599 -0.423178031564 3.42053612628e-21)
(0.342879590711 -0.218124934394 6.65518672501e-22)
(0.473668819784 -0.372632459876 0)
(0.530312419769 -0.186191971012 -3.46764878448e-22)
(0.455791454892 -0.0214013687137 2.58467911507e-21)
(0.230278826652 -0.409467081581 5.41492058581e-21)
(0.706197873323 -0.362892811404 3.41818879018e-22)
(0.583054494773 -0.391198286756 0)
(0.498946580948 -0.0929934772239 0)
(0.257356482549 -0.292724823856 1.53351451686e-21)
(0.275217573648 -0.404073265571 -8.46966136018e-21)
(0.655257334406 -0.332008160837 7.30645400354e-21)
(0.429420014098 -0.0668034266444 4.22017606051e-21)
(0.323812510748 -0.150842220642 -1.15419383705e-21)
(0.417146332805 -0.436099971196 2.92915931784e-21)
(0.5934501155 -0.200463316016 5.59209826657e-21)
(0.531475990991 -0.150943838602 9.77511425549e-21)
(0.518313984145 -0.400777312114 -6.03655332665e-21)
(0.305581985476 -0.244139860704 1.03730942731e-20)
(0.345727502289 -0.191922222801 7.73498956749e-21)
(0.450176176571 -0.379944609398 1.40523957654e-21)
(0.547642908237 -0.195292105638 5.66849778175e-21)
(0.207929553393 -0.394080589189 -1.07013501319e-20)
(0.698800829522 -0.36641349283 -2.33508625526e-21)
(0.456550883898 -0.0118470903948 -2.23873243102e-21)