/*--------------------------------*- C++ -*----------------------------------*\
  =========                 |
  \\      /  F ield         | OpenFOAM: The Open Source CFD Toolbox
   \\    /   O peration     | Website:  https://openfoam.org
    \\  /    A nd           | Version:  6
     \\/     M anipulation  |
\*---------------------------------------------------------------------------*/
FoamFile
{
    version     2.0;
    format      ascii;
    class       volVectorField;
    location    "0";
    object      Ulift1;
}
// * * * * * * * * * * * * * * * * * * * * * * * * * * * * * * * * * * * * * //

dimensions      [0 1 -1 0 0 0 0];

internalField   nonuniform List<vector> 
13046
(
(0.502568 0.33181 0)
(0.482043 0.195084 -5.25071e-21)
(0.370307 0.276895 2.84638e-21)
(0.504847 0.281189 0)
(0.391144 0.290271 4.92487e-21)
(0.441816 0.190352 0)
(0.523944 0.298466 -1.70478e-21)
(0.445359 0.18921 -3.17739e-21)
(0.386233 0.313113 -1.26495e-20)
(0.714481 0.396221 5.31489e-21)
(0.471101 0.00724869 0)
(0.189669 0.409236 -4.85385e-21)
(0.548383 0.323563 -1.51142e-20)
(0.470264 0.15333 2.6518e-21)
(0.353462 0.301839 8.33392e-21)
(0.665709 0.448172 6.17229e-22)
(0.193617 0.345884 1.06863e-20)
(0.518611 0.0455039 1.93697e-21)
(0.444694 0.320072 0)
(0.405518 0.241909 8.35451e-22)
(0.490474 0.246249 -6.50165e-21)
(0.668622 0.423406 8.40563e-21)
(0.185351 0.349442 6.59584e-21)
(0.49924 0.0311638 -3.46046e-22)
(0.492211 0.295531 -1.84858e-21)
(0.467565 0.201395 -1.34524e-20)
(0.396403 0.267808 0)
(0.534055 0.332034 -1.37033e-20)
(0.469884 0.148193 3.10139e-21)
(0.324704 0.287954 6.7364e-21)
(0.494506 0.337741 0)
(0.480502 0.181216 0)
(0.346389 0.266416 2.84639e-21)
(0.471175 0.289003 1.06311e-20)
(0.395311 0.262988 -2.62938e-21)
(0.455752 0.212319 -1.26124e-20)
(0.475001 0.287229 1.14789e-20)
(0.415932 0.277492 0)
(0.454004 0.231828 0)
(0.467455 0.372755 8.08326e-21)
(0.341019 0.213777 4.82485e-21)
(0.530765 0.187777 -7.41209e-21)
(0.463743 0.256806 -3.56211e-21)
(0.446081 0.269433 3.03931e-21)
(0.443993 0.247726 0)
(0.463187 0.253569 -2.52377e-21)
(0.427525 0.284879 0)
(0.41876 0.238428 -1.33798e-21)
(0.508284 0.307953 0)
(0.460308 0.174477 -3.87152e-22)
(0.358928 0.280272 4.96557e-21)
(0.314706 0.163081 -8.67882e-21)
(0.424904 0.416246 0)
(0.570617 0.188574 1.35412e-20)
(0.329168 0.1521 -5.1981e-21)
(0.591612 0.197395 -1.57344e-20)
(0.426031 0.425147 1.63119e-20)
(0.534961 0.107185 -3.51306e-21)
(0.542538 0.456538 0)
(0.220989 0.254458 3.98323e-21)
(0.59694 0.294226 -1.51991e-20)
(0.408034 0.124151 3.80505e-21)
(0.335219 0.384272 -6.54795e-23)
(0.240138 0.367533 5.16451e-21)
(0.457414 0.0548294 1.39366e-22)
(0.64539 0.363611 -5.92243e-21)
(0.543166 0.458454 0)
(0.558168 0.112004 1.16218e-20)
(0.240711 0.232345 -1.41109e-21)
(0.525654 0.451213 -2.2623e-21)
(0.544583 0.122433 1.16218e-20)
(0.241135 0.235589 -1.41106e-21)
(0.555485 0.0838162 4.49334e-24)
(0.596055 0.467223 1.33339e-20)
(0.223404 0.261588 5.948e-21)
(0.448862 0.31965 0)
(0.3967 0.229671 6.17333e-21)
(0.497694 0.230202 -1.48624e-20)
(0.218 0.273219 9.16521e-21)
(0.606227 0.444391 1.39227e-20)
(0.542147 0.0695063 -7.17987e-21)
(0.494464 0.301468 1.16373e-21)
(0.446777 0.198025 -8.39939e-22)
(0.377515 0.290958 0)
(0.241262 0.372216 -1.13549e-20)
(0.478485 0.0348319 0)
(0.683828 0.374995 -2.24103e-21)
(0.658443 0.304021 1.82278e-20)
(0.272032 0.414647 0)
(0.405918 0.0539607 2.72268e-22)
(0.305921 0.480736 0)
(0.699943 0.250032 0)
(0.359378 0.0333161 -3.04933e-22)
(0.592377 0.363181 1.20829e-20)
(0.590167 0.356609 1.49923e-20)
(0.482711 0.109049 -5.69767e-21)
(0.457567 0.103971 -1.53374e-22)
(0.298416 0.320148 -1.51472e-20)
(0.278656 0.342546 -1.06465e-20)
(0.299856 0.423033 4.8514e-22)
(0.671135 0.29209 1.82279e-20)
(0.406421 0.0560992 0)
(0.488505 0.266177 5.84586e-21)
(0.42831 0.29761 0)
(0.432511 0.229317 0)
(0.400857 0.398476 -3.05836e-20)
(0.566835 0.221921 4.25214e-22)
(0.34693 0.162102 0)
(0.43371 0.396962 3.22289e-21)
(0.327389 0.182636 0)
(0.552074 0.195011 -2.0346e-21)
(0.809507 0.442533 0)
(0.142455 0.459023 4.77998e-21)
(0.50198 -0.045529 6.11778e-21)
(0.514593 0.31643 -7.56228e-21)
(0.454494 0.175292 2.6778e-21)
(0.351744 0.298039 1.26132e-20)
(0.602857 0.38588 -2.85501e-21)
(0.579486 0.379395 -2.855e-21)
(0.497609 0.0905988 7.13093e-23)
(0.269798 0.310933 -2.48541e-21)
(0.481628 0.1063 -5.38673e-21)
(0.271128 0.316076 -2.48541e-21)
(0.745862 0.395906 -1.63774e-20)
(0.484609 -0.0166983 6.2459e-21)
(0.184696 0.400819 2.46003e-21)
(0.567188 0.355711 0)
(0.48275 0.130108 5.9443e-21)
(0.316589 0.304541 -7.42932e-21)
(0.472474 0.381978 0)
(0.330072 0.231676 5.44205e-21)
(0.520947 0.187529 -1.19647e-20)
(0.304869 0.46998 0)
(0.672254 0.237463 0)
(0.340533 0.0467988 0)
(0.63144 0.344783 0)
(0.450234 0.0842812 -7.26758e-21)
(0.285235 0.37366 3.39303e-21)
(0.516173 0.339094 0)
(0.491927 0.164003 0)
(0.344065 0.261739 0)
(0.562313 0.283456 0)
(0.412474 0.164162 0)
(0.37592 0.359555 0)
(0.431896 0.412989 3.2229e-21)
(0.336774 0.178547 0)
(0.568954 0.207483 6.62321e-21)
(0.419921 0.381501 -3.20965e-20)
(0.568637 0.23064 -1.57924e-20)
(0.374672 0.171286 8.60411e-21)
(0.610417 0.294843 -6.64565e-21)
(0.423734 0.0996215 0)
(0.325354 0.365223 -8.93282e-22)
(0.413833 0.348735 0)
(0.543605 0.254264 2.04829e-20)
(0.403495 0.187582 6.30452e-21)
(0.330764 0.136693 2.81585e-21)
(0.600617 0.216892 9.8555e-21)
(0.342816 0.108031 0)
(0.616941 0.214831 1.94897e-20)
(0.390789 0.438102 1.25956e-21)
(0.378818 0.422326 1.25958e-21)
(0.569726 0.24999 -7.29733e-22)
(0.391098 0.151025 -4.47159e-21)
(0.388164 0.36385 -6.65963e-21)
(0.738443 0.371053 1.3573e-21)
(0.213928 0.415102 -9.2425e-22)
(0.467481 -0.00504477 -4.04419e-21)
(0.779508 0.408586 -1.18733e-20)
(0.15741 0.414413 1.46351e-21)
(0.493116 -0.0437313 0)
(0.627763 0.346329 1.04406e-20)
(0.451948 0.0707167 0)
(0.263644 0.357272 3.87691e-21)
(0.495199 0.40483 0)
(0.545497 0.160796 -3.48e-21)
(0.310165 0.217916 -1.25223e-21)
(0.553041 0.248988 -1.65221e-20)
(0.394768 0.376901 0)
(0.375798 0.174442 0)
(0.221407 0.425515 0)
(0.425156 0.0052454 0)
(0.710394 0.330055 1.18705e-21)
(0.473074 0.401357 0)
(0.532764 0.176565 -5.78065e-21)
(0.311917 0.222458 6.03388e-22)
(0.403233 0.354029 0)
(0.544415 0.238677 0)
(0.382008 0.173382 0)
(0.54857 0.267552 3.24154e-21)
(0.411661 0.164298 0)
(0.384693 0.336053 0)
(0.449096 0.144818 -6.02822e-21)
(0.328493 0.321415 6.17482e-21)
(0.566041 0.355803 1.41085e-21)
(0.475649 0.145632 0)
(0.322123 0.312322 -4.9172e-21)
(0.673166 0.347762 -9.76237e-21)
(0.248917 0.411292 -7.35152e-22)
(0.437897 0.0479901 -1.04326e-20)
(0.309121 0.449933 -1.74837e-22)
(0.662782 0.26734 3.80068e-21)
(0.371676 0.0642384 7.34167e-21)
(0.693281 0.284224 -1.47911e-20)
(0.38041 0.0371057 0)
(0.278629 0.466249 1.03207e-20)
(0.288561 0.164252 -3.10999e-21)
(0.586155 0.174705 5.49745e-21)
(0.436999 0.453706 3.16676e-21)
(0.523487 0.29795 3.29992e-21)
(0.597626 0.469934 3.81125e-21)
(0.216551 0.273511 4.39159e-21)
(0.554759 0.0838182 4.49337e-24)
(0.393554 0.0156817 0)
(0.716257 0.284837 6.76507e-21)
(0.271583 0.453256 0)
(0.478848 0.269507 8.52599e-21)
(0.408051 0.280014 0)
(0.435316 0.214854 -4.6879e-21)
(0.528081 0.356154 0)
(0.486767 0.164447 4.15479e-22)
(0.3329 0.28559 1.08963e-20)
(0.322467 0.448932 -8.13311e-22)
(0.674375 0.243262 0)
(0.362383 0.0506119 7.34169e-21)
(0.562499 0.321405 0)
(0.450648 0.152519 -4.06389e-21)
(0.347681 0.327874 0)
(0.194965 0.440816 0)
(0.469657 -0.0337672 -6.26363e-21)
(0.781504 0.376555 0)
(0.430046 0.443097 3.16673e-21)
(0.6007 0.173882 0)
(0.301218 0.139153 0)
(0.672597 0.264496 -1.47911e-20)
(0.378205 0.0377535 0)
(0.287607 0.429265 7.33048e-21)
(0.587331 0.231476 -2.93596e-21)
(0.363164 0.131417 -9.86872e-21)
(0.379289 0.390899 4.691e-21)
(0.554912 0.368643 0)
(0.481961 0.127441 5.77301e-21)
(0.292917 0.298853 -1.53707e-20)
(0.334276 0.0806198 -7.70608e-21)
(0.657685 0.219618 -3.85461e-21)
(0.359304 0.470837 7.96086e-21)
(0.623817 0.223081 0)
(0.333959 0.109562 -3.23364e-21)
(0.368634 0.45002 -1.88067e-22)
(0.18077 0.452365 -4.72707e-21)
(0.440906 -0.0447283 0)
(0.776977 0.348393 -5.83395e-21)
(0.45896 0.411263 1.6073e-20)
(0.32751 0.197411 4.35977e-21)
(0.559478 0.190655 9.33815e-22)
(0.790088 0.501014 3.96047e-21)
(0.102572 0.432401 -7.43488e-22)
(0.532319 -0.0366862 0)
(0.419821 0.301124 2.44459e-21)
(0.491173 0.245955 1.12878e-20)
(0.409404 0.211576 -8.59736e-21)
(0.584535 0.258086 4.32083e-21)
(0.578551 0.260737 1.49323e-20)
(0.38524 0.130654 2.38778e-21)
(0.382916 0.152378 -4.7212e-21)
(0.377865 0.391235 -3.21612e-22)
(0.3598 0.378058 6.83773e-21)
(0.194099 0.305233 9.13297e-21)
(0.614644 0.463973 7.91552e-21)
(0.530196 0.0680939 0)
(0.554982 0.370378 0)
(0.499108 0.136442 0)
(0.312784 0.286292 -1.10896e-20)
(0.6433 0.225664 3.85801e-21)
(0.34639 0.0933928 0)
(0.367793 0.447984 0)
(0.619419 0.363365 -7.5956e-21)
(0.478047 0.0820128 0)
(0.275942 0.333671 1.34566e-20)
(0.449768 0.276965 1.39641e-21)
(0.447762 0.255712 -7.6246e-21)
(0.430276 0.268126 -7.85146e-22)
(0.601228 0.245026 1.7522e-20)
(0.358548 0.132716 0)
(0.371208 0.422659 -3.74395e-22)
(0.541218 0.382241 0)
(0.497789 0.129496 -6.36321e-21)
(0.287391 0.277427 -2.26139e-21)
(0.548547 0.32466 -2.84274e-21)
(0.567739 0.340817 -1.52867e-21)
(0.448605 0.417819 1.75048e-20)
(0.305429 0.185839 3.77238e-21)
(0.558929 0.177229 1.65886e-20)
(0.621437 0.241504 5.7267e-21)
(0.368885 0.104493 -6.62303e-21)
(0.360499 0.409844 1.10752e-21)
(0.620301 0.365101 -8.65157e-22)
(0.260258 0.357767 9.52946e-21)
(0.460118 0.0810545 5.4738e-21)
(0.450636 0.381031 1.7565e-21)
(0.349308 0.189226 0)
(0.552654 0.197477 -6.67592e-21)
(0.396363 0.437765 1.60401e-21)
(0.609199 0.199707 5.63448e-21)
(0.321819 0.123163 0)
(0.560348 0.400186 -1.76998e-21)
(0.507042 0.107667 1.56726e-21)
(0.259415 0.278187 1.97592e-21)
(0.449597 0.432332 -7.09932e-22)
(0.313783 0.180223 0)
(0.576255 0.185712 2.0938e-20)
(0.588237 0.421239 0)
(0.586087 0.402964 0)
(0.522574 0.10109 -3.33906e-21)
(0.257536 0.293381 -9.7164e-21)
(0.497528 0.0903088 -1.5418e-21)
(0.243201 0.30407 -1.18807e-20)
(0.236737 0.41815 3.39472e-21)
(0.44758 0.020563 0)
(0.708714 0.352222 -2.26869e-21)
(0.577304 0.373482 0)
(0.498499 0.109197 1.5758e-22)
(0.290836 0.292375 -1.27048e-21)
(0.516683 -0.0873993 -6.96443e-21)
(0.0980861 0.476862 -1.04642e-20)
(0.865127 0.45775 -2.12312e-20)
(0.528413 0.238788 1.01809e-20)
(0.418764 0.331025 0)
(0.397629 0.189093 3.82571e-21)
(0.591644 0.288686 -6.18444e-21)
(0.419999 0.121232 0)
(0.34383 0.3548 1.92349e-21)
(0.260837 0.38117 5.89135e-21)
(0.658656 0.32946 -1.56419e-23)
(0.437346 0.0480712 4.94245e-21)
(0.304811 0.146001 4.08677e-21)
(0.589812 0.191092 0)
(0.409468 0.442264 1.63119e-20)
(0.336174 0.0609145 8.20445e-21)
(0.659686 0.218706 -9.41893e-21)
(0.338248 0.455819 0)
(0.437154 0.16716 -6.75716e-22)
(0.346056 0.322666 0)
(0.581552 0.316736 -6.91375e-21)
(0.44633 0.115041 -2.46304e-21)
(0.319049 0.335084 -5.85073e-21)
(0.429657 0.152705 -6.89901e-23)
(0.365826 0.32356 7.26359e-21)
(0.640414 0.421077 5.2761e-21)
(0.2011 0.321354 -5.07195e-21)
(0.507999 0.0475511 1.93697e-21)
(0.286381 0.156954 -3.10999e-21)
(0.599651 0.160418 -2.07577e-22)
(0.452574 0.457407 0)
(0.594875 0.333327 -6.91371e-21)
(0.445444 0.115178 -2.46305e-21)
(0.31041 0.357322 -7.27447e-21)
(0.562798 0.257217 0)
(0.391026 0.150788 -6.75139e-21)
(0.374006 0.360576 0)
(0.577238 0.205641 5.37e-21)
(0.343828 0.156122 0)
(0.419342 0.399309 0)
(0.512031 0.305887 1.16373e-21)
(0.460479 0.183895 -1.47629e-21)
(0.37738 0.290485 -6.88629e-21)
(0.410474 0.449844 -5.83375e-21)
(0.609995 0.199426 1.05988e-20)
(0.319694 0.134555 5.50107e-21)
(0.697143 0.306881 1.14858e-20)
(0.425191 0.0256305 -9.82498e-21)
(0.270483 0.41144 -1.7346e-22)
(0.34827 0.0745316 5.71582e-21)
(0.651595 0.243046 -9.41892e-21)
(0.327594 0.458008 -1.4996e-20)
(0.508002 0.452852 -4.01433e-21)
(0.253003 0.220285 -1.10284e-20)
(0.555065 0.131184 0)
(0.594187 0.446182 3.58235e-21)
(0.571141 0.428769 -3.42908e-21)
(0.523134 0.0959628 -1.79726e-21)
(0.533416 0.0916146 -7.17986e-21)
(0.231798 0.290598 1.80131e-21)
(0.233626 0.275864 6.56674e-22)
(0.115801 0.46187 -1.42361e-20)
(0.538542 -0.0795464 -6.96443e-21)
(0.869154 0.480044 -3.12196e-21)
(0.763862 0.460199 3.76461e-22)
(0.124583 0.389713 0)
(0.523989 -0.0362903 0)
(0.609728 0.273067 -2.08585e-21)
(0.397171 0.12397 1.65842e-22)
(0.359544 0.397856 0)
(0.239848 0.39767 1.75395e-21)
(0.700918 0.34599 -3.58993e-21)
(0.452417 0.0186712 0)
(0.541804 0.423568 -7.54771e-21)
(0.543346 0.426451 -2.03825e-20)
(0.535527 0.115082 -4.82252e-21)
(0.519638 0.114554 3.23045e-21)
(0.259865 0.244118 2.1169e-21)
(0.246763 0.265166 -1.26419e-21)
(0.256874 0.467784 0)
(0.390977 -0.0176812 0)
(0.74984 0.274734 -1.233e-21)
(0.834442 0.512218 3.96046e-21)
(0.101567 0.428855 -4.34518e-21)
(0.554025 -0.0590232 0)
(0.475782 0.228845 2.81093e-21)
(0.453347 0.29608 -5.88299e-21)
(0.40622 0.241785 -2.0985e-21)
(0.81893 0.441079 4.16069e-21)
(0.5108 -0.0682292 6.11778e-21)
(0.120021 0.431088 4.03648e-21)
(0.493827 0.401033 -1.7e-20)
(0.524701 0.157071 1.33885e-20)
(0.296028 0.23467 1.12705e-21)
(0.725333 0.319256 4.06452e-21)
(0.425489 0.00850127 8.1713e-21)
(0.252367 0.439388 -3.36476e-21)
(0.486308 -0.12412 -1.14574e-22)
(0.109783 0.515399 -1.34085e-21)
(0.912522 0.406273 -8.8444e-21)
(0.450252 0.373575 -3.19558e-21)
(0.345991 0.221513 -1.92039e-22)
(0.520697 0.207307 1.6717e-21)
(0.513009 0.253876 0)
(0.42022 0.202481 -7.4232e-21)
(0.421562 0.310935 1.66406e-20)
(0.717008 0.430402 -2.2392e-20)
(0.161312 0.396732 2.13293e-21)
(0.492038 0.00361659 9.13609e-21)
(0.517003 0.263495 0)
(0.405707 0.200583 5.88966e-21)
(0.405247 0.332234 1.4196e-20)
(0.47265 0.246867 2.11662e-21)
(0.452536 0.296378 -5.88299e-21)
(0.420154 0.253419 -1.33799e-21)
(0.424753 0.47 1.11819e-21)
(0.61365 0.185189 -5.15278e-21)
(0.302096 0.138853 -1.76606e-21)
(0.499068 0.234246 0)
(0.377684 0.225893 0)
(0.431623 0.339315 5.53183e-22)
(0.511984 0.241851 4.49384e-21)
(0.386377 0.220973 1.81281e-21)
(0.431566 0.345981 -9.20095e-23)
(0.500216 0.442026 3.52443e-21)
(0.565943 0.130095 7.78861e-21)
(0.264002 0.195909 -1.06355e-20)
(0.195474 0.3817 -6.69569e-21)
(0.204754 0.380502 -7.16097e-21)
(0.487218 0.0280291 -3.28901e-21)
(0.471347 0.00723852 3.16605e-21)
(0.685817 0.415438 -2.14914e-20)
(0.702041 0.376544 -1.61765e-20)
(0.702141 0.314746 1.03003e-20)
(0.410036 0.0262765 4.27939e-21)
(0.25377 0.443462 0)
(0.253209 0.220917 -2.32191e-21)
(0.527815 0.456977 -2.2623e-21)
(0.56051 0.125084 0)
(0.464758 0.389423 0)
(0.323108 0.198601 3.74139e-21)
(0.544333 0.17558 7.70164e-21)
(0.63555 0.203493 0)
(0.325938 0.0951417 -3.23364e-21)
(0.38036 0.450207 -1.88067e-22)
(0.448818 -0.103772 2.50721e-21)
(0.17957 0.513038 0)
(0.87628 0.337079 -2.18615e-20)
(0.28099 0.465632 0)
(0.703153 0.248266 0)
(0.359739 0.0161791 -3.11029e-21)
(0.751929 0.406274 6.01458e-21)
(0.166252 0.433198 0)
(0.474292 -0.0166382 -6.26363e-21)
(0.112338 0.520177 5.12934e-32)
(0.525102 -0.186551 7.42716e-21)
(1.0189 0.409723 1.40972e-20)
(0.565122 -0.117231 7.25968e-21)
(0.0615949 0.520177 5.12934e-32)
(0.947302 0.533728 1.4735e-20)
(0.399613 0.0982291 -6.94277e-21)
(0.625763 0.278995 0)
(0.335236 0.400895 -1.10938e-20)
(0.400878 -0.0375898 9.33083e-22)
(0.226185 0.493671 0)
(0.78131 0.29626 0)
(0.637422 0.320759 7.70531e-21)
(0.431619 0.0663155 -2.17937e-21)
(0.278304 0.375649 2.12287e-21)
(0.686754 0.476464 1.00711e-20)
(0.164979 0.340553 -2.879e-21)
(0.536919 0.0243323 0)
(0.525002 0.308899 -1.08229e-20)
(0.366506 0.302079 1.31872e-21)
(0.453495 0.171481 2.00208e-21)
(0.366603 0.0147186 0)
(0.259147 0.473123 4.79569e-21)
(0.708202 0.269657 5.53208e-21)
(0.612113 0.203573 -4.96427e-21)
(0.386561 0.460861 3.63126e-21)
(0.308984 0.12474 0)
(0.346338 0.0930636 0)
(0.628846 0.237405 0)
(0.341629 0.437987 -7.45736e-21)
(0.0533527 0.685518 0)
(0.754132 -0.303401 -1.54904e-21)
(1.39471 0.698481 1.25262e-21)
(0.497583 -0.123861 5.6009e-21)
(0.132372 0.478272 2.65668e-22)
(0.90567 0.393748 -3.46554e-20)
(0.512149 0.301386 -2.36028e-23)
(0.365909 0.296817 -5.91833e-21)
(0.447386 0.175998 -4.26652e-21)
(0.397913 -0.00623935 -7.32171e-21)
(0.733488 0.304508 -1.16116e-21)
(0.232433 0.468306 0)
(0.250601 0.488167 -7.42768e-21)
(0.752282 0.277363 0)
(0.386559 -0.0166689 -3.42682e-22)
(0.681123 0.368346 -1.16727e-21)
(0.223989 0.394436 -7.90724e-21)
(0.456817 0.031841 -8.30027e-21)
(0.20633 0.319374 1.01394e-20)
(0.511551 0.0600805 -1.22655e-21)
(0.626984 0.433427 0)
(0.494546 0.467388 -4.97581e-22)
(0.578292 0.141451 7.78862e-21)
(0.265694 0.195379 -5.12703e-21)
(0.534151 0.100417 -3.51306e-21)
(0.571947 0.434519 -6.99241e-21)
(0.246857 0.265532 3.98324e-21)
(0.181127 0.302314 2.72427e-21)
(0.620107 0.448859 0)
(0.51927 0.0518735 5.09818e-21)
(0.51024 0.380524 -2.85358e-21)
(0.540991 0.394863 0)
(0.504382 0.14976 1.11668e-20)
(0.516902 0.140994 1.11668e-20)
(0.299841 0.255679 1.70234e-21)
(0.301081 0.269847 0)
(0.511322 0.385666 -2.23548e-20)
(0.52456 0.156369 0)
(0.31581 0.241369 1.07708e-22)
(0.530839 0.449842 0)
(0.543682 0.125766 -6.89848e-21)
(0.250786 0.24529 9.33047e-22)
(0.362233 0.0751997 3.6296e-21)
(0.651048 0.241987 9.32788e-21)
(0.341233 0.436793 -1.38034e-20)
(0.393012 0.0124797 0)
(0.705472 0.293768 5.64087e-22)
(0.249557 0.445076 0)
(0.316642 0.422001 9.73174e-21)
(0.648059 0.252583 1.14961e-21)
(0.370738 0.0644895 -2.52985e-21)
(0.543684 -0.116536 -1.6747e-22)
(0.0932072 0.461079 3.47622e-21)
(0.905848 0.467018 0)
(0.47586 0.363102 2.66061e-21)
(0.494005 0.335962 0)
(0.348177 0.247621 -7.59657e-22)
(0.505349 0.198353 -4.80078e-21)
(0.363715 0.248644 -7.59658e-22)
(0.499255 0.185986 9.91012e-21)
(0.519708 0.436451 0)
(0.498459 0.423807 -1.48809e-21)
(0.273829 0.222816 -5.94116e-21)
(0.545787 0.140065 5.27012e-21)
(0.273623 0.238389 5.85792e-22)
(0.541183 0.142642 6.2959e-21)
(0.482146 -0.142199 0)
(0.147243 0.526879 9.39175e-22)
(0.951492 0.369982 0)
(0.408803 -0.00632282 3.74384e-21)
(0.729692 0.298049 5.81411e-21)
(0.248015 0.440834 -3.36476e-21)
(0.467833 0.421882 2.14174e-21)
(0.30455 0.183148 3.15398e-21)
(0.569812 0.165113 8.56284e-21)
(0.323407 0.0868194 -6.38726e-21)
(0.639068 0.208739 3.42369e-24)
(0.359381 0.456119 0)
(0.221294 0.30533 1.01071e-20)
(0.52855 0.0652197 -1.22654e-21)
(0.628543 0.440096 0)
(0.466239 -0.0826929 0)
(0.831527 0.366339 0)
(0.156322 0.455597 0)
(0.458087 -0.0527589 0)
(0.810565 0.371864 4.32295e-21)
(0.178551 0.478008 0)
(0.561163 0.409281 -1.10413e-20)
(0.519344 0.113373 4.79771e-21)
(0.268878 0.271532 -1.26419e-21)
(0.434463 0.382037 -1.38325e-21)
(0.354964 0.197753 0)
(0.542944 0.217002 4.93536e-21)
(0.701714 0.376673 -1.16728e-21)
(0.224205 0.395981 4.96825e-21)
(0.4691 0.0222513 -5.13424e-21)
(0.379587 0.0910725 0)
(0.624066 0.269687 0)
(0.320389 0.4135 -1.41644e-20)
(0.257762 0.350847 2.21339e-22)
(0.477268 0.0607354 6.00144e-21)
(0.646884 0.369867 1.59169e-20)
(0.499195 0.429421 -1.4881e-21)
(0.286254 0.213296 -3.84523e-21)
(0.555691 0.148662 1.0258e-21)
(0.587679 0.231347 -2.48706e-21)
(0.359562 0.153037 -5.14753e-21)
(0.401957 0.409559 -1.64705e-21)
(0.455319 0.390353 1.1223e-20)
(0.333556 0.213178 -6.29515e-22)
(0.534882 0.196443 7.70164e-21)
(0.211986 0.404394 8.61381e-21)
(0.44744 0.0119413 -4.04419e-21)
(0.700176 0.357338 1.3573e-21)
(0.603257 0.387078 -1.52104e-21)
(0.480505 0.0871158 7.13085e-23)
(0.251304 0.331828 0)
(0.465126 0.346888 2.66061e-21)
(0.361305 0.221281 -4.16431e-21)
(0.514991 0.197762 9.23142e-21)
(0.653217 0.467308 9.91105e-21)
(0.18134 0.316276 -2.48338e-21)
(0.536458 0.0415976 1.11001e-21)
(0.494793 0.360597 -1.27361e-21)
(0.492991 0.167927 0)
(0.320757 0.255564 0)
(0.529995 0.265839 1.40638e-20)
(0.401772 0.177572 2.47881e-21)
(0.38569 0.338365 0)
(0.36726 0.105094 0)
(0.628864 0.247673 5.7267e-21)
(0.35723 0.428942 -7.45736e-21)
(0.722515 0.465292 0)
(0.129885 0.370748 -6.11445e-22)
(0.520499 -0.00934303 -2.6307e-21)
(0.71998 0.481401 1.0529e-20)
(0.147202 0.364079 -2.99897e-21)
(0.537299 0.00422994 -3.40612e-21)
(0.232683 0.34471 1.89409e-21)
(0.479386 0.068003 5.4359e-21)
(0.625997 0.391685 1.61983e-20)
(0.594711 0.210568 1.6437e-20)
(0.342762 0.133915 -2.1316e-21)
(0.399337 0.410083 0)
(0.127324 0.388874 -6.11446e-22)
(0.543127 -0.0184663 -2.52048e-21)
(0.756558 0.491928 0)
(0.271466 0.395486 0)
(0.429247 0.0667764 6.19723e-21)
(0.646226 0.330896 -1.36499e-21)
(0.0983041 0.575259 -5.19095e-21)
(0.560043 -0.196377 6.09975e-21)
(1.08361 0.472864 0)
(1.04701 0.561769 -1.36881e-20)
(0.617807 -0.168634 0)
(0.064035 0.529751 6.10657e-21)
(0.206331 0.319096 -7.12834e-21)
(0.519021 0.0557519 8.83491e-22)
(0.638221 0.43989 0)
(0.193656 0.430171 0)
(0.444646 -0.0149143 0)
(0.736883 0.357621 -2.03912e-20)
(0.684379 0.41214 2.08894e-21)
(0.654881 0.401443 2.08894e-21)
(0.21076 0.360987 -5.20329e-21)
(0.498966 0.0293528 -9.04443e-23)
(0.211054 0.362644 0)
(0.480968 0.0461089 0)
(0.660157 0.309697 -4.49056e-22)
(0.425062 0.0584516 2.7227e-22)
(0.289072 0.396504 0)
(0.376135 0.468826 0)
(0.322213 0.096296 0)
(0.640547 0.208117 0)
(0.482694 0.31847 -5.61991e-21)
(0.371948 0.252629 3.84905e-21)
(0.482498 0.194861 -5.25071e-21)
(0.643456 0.277254 -1.61292e-20)
(0.39009 0.066228 1.29811e-21)
(0.299426 0.409396 -1.31873e-20)
(0.321782 0.419904 6.91634e-21)
(0.644803 0.276318 -1.61292e-20)
(0.391289 0.0804363 1.29812e-21)
(0.62095 0.466732 -2.42489e-21)
(0.192924 0.294741 4.77392e-21)
(0.538642 0.0618718 0)
(0.515972 0.437489 0)
(0.55009 0.1234 -2.07599e-21)
(0.25509 0.220191 5.85785e-22)
(0.521212 0.406986 0)
(0.540808 0.139348 1.33885e-20)
(0.295215 0.232127 1.56538e-21)
(0.620453 0.305603 -6.64561e-21)
(0.420115 0.100459 -1.4543e-21)
(0.318512 0.38762 5.66303e-21)
(0.621553 0.282008 0)
(0.398472 0.0865817 1.31503e-21)
(0.312652 0.390649 3.0706e-21)
(0.457171 0.348046 0)
(0.369682 0.231896 1.69058e-21)
(0.50822 0.214759 0)
(0.527712 0.400497 0)
(0.518194 0.130486 5.53394e-21)
(0.278854 0.253092 -1.00966e-21)
(0.281684 0.481458 -2.76386e-21)
(0.366154 0.0120901 -5.14457e-21)
(0.722095 0.258122 0)
(0.829322 0.324185 1.31893e-22)
(0.193625 0.475749 4.22766e-22)
(0.437954 -0.0780465 9.39304e-22)
(0.825747 0.315313 1.03732e-20)
(0.177596 0.496229 0)
(0.418073 -0.0808589 3.44651e-21)
(0.487352 0.382947 -2.36995e-21)
(0.326506 0.224455 6.03387e-22)
(0.531057 0.172383 -1.30638e-20)
(0.484026 -0.0879644 1.06642e-20)
(0.146687 0.495756 1.53336e-21)
(0.867086 0.400073 0)
(0.62636 0.393026 4.94107e-21)
(0.250032 0.327261 0)
(0.495244 0.0720845 0)
(0.143579 0.497035 6.96963e-21)
(0.447516 -0.116104 4.94873e-21)
(0.875434 0.337695 -2.13593e-20)
(0.49274 0.28151 2.95773e-21)
(0.402537 0.308849 4.92488e-21)
(0.426943 0.217766 -5.79794e-22)
(0.573431 0.340333 1.31406e-21)
(0.464655 0.123931 5.30004e-22)
(0.324634 0.312459 -6.30753e-21)
(0.330649 0.156147 -1.46671e-21)
(0.580301 0.210924 -1.03644e-20)
(0.406451 0.421731 0)
(0.230531 0.466664 0)
(0.3919 -0.0341688 3.93083e-21)
(0.756803 0.276316 0)
(0.374537 0.0809649 0)
(0.6404 0.244963 0)
(0.344062 0.414928 0)
(0.166138 0.325184 0)
(0.653128 0.453517 -9.29197e-21)
(0.520223 0.0323629 -3.10468e-21)
(0.579265 0.346077 0)
(0.458491 0.124368 1.31711e-21)
(0.312252 0.337902 -1.16598e-20)
(0.47599 0.319943 -5.61991e-21)
(0.38516 0.267099 2.82812e-21)
(0.47541 0.2172 0)
(0.415766 -0.0232674 -7.32172e-21)
(0.760242 0.312358 -1.16115e-21)
(0.231813 0.465752 0)
(0.262157 0.380826 1.15397e-20)
(0.457154 0.0681337 -3.88277e-22)
(0.649966 0.361087 1.05913e-20)
(0.739341 0.430948 0)
(0.758497 0.460089 -1.14969e-20)
(0.155239 0.385594 3.89922e-21)
(0.139525 0.416865 5.68984e-21)
(0.505022 -0.0176516 7.86974e-23)
(0.512992 -0.0181136 7.86981e-23)
(0.584306 0.268672 0)
(0.404443 0.142303 1.07997e-22)
(0.374388 0.370051 6.83773e-21)
(0.382142 0.109991 -8.25779e-21)
(0.606696 0.269675 0)
(0.335132 0.399397 -1.15388e-21)
(0.522266 0.27301 5.67165e-21)
(0.420549 0.175338 -4.04691e-21)
(0.383113 0.314972 -1.26495e-20)
(0.420344 -0.0485987 4.91927e-21)
(0.78899 0.323567 -1.14251e-20)
(0.406044 -0.0672207 7.55163e-21)
(0.196815 0.481478 4.22771e-22)
(0.803678 0.288069 -1.1557e-20)
(0.20958 0.479793 0)
(0.605984 0.333026 0)
(0.45469 0.0981103 0)
(0.302313 0.344138 -2.14506e-21)
(0.749059 0.32007 -3.0041e-21)
(0.794056 0.335285 -8.44218e-21)
(0.415688 -0.0242427 -4.54094e-21)
(0.440707 -0.0462371 -6.94557e-21)
(0.207568 0.454233 -5.0295e-21)
(0.209582 0.464296 -3.17687e-21)
(0.60833 0.2691 0)
(0.380122 0.120785 -6.4572e-21)
(0.348448 0.410812 3.28038e-22)
(0.555741 0.300146 -8.83564e-21)
(0.430347 0.139692 7.98387e-21)
(0.343639 0.329998 0)
(0.68635 0.459925 0)
(0.147785 0.351048 2.7671e-22)
(0.518219 0.014136 -3.40612e-21)
(0.566521 0.286732 4.77622e-21)
(0.405086 0.144353 0)
(0.348717 0.364317 -3.89781e-21)
(0.544895 0.288617 1.05104e-20)
(0.422262 0.174771 -4.04691e-21)
(0.378396 0.337782 8.10707e-22)
(0.733562 0.458847 0)
(0.15564 0.385461 0)
(0.520524 -0.00383984 -3.57606e-21)
(0.565935 0.352875 0)
(0.458256 0.128646 9.58403e-22)
(0.2999 0.329836 -3.34084e-21)
(0.308075 0.120434 0)
(0.624705 0.192268 0)
(0.404179 0.466612 3.33382e-22)
(0.487876 0.442316 -3.84271e-22)
(0.555733 0.148782 0)
(0.272982 0.210649 1.6743e-21)
(0.342071 0.0585022 2.48863e-21)
(0.334638 0.482322 0)
(0.67811 0.232974 0)
(0.0533525 0.538489 9.15616e-22)
(0.559135 -0.190824 -1.54904e-21)
(1.03546 0.491075 1.25261e-21)
(0.583869 0.316705 0)
(0.437683 0.137619 3.40779e-21)
(0.336803 0.356972 0)
(0.68287 0.441505 4.23992e-21)
(0.178329 0.36701 -2.78833e-21)
(0.505288 0.030291 -5.35422e-21)
(0.275337 0.17847 0)
(0.584685 0.151587 -6.96606e-21)
(0.472671 0.462115 0)
(0.893422 0.533401 0)
(0.0818628 0.465073 8.06054e-21)
(0.5751 -0.0896077 0)
(0.42841 0.364953 7.14949e-21)
(0.420817 0.369194 5.63658e-21)
(0.384312 0.193465 0)
(0.546524 0.237114 1.01351e-22)
(0.359467 0.178647 8.60411e-21)
(0.546825 0.215835 4.93535e-21)
(0.530172 0.266411 7.37645e-21)
(0.421815 0.183018 5.88965e-21)
(0.40206 0.322111 0)
(0.445815 0.364696 -3.19558e-21)
(0.428098 0.361886 0)
(0.361447 0.198116 0)
(0.538594 0.208386 0)
(0.365008 0.2074 -8.01705e-22)
(0.523641 0.226843 6.66612e-21)
(0.570585 0.299439 -2.76287e-22)
(0.426881 0.152771 2.99235e-21)
(0.35574 0.342034 6.45289e-21)
(0.564582 0.283298 -3.78313e-21)
(0.420862 0.144492 0)
(0.362248 0.341348 0)
(0.203528 0.503513 0)
(0.420516 -0.0712858 0)
(0.828665 0.312464 1.08754e-20)
(0.485163 0.376001 -4.87116e-21)
(0.510717 0.16787 0)
(0.315052 0.236949 1.8331e-21)
(0.752491 0.344141 -2.3923e-20)
(0.445123 -0.0124198 2.40463e-21)
(0.224541 0.440917 -6.57969e-21)
(0.615865 0.307549 0)
(0.636177 0.321369 7.7053e-21)
(0.421916 0.0858119 -1.4543e-21)
(0.430577 0.0816305 2.74497e-21)
(0.297454 0.371745 6.38327e-21)
(0.296273 0.38772 2.12287e-21)
(0.494836 0.370395 0)
(0.510734 0.178069 0)
(0.333995 0.247843 -1.22823e-21)
(0.535031 0.422064 8.06536e-21)
(0.525866 0.125606 0)
(0.264143 0.257729 1.18384e-21)
(0.596162 0.308943 1.48894e-22)
(0.424191 0.101363 0)
(0.305546 0.359798 -6.224e-21)
(0.468578 0.305736 6.03211e-21)
(0.476089 0.228686 9.19118e-21)
(0.405506 0.259039 -1.73865e-21)
(0.64351 0.29545 0)
(0.412392 0.0790157 0)
(0.312362 0.401875 -1.36724e-20)
(0.475025 0.337352 0)
(0.366897 0.253329 1.02092e-21)
(0.490185 0.204737 0)
(0.608084 0.273352 -9.01466e-21)
(0.40116 0.113111 3.80505e-21)
(0.347864 0.383851 6.69518e-22)
(0.545147 0.40837 4.61548e-21)
(0.525657 0.125125 5.53395e-21)
(0.27949 0.259464 0)
(0.464706 0.307114 6.03211e-21)
(0.455572 0.328766 -2.7256e-21)
(0.478309 0.216618 3.45315e-21)
(0.39182 0.247381 8.90741e-22)
(0.489301 0.231136 0)
(0.38878 0.247761 4.28562e-21)
(0.447008 0.337765 -9.80556e-22)
(0.373081 0.219499 5.66284e-21)
(0.445967 0.347675 -1.62575e-21)
(0.507797 0.214869 0)
(0.383706 0.214767 1.0111e-21)
(0.523563 0.226321 6.56476e-21)
(0.523567 0.370062 -1.27361e-21)
(0.523618 0.358592 0)
(0.505393 0.156841 1.61485e-21)
(0.487197 0.146227 2.03032e-21)
(0.322696 0.264851 -3.58398e-21)
(0.310396 0.271881 -4.32829e-21)
(0.226026 0.321736 0)
(0.511738 0.060516 -2.09222e-22)
(0.637808 0.418979 6.13122e-21)
(0.403856 0.452209 -2.35493e-21)
(0.612518 0.185592 -5.15277e-21)
(0.305154 0.122209 -7.69114e-22)
(0.211976 0.338684 6.74289e-24)
(0.231228 0.339878 0)
(0.501124 0.0586097 -2.09225e-22)
(0.496604 0.0489747 5.4359e-21)
(0.638611 0.421144 -1.4227e-20)
(0.653808 0.398227 -2.07346e-20)
(0.44829 0.432597 0)
(0.299364 0.163902 -4.61353e-21)
(0.582123 0.168217 1.29488e-20)
(0.458017 0.275348 -3.42877e-21)
(0.417975 0.25402 0)
(0.456312 0.230751 -4.74725e-21)
(0.636352 0.301071 -4.49056e-22)
(0.411128 0.070177 2.00785e-21)
(0.288311 0.392226 0)
(0.483894 0.362082 0)
(0.336046 0.231661 -1.24054e-21)
(0.514528 0.176476 -1.954e-20)
(0.543271 0.40283 0)
(0.509294 0.121857 0)
(0.26888 0.271543 -4.12417e-22)
(0.593503 0.422547 0)
(0.607711 0.411566 0)
(0.508719 0.078296 1.6725e-21)
(0.220821 0.297367 -2.59325e-21)
(0.509107 0.0811621 1.08644e-21)
(0.243585 0.306703 -3.92624e-21)
(0.605038 0.328125 -8.46372e-21)
(0.436139 0.0916967 -3.85194e-21)
(0.285833 0.358428 1.46316e-21)
(0.833804 0.509036 -1.25002e-20)
(0.541211 -0.063349 0)
(0.0795625 0.448217 -2.65216e-21)
(0.273822 0.172291 0)
(0.579003 0.157032 -7.17364e-21)
(0.452093 0.456132 0)
(0.474077 0.449722 4.16296e-21)
(0.471146 0.45047 1.20677e-20)
(0.268338 0.181518 -2.01654e-21)
(0.573314 0.143185 0)
(0.27876 0.192196 0)
(0.569199 0.157826 0)
(0.645015 0.253282 6.67683e-21)
(0.365727 0.0808142 1.09976e-21)
(0.330726 0.437141 3.79326e-22)
(0.528813 0.411206 3.44987e-21)
(0.533603 0.125633 0)
(0.275606 0.238034 7.69307e-22)
(0.454723 0.441645 0)
(0.290943 0.182302 -2.40971e-21)
(0.57184 0.16919 1.17535e-21)
(0.473572 0.430425 3.60724e-21)
(0.474955 0.421233 3.60724e-21)
(0.293843 0.204998 -4.04188e-21)
(0.285266 0.208367 -4.48523e-21)
(0.555209 0.166107 2.92935e-21)
(0.545057 0.158016 -5.5066e-22)
(0.480479 0.429599 8.32102e-21)
(0.283859 0.191668 0)
(0.562634 0.14876 0)
(0.615924 0.320019 -8.31482e-21)
(0.436419 0.0940931 0)
(0.305637 0.366969 7.84643e-21)
(0.4663 0.326893 -2.7256e-21)
(0.374994 0.231276 -1.88772e-21)
(0.499553 0.203113 0)
(0.717195 0.433148 -5.1227e-21)
(0.178926 0.384899 1.78647e-21)
(0.503707 0.00933419 2.89018e-21)
(0.465024 0.441706 0)