/*--------------------------------*- C++ -*----------------------------------*\
  =========                 |
  \\      /  F ield         | OpenFOAM: The Open Source CFD Toolbox
   \\    /   O peration     | Website:  https://openfoam.org
    \\  /    A nd           | Version:  6
     \\/     M anipulation  |
\*---------------------------------------------------------------------------*/
FoamFile
{
    version     2.0;
    format      ascii;
    class       volVectorField;
    location    "0";
    object      Uliftx1;
}
// * * * * * * * * * * * * * * * * * * * * * * * * * * * * * * * * * * * * * //

dimensions      [0 1 -1 0 0 0 0];

internalField   nonuniform List<vector> 
13046
(
(0.502567759948 0 0)
(0.4820435389 0 0)
(0.370306800191 0 0)
(0.504846812267 0 0)
(0.391144296127 0 0)
(0.441815947255 0 0)
(0.523943851642 0 0)
(0.445359017245 0 0)
(0.386233117114 0 0)
(0.714480916468 0 0)
(0.471101365162 0 0)
(0.189668881681 0 0)
(0.548383115847 0 0)
(0.470264133602 0 0)
(0.353461633707 0 0)
(0.665709155871 0 0)
(0.19361657252 0 0)
(0.518611854673 0 0)
(0.444693487243 0 0)
(0.405518441669 0 0)
(0.490473569285 0 0)
(0.668621516275 0 0)
(0.185351248435 0 0)
(0.499240094774 0 0)
(0.492211374446 0 0)
(0.467565312492 0 0)
(0.396403337996 0 0)
(0.534055152502 0 0)
(0.469884639135 0 0)
(0.324703848946 0 0)
(0.494505683221 0 0)
(0.480502486684 0 0)
(0.346389114362 0 0)
(0.471175221671 0 0)
(0.395311091777 0 0)
(0.455751676374 0 0)
(0.475001099087 0 0)
(0.41593213379 0 0)
(0.454003808755 0 0)
(0.46745514676 0 0)
(0.34101950027 0 0)
(0.530764899896 0 0)
(0.463742895179 0 0)
(0.446080745378 0 0)
(0.443992580869 0 0)
(0.463186799799 0 0)
(0.427525371223 0 0)
(0.418760459895 0 0)
(0.508284173802 0 0)
(0.460308502055 0 0)
(0.35892762157 0 0)
(0.314705859368 0 0)
(0.424903877828 0 0)
(0.570616874139 0 0)
(0.329168334674 0 0)
(0.591611730431 0 0)
(0.426030535313 0 0)
(0.534961072343 0 0)
(0.542537361813 0 0)
(0.22098878315 0 0)
(0.596940190707 0 0)
(0.408034625027 0 0)
(0.335219399425 0 0)
(0.240137594366 0 0)
(0.457414151857 0 0)
(0.645389374624 0 0)
(0.543166142247 0 0)
(0.558167991288 0 0)
(0.240711147366 0 0)
(0.525654011909 0 0)
(0.544583430623 0 0)
(0.241135023471 0 0)
(0.55548555356 0 0)
(0.596054341322 0 0)
(0.223403706576 0 0)
(0.448862007901 0 0)
(0.39670043286 0 0)
(0.497694284035 0 0)
(0.217999618438 0 0)
(0.606227031369 0 0)
(0.542147034421 0 0)
(0.494464145872 0 0)
(0.446777475267 0 0)
(0.377515101701 0 0)
(0.241262267408 0 0)
(0.478484903684 0 0)
(0.683828022216 0 0)
(0.658442456772 0 0)
(0.27203160273 0 0)
(0.405918434808 0 0)
(0.305920890622 0 0)
(0.699942861993 0 0)
(0.359377957321 0 0)
(0.592376989497 0 0)
(0.590166860596 0 0)
(0.482711242116 0 0)
(0.45756756853 0 0)
(0.298415811999 0 0)
(0.278655858066 0 0)
(0.299856409469 0 0)
(0.671134772872 0 0)
(0.406421161956 0 0)
(0.488504942962 0 0)
(0.428309836859 0 0)
(0.432510930716 0 0)
(0.400856606184 0 0)
(0.566834687279 0 0)
(0.346930584008 0 0)
(0.433709586857 0 0)
(0.327388599102 0 0)
(0.552073783729 0 0)
(0.809506137568 0 0)
(0.142454657587 0 0)
(0.501980353361 0 0)
(0.514592545697 0 0)
(0.454494493935 0 0)
(0.351744177188 0 0)
(0.602856360415 0 0)
(0.579485441177 0 0)
(0.497609011211 0 0)
(0.2697984818 0 0)
(0.481627934819 0 0)
(0.271128341759 0 0)
(0.745861336786 0 0)
(0.484609228778 0 0)
(0.184695643424 0 0)
(0.56718786912 0 0)
(0.482750532004 0 0)
(0.316588821255 0 0)
(0.47247354694 0 0)
(0.330072189876 0 0)
(0.520947424192 0 0)
(0.304869031576 0 0)
(0.672253377436 0 0)
(0.340533497284 0 0)
(0.631439334301 0 0)
(0.450234462741 0 0)
(0.285234552686 0 0)
(0.516173303435 0 0)
(0.49192723835 0 0)
(0.344065128026 0 0)
(0.562312439381 0 0)
(0.412474336117 0 0)
(0.375920419135 0 0)
(0.431895450226 0 0)
(0.336773755707 0 0)
(0.568953780751 0 0)
(0.419920760852 0 0)
(0.568637295408 0 0)
(0.374672472016 0 0)
(0.610416419103 0 0)
(0.423734305823 0 0)
(0.325353944513 0 0)
(0.413832649207 0 0)
(0.543604872532 0 0)
(0.403495525692 0 0)
(0.33076388845 0 0)
(0.600617233162 0 0)
(0.342816511132 0 0)
(0.616940717091 0 0)
(0.390789205407 0 0)
(0.378818365963 0 0)
(0.569726019566 0 0)
(0.391098199191 0 0)
(0.388163773735 0 0)
(0.738442694017 0 0)
(0.213928440889 0 0)
(0.46748152232 0 0)
(0.779507857083 0 0)
(0.157409854119 0 0)
(0.49311698646 0 0)
(0.627762559333 0 0)
(0.451948021414 0 0)
(0.263643993988 0 0)
(0.495198481196 0 0)
(0.545497457217 0 0)
(0.310165155527 0 0)
(0.553040775335 0 0)
(0.394768048885 0 0)
(0.375798427204 0 0)
(0.221407332204 0 0)
(0.425155954198 0 0)
(0.710393312805 0 0)
(0.473073646684 0 0)
(0.53276422467 0 0)
(0.311916828438 0 0)
(0.4032334112 0 0)
(0.544414628725 0 0)
(0.382008523157 0 0)
(0.5485699364 0 0)
(0.411660673651 0 0)
(0.384693034265 0 0)
(0.449096207714 0 0)
(0.328493445845 0 0)
(0.566040359015 0 0)
(0.475648857467 0 0)
(0.322122586464 0 0)
(0.673165986924 0 0)
(0.248916872365 0 0)
(0.437897435795 0 0)
(0.30912131106 0 0)
(0.66278181208 0 0)
(0.371676486809 0 0)
(0.69328078744 0 0)
(0.380410784263 0 0)
(0.27862865178 0 0)
(0.288560780436 0 0)
(0.586154770484 0 0)
(0.436998585976 0 0)
(0.52348686247 0 0)
(0.597625366275 0 0)
(0.216551125366 0 0)
(0.554759742098 0 0)
(0.393554762844 0 0)
(0.716256670383 0 0)
(0.271582938232 0 0)
(0.478847885151 0 0)
(0.408051210123 0 0)
(0.435316461466 0 0)
(0.528080859063 0 0)
(0.486767419467 0 0)
(0.332899941838 0 0)
(0.322467258371 0 0)
(0.674374530076 0 0)
(0.362383482068 0 0)
(0.562498603244 0 0)
(0.45064837656 0 0)
(0.347681362968 0 0)
(0.194964963525 0 0)
(0.469657684999 0 0)
(0.781503605411 0 0)
(0.430045478179 0 0)
(0.600699530528 0 0)
(0.30121833552 0 0)
(0.672596839619 0 0)
(0.378205285165 0 0)
(0.28760737837 0 0)
(0.587331155188 0 0)
(0.363163743725 0 0)
(0.379288469571 0 0)
(0.554912200587 0 0)
(0.481961659195 0 0)
(0.29291701523 0 0)
(0.334276661418 0 0)
(0.657685039044 0 0)
(0.359303566935 0 0)
(0.623817125063 0 0)
(0.333959061962 0 0)
(0.368634062247 0 0)
(0.180770061251 0 0)
(0.440906608859 0 0)
(0.776976818497 0 0)
(0.458959992912 0 0)
(0.327509804698 0 0)
(0.559477996969 0 0)
(0.790087896295 0 0)
(0.102571612493 0 0)
(0.532319945206 0 0)
(0.419821283639 0 0)
(0.491173158915 0 0)
(0.409404192588 0 0)
(0.584535292076 0 0)
(0.578550945151 0 0)
(0.385239799826 0 0)
(0.382915795981 0 0)
(0.377865289306 0 0)
(0.359799531676 0 0)
(0.194098924294 0 0)
(0.61464340867 0 0)
(0.530196614551 0 0)
(0.554982255037 0 0)
(0.499107980912 0 0)
(0.312784159042 0 0)
(0.643299471014 0 0)
(0.346390333429 0 0)
(0.367793363546 0 0)
(0.619418643449 0 0)
(0.478046903013 0 0)
(0.275942467771 0 0)
(0.449767934655 0 0)
(0.447761607259 0 0)
(0.430276159245 0 0)
(0.601228310687 0 0)
(0.358548602132 0 0)
(0.371207783621 0 0)
(0.54121782263 0 0)
(0.497788767697 0 0)
(0.287390931045 0 0)
(0.548546584738 0 0)
(0.567739317975 0 0)
(0.448604872962 0 0)
(0.305428634771 0 0)
(0.558929095627 0 0)
(0.621437015438 0 0)
(0.368885587985 0 0)
(0.360498857436 0 0)
(0.620300596218 0 0)
(0.260258348445 0 0)
(0.46011852808 0 0)
(0.450635917553 0 0)
(0.349307609487 0 0)
(0.552654478038 0 0)
(0.396362772415 0 0)
(0.609199046058 0 0)
(0.321819327742 0 0)
(0.560348251136 0 0)
(0.507041775966 0 0)
(0.259414637719 0 0)
(0.449596702694 0 0)
(0.313782655847 0 0)
(0.576254516279 0 0)
(0.588237209612 0 0)
(0.586087254663 0 0)
(0.522574731001 0 0)
(0.257535888085 0 0)
(0.497528558382 0 0)
(0.243200598836 0 0)
(0.23673656028 0 0)
(0.447580762414 0 0)
(0.708713349091 0 0)
(0.577303476466 0 0)
(0.498498921481 0 0)
(0.290836145186 0 0)
(0.51668341873 0 0)
(0.0980861279607 0 0)
(0.865126298785 0 0)
(0.528412562124 0 0)
(0.41876378719 0 0)
(0.397628758233 0 0)
(0.59164399772 0 0)
(0.419999438454 0 0)
(0.343830179515 0 0)
(0.260837021277 0 0)
(0.658655901499 0 0)
(0.43734603797 0 0)
(0.304811073411 0 0)
(0.589811802399 0 0)
(0.409467738321 0 0)
(0.336173872576 0 0)
(0.659685222662 0 0)
(0.338247689928 0 0)
(0.437153733548 0 0)
(0.346055532112 0 0)
(0.581551463593 0 0)
(0.446330097204 0 0)
(0.319049303053 0 0)
(0.429657257188 0 0)
(0.365825542394 0 0)
(0.640413876412 0 0)
(0.201100474461 0 0)
(0.507999466303 0 0)
(0.28638100034 0 0)
(0.59965114263 0 0)
(0.452574157819 0 0)
(0.594874600243 0 0)
(0.4454446382 0 0)
(0.310409609059 0 0)
(0.562798303571 0 0)
(0.391026024328 0 0)
(0.374005662127 0 0)
(0.577237504684 0 0)
(0.343827740011 0 0)
(0.419342196396 0 0)
(0.512031130732 0 0)
(0.460479332781 0 0)
(0.377380260094 0 0)
(0.410473577386 0 0)
(0.609994991175 0 0)
(0.319693992085 0 0)
(0.697142946314 0 0)
(0.425191517116 0 0)
(0.27048276114 0 0)
(0.348270069439 0 0)
(0.651594314177 0 0)
(0.327593550846 0 0)
(0.508002009836 0 0)
(0.253003180277 0 0)
(0.555064956918 0 0)
(0.594186876152 0 0)
(0.571141088341 0 0)
(0.523134527022 0 0)
(0.53341607225 0 0)
(0.231797948651 0 0)
(0.233626500522 0 0)
(0.115801458693 0 0)
(0.538542721301 0 0)
(0.869152944643 0 0)
(0.763861535688 0 0)
(0.124582541403 0 0)
(0.523989796478 0 0)
(0.609727715536 0 0)
(0.397171636563 0 0)
(0.359544363128 0 0)
(0.239848283727 0 0)
(0.700917896335 0 0)
(0.452417271599 0 0)
(0.541803660402 0 0)
(0.543345764079 0 0)
(0.535527444376 0 0)
(0.519637913067 0 0)
(0.259865409935 0 0)
(0.246763432925 0 0)
(0.256874283111 0 0)
(0.390977151395 0 0)
(0.749839724692 0 0)
(0.834441511913 0 0)
(0.101567357762 0 0)
(0.554025616581 0 0)
(0.475782266638 0 0)
(0.453346998305 0 0)
(0.406220245769 0 0)
(0.818929490596 0 0)
(0.510800476887 0 0)
(0.12002110941 0 0)
(0.493826823072 0 0)
(0.524701491687 0 0)
(0.296028043655 0 0)
(0.725332290955 0 0)
(0.425489558454 0 0)
(0.252366794362 0 0)
(0.486308337837 0 0)
(0.109783055948 0 0)
(0.912521323954 0 0)
(0.450251749845 0 0)
(0.345990983309 0 0)
(0.520696895221 0 0)
(0.513009159366 0 0)
(0.420219866129 0 0)
(0.421562246682 0 0)
(0.717007210084 0 0)
(0.161311920042 0 0)
(0.49203891015 0 0)
(0.517002832536 0 0)
(0.40570685017 0 0)
(0.405247245516 0 0)
(0.472650439669 0 0)
(0.452535661188 0 0)
(0.420154198678 0 0)
(0.424753186648 0 0)
(0.61364981845 0 0)
(0.302095917166 0 0)
(0.49906803698 0 0)
(0.377684130326 0 0)
(0.431622867902 0 0)
(0.511983547341 0 0)
(0.386377432146 0 0)
(0.431565539772 0 0)
(0.500216205935 0 0)
(0.565943347866 0 0)
(0.264001725019 0 0)
(0.195474491492 0 0)
(0.204753796599 0 0)
(0.487218153885 0 0)
(0.47134731138 0 0)
(0.685817041954 0 0)
(0.702041048374 0 0)
(0.70214077709 0 0)
(0.410036188654 0 0)
(0.253769775954 0 0)
(0.253209275955 0 0)
(0.527815098169 0 0)
(0.560510659351 0 0)
(0.464757637156 0 0)
(0.323108252892 0 0)
(0.544332723403 0 0)
(0.635549426351 0 0)
(0.325938434485 0 0)
(0.38036017135 0 0)
(0.448818229589 0 0)
(0.179569640503 0 0)
(0.876278926357 0 0)
(0.28098986765 0 0)
(0.703152854818 0 0)
(0.359739454885 0 0)
(0.751928762428 0 0)
(0.166252027344 0 0)
(0.474292195378 0 0)
(0.112338444439 0 0)
(0.525102330189 0 0)
(1.01889531198 0 0)
(0.565123210257 0 0)
(0.0615949455834 0 0)
(0.947301204131 0 0)
(0.399612908581 0 0)
(0.625762647074 0 0)
(0.335235722589 0 0)
(0.400878559106 0 0)
(0.226184975617 0 0)
(0.781309189881 0 0)
(0.63742172742 0 0)
(0.431619390457 0 0)
(0.278303610744 0 0)
(0.686753282176 0 0)
(0.164979452043 0 0)
(0.536919738496 0 0)
(0.525001587129 0 0)
(0.366506353576 0 0)
(0.453495186554 0 0)
(0.366603028259 0 0)
(0.259146544013 0 0)
(0.70820139535 0 0)
(0.612113193185 0 0)
(0.386561026838 0 0)
(0.308984136736 0 0)
(0.346338062766 0 0)
(0.628846078102 0 0)
(0.341628843839 0 0)
(0.0533526781784 0 0)
(0.754132673187 0 0)
(1.39471162561 0 0)
(0.497583667554 0 0)
(0.132372043606 0 0)
(0.905669401946 0 0)
(0.512149117902 0 0)
(0.365908822843 0 0)
(0.447385942156 0 0)
(0.397913346457 0 0)
(0.733487526886 0 0)
(0.232432705193 0 0)
(0.250601454796 0 0)
(0.75228156544 0 0)
(0.386559721552 0 0)
(0.681122361408 0 0)
(0.223989078216 0 0)
(0.456817135346 0 0)
(0.206330482132 0 0)
(0.511551707337 0 0)
(0.626983530659 0 0)
(0.494545673209 0 0)
(0.578291786802 0 0)
(0.265694525712 0 0)
(0.534151113318 0 0)
(0.571947179446 0 0)
(0.246856641796 0 0)
(0.181127288569 0 0)
(0.620106971328 0 0)
(0.519270415912 0 0)
(0.510240158677 0 0)
(0.540991267826 0 0)
(0.504381763261 0 0)
(0.51690184197 0 0)
(0.299841075979 0 0)
(0.301080965293 0 0)
(0.511321478646 0 0)
(0.524560441059 0 0)
(0.315809561838 0 0)
(0.530839238897 0 0)
(0.543682525806 0 0)
(0.250786348472 0 0)
(0.362233039383 0 0)
(0.651047814945 0 0)
(0.341233333308 0 0)
(0.393012678567 0 0)
(0.705471874723 0 0)
(0.249557439176 0 0)
(0.316641730606 0 0)
(0.64805845518 0 0)
(0.370738447448 0 0)
(0.543684476046 0 0)
(0.0932071488304 0 0)
(0.905847305561 0 0)
(0.475860146887 0 0)
(0.494005286355 0 0)
(0.348177078118 0 0)
(0.50534915988 0 0)
(0.363714746753 0 0)
(0.499254722784 0 0)
(0.51970814977 0 0)
(0.498458400273 0 0)
(0.273828670815 0 0)
(0.545786980685 0 0)
(0.273623345095 0 0)
(0.541182880147 0 0)
(0.482146903521 0 0)
(0.147243238493 0 0)
(0.951490882029 0 0)
(0.408803640491 0 0)
(0.729691808882 0 0)
(0.248014868417 0 0)
(0.467832899334 0 0)
(0.304550308252 0 0)
(0.569812144783 0 0)
(0.323406953238 0 0)
(0.639067641701 0 0)
(0.359381132413 0 0)
(0.221294342611 0 0)
(0.528550521617 0 0)
(0.628543165986 0 0)
(0.466239593451 0 0)
(0.831526473613 0 0)
(0.156322471606 0 0)
(0.458087070171 0 0)
(0.810564210777 0 0)
(0.17855102788 0 0)
(0.561163000571 0 0)
(0.519344481062 0 0)
(0.268878311726 0 0)
(0.434463029525 0 0)
(0.354964277015 0 0)
(0.542944462619 0 0)
(0.701713443404 0 0)
(0.224205400461 0 0)
(0.469100106888 0 0)
(0.379587457136 0 0)
(0.624065311939 0 0)
(0.32038947188 0 0)
(0.257762289688 0 0)
(0.47726843672 0 0)
(0.646883678017 0 0)
(0.499195191971 0 0)
(0.286253622083 0 0)
(0.555691575261 0 0)
(0.587679168741 0 0)
(0.359562412559 0 0)
(0.401957039751 0 0)
(0.455318664559 0 0)
(0.333556544249 0 0)
(0.534881717511 0 0)
(0.211985719693 0 0)
(0.44744015509 0 0)
(0.700176079317 0 0)
(0.603256526135 0 0)
(0.480505412923 0 0)
(0.251304068045 0 0)
(0.465125429541 0 0)
(0.361305053613 0 0)
(0.51499128404 0 0)
(0.653216766355 0 0)
(0.181340265854 0 0)
(0.536458827369 0 0)
(0.494792973369 0 0)
(0.492991352817 0 0)
(0.320756796167 0 0)
(0.529994616101 0 0)
(0.401771838622 0 0)
(0.385689747952 0 0)
(0.367260667743 0 0)
(0.6288637329 0 0)
(0.357230258334 0 0)
(0.722514257373 0 0)
(0.129884646733 0 0)
(0.520499996985 0 0)
(0.719980048812 0 0)
(0.147201608737 0 0)
(0.537300036541 0 0)
(0.232683449421 0 0)
(0.479386790221 0 0)
(0.625996459883 0 0)
(0.594711200559 0 0)
(0.342762140899 0 0)
(0.399336552641 0 0)
(0.127324458094 0 0)
(0.54312789454 0 0)
(0.756557922179 0 0)
(0.271465535205 0 0)
(0.429247435395 0 0)
(0.646225361935 0 0)
(0.0983041102933 0 0)
(0.560043346066 0 0)
(1.08361154974 0 0)
(1.04701381392 0 0)
(0.617808250509 0 0)
(0.0640349927517 0 0)
(0.206330561675 0 0)
(0.519021771664 0 0)
(0.638220354752 0 0)
(0.193656431322 0 0)
(0.444646763925 0 0)
(0.736882927365 0 0)
(0.684378275767 0 0)
(0.65488116474 0 0)
(0.210760306921 0 0)
(0.498966876949 0 0)
(0.211054448937 0 0)
(0.480968217017 0 0)
(0.660156232538 0 0)
(0.425061951314 0 0)
(0.289071870536 0 0)
(0.376135236308 0 0)
(0.322213478424 0 0)
(0.64054697403 0 0)
(0.482693968754 0 0)
(0.371948335082 0 0)
(0.482497905407 0 0)
(0.643455731095 0 0)
(0.390089996497 0 0)
(0.299425791436 0 0)
(0.321782182929 0 0)
(0.644802412288 0 0)
(0.391289730811 0 0)
(0.620949604251 0 0)
(0.192924291633 0 0)
(0.538642098122 0 0)
(0.515972067563 0 0)
(0.550090103351 0 0)
(0.255089578243 0 0)
(0.521211862917 0 0)
(0.540808525675 0 0)
(0.29521464586 0 0)
(0.620453237149 0 0)
(0.420114908634 0 0)
(0.31851217537 0 0)
(0.621553000604 0 0)
(0.398471826246 0 0)
(0.312651844309 0 0)
(0.45717086824 0 0)
(0.369681780839 0 0)
(0.508220263613 0 0)
(0.527711737884 0 0)
(0.518194177059 0 0)
(0.278854540573 0 0)
(0.281684007627 0 0)
(0.366154451223 0 0)
(0.722094815406 0 0)
(0.829321149081 0 0)
(0.193624584585 0 0)
(0.437954231016 0 0)
(0.825746112849 0 0)
(0.17759570948 0 0)
(0.418073900509 0 0)
(0.487352387562 0 0)
(0.326506281681 0 0)
(0.531057080508 0 0)
(0.484026240849 0 0)
(0.146687021026 0 0)
(0.867084912412 0 0)
(0.626359863281 0 0)
(0.250032483302 0 0)
(0.495243994605 0 0)
(0.143578787229 0 0)
(0.447516096038 0 0)
(0.875433220471 0 0)
(0.492740163595 0 0)
(0.40253690048 0 0)
(0.426942673767 0 0)
(0.573430765099 0 0)
(0.464655564157 0 0)
(0.324633844297 0 0)
(0.33064963277 0 0)
(0.58030088263 0 0)
(0.406450460055 0 0)
(0.230530923429 0 0)
(0.391900077936 0 0)
(0.756802680545 0 0)
(0.374537224217 0 0)
(0.640399677876 0 0)
(0.344062181086 0 0)
(0.166138168768 0 0)
(0.653127786195 0 0)
(0.520223752234 0 0)
(0.579264334494 0 0)
(0.45849129291 0 0)
(0.312251660571 0 0)
(0.475990380623 0 0)
(0.385159937318 0 0)
(0.475409943037 0 0)
(0.415766276668 0 0)
(0.760241417971 0 0)
(0.231812747376 0 0)
(0.262157047925 0 0)
(0.457154649313 0 0)
(0.649965343641 0 0)
(0.739340659871 0 0)
(0.758496382795 0 0)
(0.155239102026 0 0)
(0.139524763895 0 0)
(0.505022590198 0 0)
(0.512992656932 0 0)
(0.584305789844 0 0)
(0.404443375694 0 0)
(0.374387939374 0 0)
(0.382142235024 0 0)
(0.606695598339 0 0)
(0.335132225637 0 0)
(0.522266122721 0 0)
(0.420549569773 0 0)
(0.383113466492 0 0)
(0.420344846197 0 0)
(0.788989104018 0 0)
(0.406044022939 0 0)
(0.196815379465 0 0)
(0.803677025241 0 0)
(0.209579715149 0 0)
(0.605984023529 0 0)
(0.454690098068 0 0)
(0.302312820157 0 0)
(0.74905832401 0 0)
(0.794055402453 0 0)
(0.415688160879 0 0)
(0.440707887588 0 0)
(0.207567911587 0 0)
(0.209581914036 0 0)
(0.608329386015 0 0)
(0.380122025315 0 0)
(0.348448462554 0 0)
(0.555741069896 0 0)
(0.430347598993 0 0)
(0.343639059835 0 0)
(0.686350169866 0 0)
(0.147784854939 0 0)
(0.518219295524 0 0)
(0.566520737224 0 0)
(0.405086094627 0 0)
(0.348716699596 0 0)
(0.54489525571 0 0)
(0.422262251619 0 0)
(0.378395556688 0 0)
(0.733561863618 0 0)
(0.155640263827 0 0)
(0.520524981532 0 0)
(0.565934867859 0 0)
(0.458256199579 0 0)
(0.29989972374 0 0)
(0.308075296944 0 0)
(0.624704492615 0 0)
(0.404178982643 0 0)
(0.487875821076 0 0)
(0.555732844983 0 0)
(0.27298198815 0 0)
(0.342071228614 0 0)
(0.334638103888 0 0)
(0.678109391612 0 0)
(0.0533525250456 0 0)
(0.559135709825 0 0)
(1.03545816838 0 0)
(0.583869066502 0 0)
(0.437683377422 0 0)
(0.33680302559 0 0)
(0.682870056573 0 0)
(0.178328838475 0 0)
(0.505288993688 0 0)
(0.275337264269 0 0)
(0.584684941023 0 0)
(0.472671332305 0 0)
(0.89342107452 0 0)
(0.0818627793279 0 0)
(0.575100487373 0 0)
(0.42840978863 0 0)
(0.420817410988 0 0)
(0.384311747547 0 0)
(0.546523611825 0 0)
(0.359467480069 0 0)
(0.546825346522 0 0)
(0.530171461406 0 0)
(0.421815212625 0 0)
(0.402060078511 0 0)
(0.445815098708 0 0)
(0.428097642151 0 0)
(0.361447245998 0 0)
(0.538593842607 0 0)
(0.365008323735 0 0)
(0.523640538309 0 0)
(0.570585211595 0 0)
(0.426880892243 0 0)
(0.355739509746 0 0)
(0.56458174519 0 0)
(0.420862506729 0 0)
(0.362248480401 0 0)
(0.203528390591 0 0)
(0.420516153246 0 0)
(0.828664614199 0 0)
(0.485163331237 0 0)
(0.510717355418 0 0)
(0.315052466088 0 0)
(0.752490593396 0 0)
(0.445123335517 0 0)
(0.224540976918 0 0)
(0.615865046145 0 0)
(0.63617693278 0 0)
(0.421916411254 0 0)
(0.430577539067 0 0)
(0.29745440194 0 0)
(0.296273278527 0 0)
(0.494836327667 0 0)
(0.510734580742 0 0)
(0.333994903993 0 0)
(0.535030902931 0 0)
(0.525866387591 0 0)
(0.26414285696 0 0)
(0.596162090247 0 0)
(0.424191027095 0 0)
(0.305545593803 0 0)
(0.468577781456 0 0)
(0.476089500927 0 0)
(0.405505921553 0 0)
(0.643510126856 0 0)
(0.412392524734 0 0)
(0.31236232694 0 0)
(0.475025033655 0 0)
(0.366896623642 0 0)
(0.490185150405 0 0)
(0.6080838086 0 0)
(0.401160600845 0 0)
(0.347864259007 0 0)
(0.545146933714 0 0)
(0.525656803315 0 0)
(0.27949000902 0 0)
(0.464706037407 0 0)
(0.455571946269 0 0)
(0.478308894274 0 0)
(0.391820030741 0 0)
(0.48930111208 0 0)
(0.388780220914 0 0)
(0.447007938323 0 0)
(0.37308081107 0 0)
(0.445967225154 0 0)
(0.507796768895 0 0)
(0.383705954504 0 0)
(0.523562627512 0 0)
(0.523566568585 0 0)
(0.52361771439 0 0)
(0.505393440275 0 0)
(0.487197293501 0 0)
(0.32269632771 0 0)
(0.310396527348 0 0)
(0.226025864666 0 0)
(0.51173852782 0 0)
(0.637807875209 0 0)
(0.403855823829 0 0)
(0.612517369929 0 0)
(0.30515391749 0 0)
(0.211976241372 0 0)
(0.231227852158 0 0)
(0.501124095204 0 0)
(0.496603926932 0 0)
(0.638610580879 0 0)
(0.653807455022 0 0)
(0.448290098531 0 0)
(0.299364181624 0 0)
(0.582122583434 0 0)
(0.458017042284 0 0)
(0.417974725803 0 0)
(0.456312156164 0 0)
(0.636351329408 0 0)
(0.411128329342 0 0)
(0.288311119988 0 0)
(0.483893814819 0 0)
(0.33604581016 0 0)
(0.514528546789 0 0)
(0.543271155471 0 0)
(0.509294121348 0 0)
(0.268880455335 0 0)
(0.59350253404 0 0)
(0.607710862576 0 0)
(0.508719456119 0 0)
(0.220821239525 0 0)
(0.509107448342 0 0)
(0.243585173096 0 0)
(0.605037799931 0 0)
(0.436139033664 0 0)
(0.285832790536 0 0)
(0.833803252481 0 0)
(0.541211814149 0 0)
(0.079562512319 0 0)
(0.273821997716 0 0)
(0.579003451119 0 0)
(0.452093043995 0 0)
(0.474076420227 0 0)
(0.471146043029 0 0)
(0.268337988215 0 0)
(0.573313857252 0 0)
(0.278760029151 0 0)
(0.569199538398 0 0)
(0.64501513241 0 0)
(0.36572688695 0 0)
(0.330725696444 0 0)
(0.528812672912 0 0)
(0.533603220745 0 0)
(0.275606281407 0 0)
(0.454723203475 0 0)
(0.290943001272 0 0)
(0.571840386255 0 0)
(0.473572345683 0 0)
(0.4749549108 0 0)
(0.293842806913 0 0)
(0.285265622889 0 0)
(0.555209129744 0 0)
(0.54505695025 0 0)
(0.48047843802 0 0)
(0.28385908101 0 0)
(0.562633884769 0 0)
(0.615924069409 0 0)
(0.436418940661 0 0)
(0.305636980842 0 0)
(0.466299822227 0 0)
(0.374994401117 0 0)
(0.499552711744 0 0)
(0.717194352919 0 0)
(0.178925773739 0 0)
(0.50370792654 0 0)
(0.465023967679 0 0)
(0.286795324334 0 0)
(0.578986665178 0 0)
(0.556403680373 0 0)
(0.564304701525 0 0)
(0.507351517874 0 0)
(0.503914065152 0 0)
(0.285752731985 0 0)
(0.273227546773 0 0)
(0.181727173291 0 0)
(0.491776128086 0 0)
(0.693095069629 0 0)
(0.704275452798 0 0)
(0.17436097336 0 0)
(0.517664977501 0 0)
(0.704121098361 0 0)
(0.155672240143 0 0)
(0.503509488792 0 0)
(0.608026199962 0 0)
(0.226127053492 0 0)
(0.496736901133 0 0)
(0.523799032471 0 0)
(0.525865578986 0 0)
(0.284100236261 0 0)
(0.142153347638 0 0)
(0.0324719572087 0 0)
(0.0848886451027 0 0)
(0.139283250011 0 0)
(0.0277724115447 0 0)
(0.371021229635 0 0)
(0.0228510361552 0 0)
(0.226314854475 0 0)
(0.031745654873 0 0)
(0.00672286886642 0 0)
(0.00508108002976 0 0)
(0.0250327662018 0 0)
(0.0908755800777 0 0)
(0.0235334426763 0 0)
(0.00688475054813 0 0)
(0.0718619210764 0 0)
(0.187237483861 0 0)
(0.0140803097264 0 0)
(0.0237784115524 0 0)
(-0.0124043960922 0 0)
(0.00923999832872 0 0)
(0.0180244730841 0 0)
(-0.00698461545032 0 0)
(0.131452735379 0 0)
(0.0616180021733 0 0)
(0.0340255546293 0 0)
(0.02409106679 0 0)
(0.0234322299841 0 0)
(0.0131443646836 0 0)
(0.129970192628 0 0)
(0.0217528366651 0 0)
(0.0205081307537 0 0)
(0.013434956481 0 0)
(-0.00337202740591 0 0)
(0.0189668843058 0 0)
(0.0086983633807 0 0)
(0.00374917861845 0 0)
(0.0018565856944 0 0)
(0.164363008345 0 0)
(0.167279312692 0 0)
(0.0161424818393 0 0)
(-0.0306508617944 0 0)
(0.019680254551 0 0)
(0.0243785099693 0 0)
(0.169588750893 0 0)
(0.00672514530921 0 0)
(0.00595026807285 0 0)
(0.0102162215844 0 0)
(0.0250415637578 0 0)
(0.0166148507642 0 0)
(0.074915313919 0 0)
(-0.0058082124791 0 0)
(0.0693834922556 0 0)
(0.004680079516 0 0)
(0.0232721841978 0 0)
(0.0747930128639 0 0)
(0.000313798624979 0 0)
(0.0133626492295 0 0)
(0.00847252754454 0 0)
(0.0239402924086 0 0)
(0.014931907609 0 0)
(0.0199046651147 0 0)
(0.0555513668661 0 0)
(0.215849784089 0 0)
(0.00825508863356 0 0)
(-0.00442057128936 0 0)
(0.0113190536862 0 0)
(0.198147145553 0 0)
(-0.00361127417014 0 0)
(0.142989701423 0 0)
(0.0105861450586 0 0)
(0.0133119245811 0 0)
(0.0437758693666 0 0)
(-0.00827972955689 0 0)
(0.0137084671866 0 0)
(-0.0023320217078 0 0)
(0.0600255803524 0 0)
(0.017377572548 0 0)
(0.0392147093168 0 0)
(0.00535695051728 0 0)
(0.0171300675682 0 0)
(0.00572665339938 0 0)
(0.0270090665877 0 0)
(0.0512154528884 0 0)
(-0.000290763069364 0 0)
(0.0352774610873 0 0)
(0.000217764031142 0 0)
(0.188364973763 0 0)
(0.00430125096975 0 0)
(0.117093085147 0 0)
(0.0626627876181 0 0)
(0.0111326252648 0 0)
(0.06797610603 0 0)
(-0.00228810157435 0 0)
(0.096745238662 0 0)
(0.449488984614 0 0)
(0.0214437560939 0 0)
(0.0100904415234 0 0)
(0.100124172021 0 0)
(0.0118143455828 0 0)
(0.0205463690314 0 0)
(-0.0118581266303 0 0)
(0.177923393632 0 0)
(0.218516512486 0 0)
(0.0660064886369 0 0)
(0.193607541718 0 0)
(0.0271629642991 0 0)
(0.061253213749 0 0)
(0.0216876863514 0 0)
(0.010540845191 0 0)
(-0.0234138774874 0 0)
(-0.00943724370264 0 0)
(0.0351377056987 0 0)
(0.0108362802643 0 0)
(0.178462828974 0 0)
(0.147629951208 0 0)
(0.00437867518216 0 0)
(0.170156242741 0 0)
(0.0123903536344 0 0)
(0.0140495297974 0 0)
(0.00595366727011 0 0)
(0.184587169038 0 0)
(0.220392807144 0 0)
(-0.00460293900355 0 0)
(0.0274586326489 0 0)
(0.0527528380773 0 0)
(0.0209799232741 0 0)
(0.114286155497 0 0)
(0.193047178275 0 0)
(-0.00162645225398 0 0)
(0.010327531699 0 0)
(0.116876492739 0 0)
(0.0262312477205 0 0)
(0.365410473605 0 0)
(0.15151273908 0 0)
(0.00567429771184 0 0)
(-0.00334381392177 0 0)
(0.010259413197 0 0)
(0.0291384095566 0 0)
(0.0226056636828 0 0)
(0.0794000497551 0 0)
(0.0364154344051 0 0)
(0.126096521128 0 0)
(0.0454977193856 0 0)
(0.13738287891 0 0)
(0.00535121560363 0 0)
(0.0536847984232 0 0)
(-0.000229134357703 0 0)
(0.0274329541702 0 0)
(0.00684799886538 0 0)
(0.0225214885607 0 0)
(0.0426875277151 0 0)
(0.147766938734 0 0)
(0.0316164160377 0 0)
(0.0150944779419 0 0)
(0.0056495823376 0 0)
(0.001915816336 0 0)
(0.0402354416869 0 0)
(0.0833057187007 0 0)
(0.0602856538953 0 0)
(0.0471777512349 0 0)
(0.0457959509086 0 0)
(0.0891721786397 0 0)
(0.221300962158 0 0)
(0.207541665335 0 0)
(0.0283676231426 0 0)
(0.0770617373384 0 0)
(0.0123569734513 0 0)
(0.10193676163 0 0)
(0.0676069409812 0 0)
(0.0121521950909 0 0)
(0.125728844836 0 0)
(0.0250916849195 0 0)
(0.063556225258 0 0)
(0.0344345343436 0 0)
(0.0112135045913 0 0)
(0.0205010398045 0 0)
(0.0945805443886 0 0)
(0.0382728883816 0 0)
(0.0316021247029 0 0)
(0.252039767112 0 0)
(0.0325189323042 0 0)
(0.0116868833525 0 0)
(0.00788192590345 0 0)
(0.0127262558307 0 0)
(0.0829308795452 0 0)
(0.00259731565596 0 0)
(0.0150944230344 0 0)
(0.0264308441374 0 0)
(0.00856426439078 0 0)
(-0.125625897454 0 0)
(0.387078283102 0 0)
(0.139078247286 0 0)
(0.03122700935 0 0)
(0.00788111942515 0 0)
(-0.026534518883 0 0)
(0.0195659408165 0 0)
(0.0314397782782 0 0)
(0.0113369794277 0 0)
(0.0483116364606 0 0)
(0.0121098118913 0 0)
(0.242563684569 0 0)
(0.0236194222299 0 0)
(-0.0146627506326 0 0)
(0.0279509494898 0 0)
(0.138705552747 0 0)
(0.0544920032334 0 0)
(0.00797838147506 0 0)
(0.0974602480048 0 0)
(0.0407573006903 0 0)
(0.00976916875994 0 0)
(0.318172854387 0 0)
(0.273705662878 0 0)
(0.0208837203284 0 0)
(0.0477413200945 0 0)
(0.291941234605 0 0)
(0.012154959511 0 0)
(0.228766133877 0 0)
(-0.014707062925 0 0)
(-0.000581548782838 0 0)
(0.0110890932379 0 0)
(0.00515553550195 0 0)
(0.065335400884 0 0)
(0.103830070509 0 0)
(-0.00196861078619 0 0)
(0.00462094269854 0 0)
(0.0564601961362 0 0)
(0.0318209818688 0 0)
(0.156889830248 0 0)
(-0.00607914771617 0 0)
(0.194208042376 0 0)
(-0.00477239489521 0 0)
(-0.00735563550571 0 0)
(0.00400089589751 0 0)
(0.0345363722372 0 0)
(0.000416834612269 0 0)
(0.0176997505849 0 0)
(0.0124335237774 0 0)
(0.233065057997 0 0)
(-0.00500672287973 0 0)
(-0.00154304580914 0 0)
(0.184706245233 0 0)
(0.0649219878965 0 0)
(-0.0250438292848 0 0)
(0.0865003970893 0 0)
(0.00870102502052 0 0)
(0.00938374566969 0 0)
(0.00398126853383 0 0)
(0.104754073978 0 0)
(0.012428076459 0 0)
(0.0180106687683 0 0)
(-0.0391070437066 0 0)
(0.0177022750447 0 0)
(-0.00440668958458 0 0)
(0.059290697607 0 0)
(-0.00375368913349 0 0)
(0.18881532219 0 0)
(0.00560339140553 0 0)
(0.0842331610877 0 0)
(0.0299597329247 0 0)
(0.0129764363202 0 0)
(0.0131655780928 0 0)
(0.280579974229 0 0)
(0.0511765176746 0 0)
(0.0384457942449 0 0)
(0.0704946997237 0 0)
(0.0140478470223 0 0)
(0.0125760220338 0 0)
(0.027653035043 0 0)
(2.03780691824e-05 0 0)
(0.0099661849626 0 0)
(0.0952992095021 0 0)
(0.00986721466419 0 0)
(0.0127712504799 0 0)
(0.00552597230887 0 0)
(0.00352831836062 0 0)
(0.00823900376179 0 0)
(-0.00359157154469 0 0)
(0.0149189390696 0 0)
(0.0116703834575 0 0)
(0.0210837066545 0 0)
(0.0227193409571 0 0)
(0.0168908218323 0 0)
(-0.00306163428758 0 0)
(0.304953662966 0 0)
(0.014439225422 0 0)
(0.0541573415136 0 0)
(-0.00499002650511 0 0)
(0.035810580133 0 0)
(0.255834066718 0 0)
(0.0227565811006 0 0)
(0.0218251206931 0 0)
(0.324489674688 0 0)
(0.330371465656 0 0)
(0.0859014867396 0 0)
(0.112318907132 0 0)
(0.00221354507195 0 0)
(0.0705264647261 0 0)
(0.34369017324 0 0)
(0.0525049400488 0 0)
(0.0573512370692 0 0)
(0.0143136431051 0 0)
(0.138292915383 0 0)
(0.00976709227925 0 0)
(0.0189939079028 0 0)
(0.0100260697365 0 0)
(0.0222415153489 0 0)
(0.0046982877632 0 0)
(-0.00827742509023 0 0)
(0.0274544511223 0 0)
(0.0119275148942 0 0)
(0.0151146625768 0 0)
(0.0244910426147 0 0)
(0.0328709609161 0 0)
(0.223535796658 0 0)
(-0.0107278305227 0 0)
(0.0372543729112 0 0)
(0.337601643069 0 0)
(0.0801911981092 0 0)
(0.0509022814503 0 0)
(0.0202759937506 0 0)
(0.00221383030456 0 0)
(0.00901502497323 0 0)
(-0.0340686890294 0 0)
(0.133820292684 0 0)
(0.0601527651034 0 0)
(0.0136684539863 0 0)
(-0.00561793654337 0 0)
(0.155857775892 0 0)
(0.151195406957 0 0)
(0.00719980440463 0 0)
(-0.0105780981593 0 0)
(0.0229338677282 0 0)
(0.00717153188685 0 0)
(0.00789391180559 0 0)
(0.0153805343745 0 0)
(0.0164128781523 0 0)
(0.0104829362455 0 0)
(0.17149773282 0 0)
(0.0801346055554 0 0)
(0.00849878329562 0 0)
(0.0155478560342 0 0)
(0.0732752518598 0 0)
(0.149460371362 0 0)
(0.0724110971271 0 0)
(0.176072167371 0 0)
(0.0385156113432 0 0)
(0.0964703402192 0 0)
(0.0383578743197 0 0)
(0.144252339659 0 0)
(0.112634365266 0 0)
(0.0467841761667 0 0)
(0.217772556828 0 0)
(0.0178488626343 0 0)
(-0.00253274050844 0 0)
(0.330424365938 0 0)
(0.0184214161729 0 0)
(0.0272632388758 0 0)
(0.0271400829434 0 0)
(0.0640498908276 0 0)
(0.00973508775972 0 0)
(0.0456192124388 0 0)
(0.160903042642 0 0)
(0.0100559933194 0 0)
(0.024826297628 0 0)
(0.0409270931039 0 0)
(0.00712700685071 0 0)
(0.0150174610804 0 0)