/*--------------------------------*- C++ -*----------------------------------*\
  =========                 |
  \\      /  F ield         | OpenFOAM: The Open Source CFD Toolbox
   \\    /   O peration     | Website:  https://openfoam.org
    \\  /    A nd           | Version:  6
     \\/     M anipulation  |
\*---------------------------------------------------------------------------*/
FoamFile
{
    version     2.0;
    format      ascii;
    class       volVectorField;
    location    "0";
    object      Uliftx0;
}
// * * * * * * * * * * * * * * * * * * * * * * * * * * * * * * * * * * * * * //

dimensions      [0 1 -1 0 0 0 0];

internalField   nonuniform List<vector> 
13046
(
(0.416974132882 0 0)
(0.534498918484 0 0)
(0.410603461669 0 0)
(0.439099227472 0 0)
(0.382323535349 0 0)
(0.496798223448 0 0)
(0.453314550919 0 0)
(0.52358192585 0 0)
(0.383365515354 0 0)
(0.452322824329 0 0)
(0.738704928041 0 0)
(0.211265873368 0 0)
(0.430392520536 0 0)
(0.554504195936 0 0)
(0.364390753241 0 0)
(0.399917508391 0 0)
(0.271492190124 0 0)
(0.724261834736 0 0)
(0.407565663809 0 0)
(0.461390861433 0 0)
(0.491876607898 0 0)
(0.399392605707 0 0)
(0.245955691209 0 0)
(0.71341449828 0 0)
(0.422940123197 0 0)
(0.498574484817 0 0)
(0.406831938283 0 0)
(0.405133662662 0 0)
(0.55658911469 0 0)
(0.359193956545 0 0)
(0.397080525466 0 0)
(0.53602049365 0 0)
(0.398750531404 0 0)
(0.419412323549 0 0)
(0.41090595887 0 0)
(0.483370097294 0 0)
(0.442028847526 0 0)
(0.426155456035 0 0)
(0.48405425276 0 0)
(0.350080604191 0 0)
(0.435950502568 0 0)
(0.53997929874 0 0)
(0.451365295499 0 0)
(0.432462751665 0 0)
(0.451465301413 0 0)
(0.455621823641 0 0)
(0.412342061893 0 0)
(0.451069138261 0 0)
(0.414366053574 0 0)
(0.522362078362 0 0)
(0.378878340198 0 0)
(0.46937507507 0 0)
(0.29263083546 0 0)
(0.547822017244 0 0)
(0.490399282647 0 0)
(0.551647806278 0 0)
(0.290399297668 0 0)
(0.642309642809 0 0)
(0.329062900537 0 0)
(0.357915577913 0 0)
(0.485363982502 0 0)
(0.577071597969 0 0)
(0.302773547389 0 0)
(0.256873685629 0 0)
(0.66003523286 0 0)
(0.434140000628 0 0)
(0.32023321022 0 0)
(0.639041601106 0 0)
(0.377672644517 0 0)
(0.322060806462 0 0)
(0.626856004869 0 0)
(0.380431166178 0 0)
(0.660043155991 0 0)
(0.338194162962 0 0)
(0.343598328075 0 0)
(0.391759773373 0 0)
(0.450841795964 0 0)
(0.492049568557 0 0)
(0.316289422572 0 0)
(0.346015007416 0 0)
(0.669371390813 0 0)
(0.433415366709 0 0)
(0.509221769551 0 0)
(0.39351764569 0 0)
(0.249682165595 0 0)
(0.684032391441 0 0)
(0.441869592136 0 0)
(0.482808013181 0 0)
(0.232915648669 0 0)
(0.635265372495 0 0)
(0.196464619864 0 0)
(0.541612956688 0 0)
(0.630242911162 0 0)
(0.419242900222 0 0)
(0.427078495297 0 0)
(0.611744640469 0 0)
(0.617590270162 0 0)
(0.327483913555 0 0)
(0.307539328189 0 0)
(0.238346986372 0 0)
(0.500334222209 0 0)
(0.628814657435 0 0)
(0.464610251501 0 0)
(0.411224350152 0 0)
(0.475364104899 0 0)
(0.30709895757 0 0)
(0.525108338186 0 0)
(0.497023436086 0 0)
(0.316072579809 0 0)
(0.460705859367 0 0)
(0.540199657968 0 0)
(0.486546426522 0 0)
(0.169225968095 0 0)
(0.841882743657 0 0)
(0.425611748644 0 0)
(0.53669317175 0 0)
(0.376811291266 0 0)
(0.400321859621 0 0)
(0.403824015085 0 0)
(0.632684374284 0 0)
(0.317075391245 0 0)
(0.621139633706 0 0)
(0.323815972234 0 0)
(0.450055525199 0 0)
(0.746704191663 0 0)
(0.195561428577 0 0)
(0.413153026112 0 0)
(0.5882698436 0 0)
(0.347839108731 0 0)
(0.359954493041 0 0)
(0.431272889715 0 0)
(0.552601034433 0 0)
(0.198542256655 0 0)
(0.530855122457 0 0)
(0.602143694198 0 0)
(0.456900972226 0 0)
(0.635019446991 0 0)
(0.28541663741 0 0)
(0.392456110416 0 0)
(0.544189159707 0 0)
(0.387736827477 0 0)
(0.48370518079 0 0)
(0.538635743318 0 0)
(0.342506339469 0 0)
(0.317172392825 0 0)
(0.484248268744 0 0)
(0.548654066197 0 0)
(0.329560974107 0 0)
(0.520411543572 0 0)
(0.499267279044 0 0)
(0.466940088268 0 0)
(0.580523314228 0 0)
(0.288266245829 0 0)
(0.35884047153 0 0)
(0.494533549461 0 0)
(0.501065386259 0 0)
(0.520719471328 0 0)
(0.545541522657 0 0)
(0.524753819612 0 0)
(0.528806386322 0 0)
(0.276492679631 0 0)
(0.257111846617 0 0)
(0.492263728102 0 0)
(0.515523712853 0 0)
(0.319675573685 0 0)
(0.470601178559 0 0)
(0.203566818028 0 0)
(0.727608835767 0 0)
(0.454210111152 0 0)
(0.170364164581 0 0)
(0.78263034452 0 0)
(0.435486908631 0 0)
(0.633147562359 0 0)
(0.271397687264 0 0)
(0.339150135262 0 0)
(0.574955564049 0 0)
(0.420980178511 0 0)
(0.50691100982 0 0)
(0.332784336715 0 0)
(0.509011750097 0 0)
(0.192970055221 0 0)
(0.690896081337 0 0)
(0.477098533183 0 0)
(0.343202285871 0 0)
(0.56552539534 0 0)
(0.430396806115 0 0)
(0.335054531282 0 0)
(0.493845064073 0 0)
(0.490786648204 0 0)
(0.468941426603 0 0)
(0.512285645418 0 0)
(0.342254790422 0 0)
(0.564263394379 0 0)
(0.344754518987 0 0)
(0.428954032985 0 0)
(0.585662376939 0 0)
(0.359925199235 0 0)
(0.472810105535 0 0)
(0.241284706698 0 0)
(0.675977003038 0 0)
(0.229005563945 0 0)
(0.520012958736 0 0)
(0.613377247524 0 0)
(0.522539676954 0 0)
(0.652529775274 0 0)
(0.207258948615 0 0)
(0.470223669337 0 0)
(0.579631973919 0 0)
(0.280942395771 0 0)
(0.44253830134 0 0)
(0.344876375552 0 0)
(0.338763468414 0 0)
(0.685924553081 0 0)
(0.657623109226 0 0)
(0.517287609097 0 0)
(0.194678031441 0 0)
(0.439921024317 0 0)
(0.400588648997 0 0)
(0.472663799122 0 0)
(0.406858041426 0 0)
(0.566535973654 0 0)
(0.385757575029 0 0)
(0.213710608632 0 0)
(0.524976068366 0 0)
(0.596381117197 0 0)
(0.445887985437 0 0)
(0.561625735245 0 0)
(0.352416149891 0 0)
(0.17652260996 0 0)
(0.763697480088 0 0)
(0.489143230822 0 0)
(0.265419379753 0 0)
(0.564082387928 0 0)
(0.476822846026 0 0)
(0.499907217924 0 0)
(0.612516428586 0 0)
(0.207553557627 0 0)
(0.507939849469 0 0)
(0.516904939578 0 0)
(0.287715489072 0 0)
(0.399888245328 0 0)
(0.594569144565 0 0)
(0.346042895366 0 0)
(0.569039264371 0 0)
(0.552180474083 0 0)
(0.227866517379 0 0)
(0.543257177187 0 0)
(0.545686894775 0 0)
(0.253484651553 0 0)
(0.150210062018 0 0)
(0.753424680896 0 0)
(0.490569230926 0 0)
(0.329334610705 0 0)
(0.460585264601 0 0)
(0.561317845602 0 0)
(0.445885482805 0 0)
(0.180736738318 0 0)
(0.866588455313 0 0)
(0.383605461032 0 0)
(0.463165189808 0 0)
(0.461033377953 0 0)
(0.490602514405 0 0)
(0.508009912682 0 0)
(0.536845882553 0 0)
(0.537030456806 0 0)
(0.316472597504 0 0)
(0.297559938401 0 0)
(0.305497549352 0 0)
(0.361652170029 0 0)
(0.697882632278 0 0)
(0.398980799363 0 0)
(0.589559519327 0 0)
(0.365627377727 0 0)
(0.541129901315 0 0)
(0.556450527872 0 0)
(0.245622845338 0 0)
(0.421905639898 0 0)
(0.63102222814 0 0)
(0.297534945667 0 0)
(0.443447507661 0 0)
(0.462174519846 0 0)
(0.443501363284 0 0)
(0.526779696994 0 0)
(0.544353153716 0 0)
(0.286234244062 0 0)
(0.379003133301 0 0)
(0.593470037961 0 0)
(0.358718669956 0 0)
(0.4320401433 0 0)
(0.459636206919 0 0)
(0.30821913677 0 0)
(0.450308516169 0 0)
(0.561843306922 0 0)
(0.514234978442 0 0)
(0.548562398285 0 0)
(0.265817326081 0 0)
(0.433499310629 0 0)
(0.285347673913 0 0)
(0.643362453679 0 0)
(0.332878651076 0 0)
(0.45945643219 0 0)
(0.535198053895 0 0)
(0.260600637579 0 0)
(0.546669933495 0 0)
(0.509050457992 0 0)
(0.367418284714 0 0)
(0.61784585941 0 0)
(0.339513050118 0 0)
(0.30757434375 0 0)
(0.470055299332 0 0)
(0.570028372242 0 0)
(0.379900200723 0 0)
(0.381764753828 0 0)
(0.647665016521 0 0)
(0.341888189585 0 0)
(0.640221515541 0 0)
(0.315097592327 0 0)
(0.219791608664 0 0)
(0.698450124618 0 0)
(0.477841997189 0 0)
(0.393908779451 0 0)
(0.606096498106 0 0)
(0.337245303052 0 0)
(0.902031073092 0 0)
(0.123606308544 0 0)
(0.493107618359 0 0)
(0.484263279369 0 0)
(0.357084720835 0 0)
(0.477195541475 0 0)
(0.468829756379 0 0)
(0.558002460945 0 0)
(0.306725820437 0 0)
(0.24276579291 0 0)
(0.455087738338 0 0)
(0.641717399838 0 0)
(0.489803043585 0 0)
(0.557283516233 0 0)
(0.272410927654 0 0)
(0.56840272266 0 0)
(0.533123178458 0 0)
(0.210490373131 0 0)
(0.544814922845 0 0)
(0.35896318267 0 0)
(0.438443015363 0 0)
(0.578890150173 0 0)
(0.31420314823 0 0)
(0.5280970345 0 0)
(0.341456885611 0 0)
(0.381318879804 0 0)
(0.268783698089 0 0)
(0.686784069812 0 0)
(0.463622773607 0 0)
(0.589330908011 0 0)
(0.274534418933 0 0)
(0.454485535388 0 0)
(0.602545513758 0 0)
(0.313506804109 0 0)
(0.48363957166 0 0)
(0.519777430253 0 0)
(0.319067787834 0 0)
(0.532181893552 0 0)
(0.485458730899 0 0)
(0.300909585412 0 0)
(0.43077439873 0 0)
(0.522122379377 0 0)
(0.387565728513 0 0)
(0.269997392695 0 0)
(0.559880607064 0 0)
(0.510447151281 0 0)
(0.484447774968 0 0)
(0.652265292827 0 0)
(0.217443771817 0 0)
(0.587760813498 0 0)
(0.53103497566 0 0)
(0.227675792638 0 0)
(0.313777464577 0 0)
(0.400952015827 0 0)
(0.615622811505 0 0)
(0.366448509172 0 0)
(0.3538636775 0 0)
(0.644845444159 0 0)
(0.669212518631 0 0)
(0.336210465408 0 0)
(0.334606162867 0 0)
(0.150299735477 0 0)
(0.894819422465 0 0)
(0.490198172623 0 0)
(0.418069003125 0 0)
(0.182616694268 0 0)
(0.807745898782 0 0)
(0.505029505396 0 0)
(0.566132578528 0 0)
(0.297735885331 0 0)
(0.221190134688 0 0)
(0.462382406873 0 0)
(0.682646553164 0 0)
(0.338737273235 0 0)
(0.349958136213 0 0)
(0.615003291178 0 0)
(0.624653921306 0 0)
(0.367272569241 0 0)
(0.356772071162 0 0)
(0.163201354689 0 0)
(0.676114302343 0 0)
(0.525266843659 0 0)
(0.450765052797 0 0)
(0.170718911134 0 0)
(0.881435645797 0 0)
(0.477416725551 0 0)
(0.407347533746 0 0)
(0.436498438754 0 0)
(0.458307107757 0 0)
(0.835869135036 0 0)
(0.147654142387 0 0)
(0.34633023401 0 0)
(0.576983691434 0 0)
(0.405300307247 0 0)
(0.500554881309 0 0)
(0.687557136037 0 0)
(0.20088075876 0 0)
(0.901019933888 0 0)
(0.0898287379347 0 0)
(0.537739913818 0 0)
(0.359111135724 0 0)
(0.449708119546 0 0)
(0.534508785094 0 0)
(0.469978684564 0 0)
(0.47892049904 0 0)
(0.380904773527 0 0)
(0.432372248981 0 0)
(0.211467822202 0 0)
(0.762784376589 0 0)
(0.479832538437 0 0)
(0.492826359584 0 0)
(0.371989598125 0 0)
(0.477759215654 0 0)
(0.424830678089 0 0)
(0.449734107379 0 0)
(0.265406554054 0 0)
(0.577380238451 0 0)
(0.503643766001 0 0)
(0.49993651766 0 0)
(0.45890386106 0 0)
(0.379290794357 0 0)
(0.503627407988 0 0)
(0.473102722296 0 0)
(0.379379050041 0 0)
(0.29827892594 0 0)
(0.599992410278 0 0)
(0.406107751649 0 0)
(0.241165623924 0 0)
(0.214350435434 0 0)
(0.72578571909 0 0)
(0.704533831559 0 0)
(0.430670919011 0 0)
(0.435909567829 0 0)
(0.500822296558 0 0)
(0.67483461141 0 0)
(0.208373336031 0 0)
(0.395375443465 0 0)
(0.315846092333 0 0)
(0.623045594892 0 0)
(0.3282805987 0 0)
(0.434824011442 0 0)
(0.549374633734 0 0)
(0.54730665768 0 0)
(0.532039430594 0 0)
(0.237773696144 0 0)
(0.81984521107 0 0)
(0.106887374053 0 0)
(0.551058068541 0 0)
(0.17961460321 0 0)
(0.524573865773 0 0)
(0.629969595543 0 0)
(0.466747094604 0 0)
(0.186098095816 0 0)
(0.776762479546 0 0)
(0.0595377736695 0 0)
(0.944313339304 0 0)
(0.567107466797 0 0)
(1.01635755157 0 0)
(0.1112801595 0 0)
(0.527833498289 0 0)
(0.583784575151 0 0)
(0.496287927522 0 0)
(0.275091434243 0 0)
(0.726646598445 0 0)
(0.146893121868 0 0)
(0.537296311322 0 0)
(0.45578356731 0 0)
(0.622031081994 0 0)
(0.258567372831 0 0)
(0.385168129481 0 0)
(0.257870357465 0 0)
(0.751224510531 0 0)
(0.440135037947 0 0)
(0.371735453782 0 0)
(0.531657428947 0 0)
(0.655088325477 0 0)
(0.178918062666 0 0)
(0.523909565426 0 0)
(0.557908955749 0 0)
(0.255119190436 0 0)
(0.521394424679 0 0)
(0.560901998793 0 0)
(0.52479397236 0 0)
(0.243781959053 0 0)
(0.0531543264254 0 0)
(1.39333885478 0 0)
(0.754865488387 0 0)
(0.863246016468 0 0)
(0.100881035927 0 0)
(0.51875086239 0 0)
(0.430561946547 0 0)
(0.372784943092 0 0)
(0.521416049002 0 0)
(0.696413712556 0 0)
(0.512939250681 0 0)
(0.172894224663 0 0)
(0.160608201219 0 0)
(0.535674382336 0 0)
(0.694006597102 0 0)
(0.450497183218 0 0)
(0.232389804344 0 0)
(0.692493440303 0 0)
(0.287720352242 0 0)
(0.687085162638 0 0)
(0.379801155848 0 0)
(0.298448897346 0 0)
(0.612122771288 0 0)
(0.431851959163 0 0)
(0.638620131716 0 0)
(0.351833967483 0 0)
(0.350041182855 0 0)
(0.2798852499 0 0)
(0.354901620062 0 0)
(0.691890183568 0 0)
(0.366065142423 0 0)
(0.379264153831 0 0)
(0.573893313863 0 0)
(0.59817709792 0 0)
(0.383654244881 0 0)
(0.381956547592 0 0)
(0.361879456383 0 0)
(0.572543611779 0 0)
(0.402231116259 0 0)
(0.334894681006 0 0)
(0.628993949345 0 0)
(0.38557105003 0 0)
(0.575805921928 0 0)
(0.522985555758 0 0)
(0.23628640073 0 0)
(0.661199502479 0 0)
(0.500678145554 0 0)
(0.18840936988 0 0)
(0.229298113092 0 0)
(0.504044947176 0 0)
(0.583699259691 0 0)
(0.915741076991 0 0)
(0.111373930153 0 0)
(0.487809533194 0 0)
(0.38241015991 0 0)
(0.390679162654 0 0)
(0.430413564877 0 0)
(0.542148921497 0 0)
(0.412660517796 0 0)
(0.528965563685 0 0)
(0.339479913645 0 0)
(0.325737083138 0 0)
(0.401293547935 0 0)
(0.612677947692 0 0)
(0.401412855189 0 0)
(0.59416994433 0 0)
(0.886549987129 0 0)
(0.0854445202481 0 0)
(0.572586283427 0 0)
(0.674185841868 0 0)
(0.500368967716 0 0)
(0.180213952116 0 0)
(0.306132234174 0 0)
(0.443462754274 0 0)
(0.571063754964 0 0)
(0.54525876525 0 0)
(0.543207135311 0 0)
(0.227807621114 0 0)
(0.30556080044 0 0)
(0.682472278772 0 0)
(0.37557681419 0 0)
(0.795397567885 0 0)
(0.494434409262 0 0)
(0.125086018538 0 0)
(0.796340142217 0 0)
(0.514365475985 0 0)
(0.151217566048 0 0)
(0.366516434541 0 0)
(0.618723124311 0 0)
(0.354704692599 0 0)
(0.342879590711 0 0)
(0.473668819784 0 0)
(0.530312419769 0 0)
(0.455791454892 0 0)
(0.230278826652 0 0)
(0.706197873323 0 0)
(0.583054494773 0 0)
(0.498946580948 0 0)
(0.257356482549 0 0)
(0.275217573648 0 0)
(0.655257334406 0 0)
(0.429420014098 0 0)
(0.323812510748 0 0)
(0.417146332805 0 0)
(0.5934501155 0 0)
(0.531475990991 0 0)
(0.518313984145 0 0)
(0.305581985476 0 0)
(0.345727502289 0 0)
(0.450176176571 0 0)
(0.547642908237 0 0)
(0.207929553393 0 0)
(0.698800829522 0 0)
(0.456550883898 0 0)
(0.408254840985 0 0)
(0.644575203138 0 0)
(0.30216264375 0 0)
(0.366473498574 0 0)
(0.433923179952 0 0)
(0.520663101845 0 0)
(0.369306196557 0 0)
(0.279572139884 0 0)
(0.720887168541 0 0)
(0.375850847236 0 0)
(0.55176430105 0 0)
(0.393991725432 0 0)
(0.474723711725 0 0)
(0.504604794084 0 0)
(0.349293227796 0 0)
(0.565659127274 0 0)
(0.524766779404 0 0)
(0.265235605527 0 0)
(0.398375557502 0 0)
(0.204842367467 0 0)
(0.783295393542 0 0)
(0.40058502051 0 0)
(0.231720963365 0 0)
(0.78305957898 0 0)
(0.280062380043 0 0)
(0.664821266589 0 0)
(0.411867757457 0 0)
(0.529956518505 0 0)
(0.503805053466 0 0)
(0.280429418538 0 0)
(0.207249989662 0 0)
(0.824836024295 0 0)
(0.417167612485 0 0)
(0.257006411324 0 0)
(0.641187600319 0 0)
(0.468038823147 0 0)
(0.062424686659 0 0)
(1.04664927527 0 0)
(0.619467635605 0 0)
(0.560594791211 0 0)
(1.08046336667 0 0)
(0.0972665903831 0 0)
(0.287703822424 0 0)
(0.693638654702 0 0)
(0.38163215502 0 0)
(0.179986490069 0 0)
(0.729501312025 0 0)
(0.472723113708 0 0)
(0.421280217602 0 0)
(0.418617557742 0 0)
(0.252399071642 0 0)
(0.708555623643 0 0)
(0.257108915035 0 0)
(0.693227437087 0 0)
(0.477356184983 0 0)
(0.628854748171 0 0)
(0.248804492171 0 0)
(0.236610305591 0 0)
(0.546757234092 0 0)
(0.557008470602 0 0)
(0.398176963194 0 0)
(0.410471877567 0 0)
(0.512242106736 0 0)
(0.488771277788 0 0)
(0.600544678687 0 0)
(0.238914195172 0 0)
(0.254057156399 0 0)
(0.504508549634 0 0)
(0.599584811971 0 0)
(0.354355432733 0 0)
(0.3039233258 0 0)
(0.696980729264 0 0)
(0.31520523228 0 0)
(0.610124265469 0 0)
(0.386559355282 0 0)
(0.344412327842 0 0)
(0.591088241455 0 0)
(0.396221196393 0 0)
(0.480446018162 0 0)
(0.600659438802 0 0)
(0.286672827364 0 0)
(0.480231097946 0 0)
(0.585160939807 0 0)
(0.26238943756 0 0)
(0.379857182184 0 0)
(0.446374943003 0 0)
(0.519426273949 0 0)
(0.354384546327 0 0)
(0.595928642139 0 0)
(0.37244171615 0 0)
(0.179391808387 0 0)
(0.650393075219 0 0)
(0.538785165601 0 0)
(0.522639119588 0 0)
(0.12478768042 0 0)
(0.765480396068 0 0)
(0.529241165596 0 0)
(0.110408660156 0 0)
(0.772886189249 0 0)
(0.352348165849 0 0)
(0.42154624909 0 0)
(0.557933015176 0 0)
(0.858321387278 0 0)
(0.126171435623 0 0)
(0.526790760615 0 0)
(0.406199374248 0 0)
(0.295473072659 0 0)
(0.655508076481 0 0)
(0.0890482401653 0 0)
(0.823049290358 0 0)
(0.528800039591 0 0)
(0.460526416923 0 0)
(0.399164355011 0 0)
(0.493337395733 0 0)
(0.426810369899 0 0)
(0.573572957277 0 0)
(0.333436705449 0 0)
(0.498639896564 0 0)
(0.542690043782 0 0)
(0.293936795729 0 0)
(0.146127778088 0 0)
(0.69042162492 0 0)
(0.51569147044 0 0)
(0.567192049486 0 0)
(0.509710357269 0 0)
(0.247112435281 0 0)
(0.256345157822 0 0)
(0.369398587635 0 0)
(0.721480137215 0 0)
(0.437612288389 0 0)
(0.596493353463 0 0)
(0.330527191893 0 0)
(0.417468639887 0 0)
(0.427048142264 0 0)
(0.511569825104 0 0)
(0.712789240989 0 0)
(0.516420767813 0 0)
(0.167525838395 0 0)
(0.271640327179 0 0)
(0.660303192531 0 0)
(0.454637083536 0 0)
(0.424340214945 0 0)
(0.44441486867 0 0)
(0.197814338589 0 0)
(0.196903492934 0 0)
(0.768450988362 0 0)
(0.814174743069 0 0)
(0.490905695732 0 0)
(0.540855355674 0 0)
(0.318399089357 0 0)
(0.565113900159 0 0)
(0.496278602686 0 0)
(0.27652829663 0 0)
(0.453786632373 0 0)
(0.503120029433 0 0)
(0.357256088099 0 0)
(0.751151767494 0 0)
(0.519076797413 0 0)
(0.727962738911 0 0)
(0.141016162479 0 0)
(0.526234305295 0 0)
(0.122314373059 0 0)
(0.440441005573 0 0)
(0.603888265439 0 0)
(0.301850844699 0 0)
(0.497716875028 0 0)
(0.513419639762 0 0)
(0.715039444171 0 0)
(0.748795413916 0 0)
(0.161130776083 0 0)
(0.155365529687 0 0)
(0.509862103305 0 0)
(0.566464657611 0 0)
(0.285770060681 0 0)
(0.451979437542 0 0)
(0.546064143778 0 0)
(0.329195443753 0 0)
(0.385572161381 0 0)
(0.230814463948 0 0)
(0.752768252568 0 0)
(0.47374688739 0 0)
(0.549532785061 0 0)
(0.320266763606 0 0)
(0.46847371251 0 0)
(0.527154650476 0 0)
(0.357816682187 0 0)
(0.423382893788 0 0)
(0.218512186873 0 0)
(0.783168431128 0 0)
(0.422646534864 0 0)
(0.595382889158 0 0)
(0.332701567922 0 0)
(0.51664645469 0 0)
(0.567297465183 0 0)
(0.251845786571 0 0)
(0.314652019372 0 0)
(0.598045783605 0 0)
(0.42090312033 0 0)
(0.599405447559 0 0)
(0.211155829958 0 0)
(0.546454973663 0 0)
(0.053154918215 0 0)
(1.03460650381 0 0)
(0.559996570935 0 0)
(0.467922761202 0 0)
(0.580853658259 0 0)
(0.331089581876 0 0)
(0.412095035683 0 0)
(0.246709425451 0 0)
(0.738762644792 0 0)
(0.44717306421 0 0)
(0.595781828565 0 0)
(0.288179450762 0 0)
(0.483249391018 0 0)
(0.145892950704 0 0)
(0.955955066988 0 0)
(0.353997538665 0 0)
(0.328321113755 0 0)
(0.489832850947 0 0)
(0.513733388497 0 0)
(0.473596250673 0 0)
(0.51359373629 0 0)
(0.468461838302 0 0)
(0.500923318097 0 0)
(0.364547646169 0 0)
(0.346569776536 0 0)
(0.356444273866 0 0)
(0.45881542666 0 0)
(0.522566773293 0 0)
(0.468793166092 0 0)
(0.513961492329 0 0)
(0.460165419607 0 0)
(0.54728892988 0 0)
(0.339967519145 0 0)
(0.460615348956 0 0)
(0.537577306097 0 0)
(0.328834463221 0 0)
(0.124666970026 0 0)
(0.768148846565 0 0)
(0.545015360994 0 0)
(0.357296609848 0 0)
(0.555268290207 0 0)
(0.406090722918 0 0)
(0.495866292061 0 0)
(0.723429656517 0 0)
(0.188266143157 0 0)
(0.459642458893 0 0)
(0.471938753785 0 0)
(0.599103759521 0 0)
(0.622535094098 0 0)
(0.273031480397 0 0)
(0.273700984398 0 0)
(0.375787505162 0 0)
(0.555246828733 0 0)
(0.41422614367 0 0)
(0.351429377771 0 0)
(0.615295541545 0 0)
(0.373131382813 0 0)
(0.454198915084 0 0)
(0.586331871192 0 0)
(0.289255310732 0 0)
(0.421241631279 0 0)
(0.494041173973 0 0)
(0.436623569151 0 0)
(0.488739148957 0 0)
(0.609129921011 0 0)
(0.262784972085 0 0)
(0.396515162143 0 0)
(0.425758059312 0 0)
(0.522847893995 0 0)
(0.490263955396 0 0)
(0.563553415894 0 0)
(0.289535471423 0 0)
(0.360650300836 0 0)
(0.608666203251 0 0)
(0.371215288276 0 0)
(0.404222423261 0 0)
(0.403401065322 0 0)
(0.49269580571 0 0)
(0.427415443839 0 0)
(0.505304963229 0 0)
(0.448373200068 0 0)
(0.370983639421 0 0)
(0.44548081471 0 0)
(0.37223921288 0 0)
(0.505043180368 0 0)
(0.464827013573 0 0)
(0.510658384547 0 0)
(0.384906723653 0 0)
(0.384848836997 0 0)
(0.571257795229 0 0)
(0.566310457961 0 0)
(0.389840447391 0 0)
(0.368720924767 0 0)
(0.289594316947 0 0)
(0.678961422734 0 0)
(0.391817230113 0 0)
(0.251905632561 0 0)
(0.558706614315 0 0)
(0.50169563089 0 0)
(0.278548467977 0 0)
(0.271673403093 0 0)
(0.691644193039 0 0)
(0.678492950515 0 0)
(0.398909142988 0 0)
(0.410150762309 0 0)
(0.286473422254 0 0)
(0.457056100948 0 0)
(0.568823743464 0 0)
(0.423842381723 0 0)
(0.426168317972 0 0)
(0.463988965525 0 0)
(0.471888333625 0 0)
(0.611693441426 0 0)
(0.252067618346 0 0)
(0.362966088722 0 0)
(0.414453614055 0 0)
(0.543077094405 0 0)
(0.365508837629 0 0)
(0.609097599675 0 0)
(0.357824715246 0 0)
(0.36677041432 0 0)
(0.385720930502 0 0)
(0.65653286531 0 0)
(0.307253140101 0 0)
(0.65350540865 0 0)
(0.312430988929 0 0)
(0.444212444925 0 0)
(0.607094948298 0 0)
(0.284798564444 0 0)
(0.455939874122 0 0)
(0.904995131902 0 0)
(0.149844699839 0 0)
(0.450673371135 0 0)
(0.586316249306 0 0)
(0.281336464551 0 0)
(0.287405816695 0 0)
(0.301421737556 0 0)
(0.429420429267 0 0)
(0.591728832665 0 0)
(0.441397589487 0 0)
(0.592066382212 0 0)
(0.5196277021 0 0)
(0.584956121369 0 0)
(0.241750733574 0 0)
(0.340396697575 0 0)
(0.599354028052 0 0)
(0.377742168258 0 0)
(0.298260142284 0 0)
(0.453560794572 0 0)
(0.579448453555 0 0)
(0.319711629014 0 0)
(0.318450925037 0 0)
(0.437625717386 0 0)
(0.421115370455 0 0)
(0.581690974383 0 0)
(0.57885121935 0 0)
(0.303764928512 0 0)
(0.424073623662 0 0)
(0.582330872988 0 0)
(0.459606306866 0 0)
(0.604742607087 0 0)
(0.289067756422 0 0)
(0.381775834293 0 0)
(0.428431084887 0 0)
(0.507605054818 0 0)
(0.431149078276 0 0)
(0.227594839848 0 0)
(0.753470312962 0 0)
(0.290565564261 0 0)
(0.444673315483 0 0)
(0.582249402757 0 0)
(0.375376625292 0 0)
(0.386125730144 0 0)
(0.599986357625 0 0)
(0.621354302601 0 0)
(0.351814025825 0 0)
(0.349071876053 0 0)
(0.226267465938 0 0)
(0.72323603794 0 0)
(0.414634098129 0 0)
(0.406712305618 0 0)
(0.235479097024 0 0)
(0.745392341368 0 0)
(0.409431607435 0 0)
(0.218468972836 0 0)
(0.754902074173 0 0)
(0.38984497581 0 0)
(0.298472626718 0 0)
(0.664379688883 0 0)
(0.355917593282 0 0)
(0.599999934102 0 0)
(0.388096066426 0 0)
(0.633479078235 0 0)
(0.522070744161 0 0)
(0.396847763793 0 0)
(0.632569711901 0 0)
(0.423884789685 0 0)
(0.812091027332 0 0)
(0.451524115749 0 0)
(0.585714248381 0 0)
(0.704171181323 0 0)
(0.332803206833 0 0)
(0.320808565444 0 0)
(0.729721416606 0 0)
(0.636649684391 0 0)
(0.407483443139 0 0)
(0.497709412113 0 0)
(0.641030973351 0 0)
(0.599117366257 0 0)
(0.558900441087 0 0)
(0.526821541774 0 0)
(0.273816298246 0 0)
(0.446981225454 0 0)
(0.576753343853 0 0)
(0.28371636649 0 0)
(0.248670351508 0 0)
(0.36215707269 0 0)
(0.541896197224 0 0)
(0.386632922842 0 0)
(0.715694946715 0 0)
(0.465009039619 0 0)
(0.62807724328 0 0)
(0.685234167212 0 0)
(0.447002390451 0 0)
(0.514240031217 0 0)
(0.342876654395 0 0)
(0.665139320445 0 0)
(0.488476112983 0 0)
(0.289377261303 0 0)
(0.309990378461 0 0)
(0.577976109538 0 0)
(0.546596271141 0 0)
(0.603383436167 0 0)
(0.143210310945 0 0)
(0.649431071452 0 0)
(0.38415685115 0 0)
(0.466803703013 0 0)
(0.552485174647 0 0)
(0.547555502952 0 0)
(0.644609019047 0 0)
(0.739748467626 0 0)
(0.650351936015 0 0)
(0.346787623805 0 0)
(0.325973649912 0 0)
(0.631007403559 0 0)
(0.613899729672 0 0)
(0.694885609296 0 0)
(0.345787495567 0 0)
(0.32445258716 0 0)
(0.50425801619 0 0)
(0.660465707257 0 0)
(0.423678580892 0 0)
(0.647409458923 0 0)
(0.631982283583 0 0)
(0.34597133584 0 0)
(0.579994434207 0 0)
(0.494370829057 0 0)
(0.318044241261 0 0)
(0.452967515912 0 0)
(0.398589319075 0 0)
(0.296777866612 0 0)
(0.499123179824 0 0)
(0.773369494563 0 0)
(0.718430392456 0 0)
(0.596979611327 0 0)
(0.294546711095 0 0)
(0.714426481248 0 0)
(0.353509610488 0 0)
(0.552488271719 0 0)
(0.677498911233 0 0)
(0.447151511936 0 0)
(0.291996976141 0 0)
(0.577900138172 0 0)
(0.480470902097 0 0)
(0.735868194638 0 0)
(0.647733098355 0 0)
(0.502828023581 0 0)
(0.43960720903 0 0)
(0.515501088835 0 0)
(0.592718374874 0 0)
(0.473510815239 0 0)
(0.399566871958 0 0)
(0.623820001532 0 0)
(0.365902542277 0 0)
(0.371761584136 0 0)
(0.353939605406 0 0)
(0.632946569215 0 0)
(0.889379411807 0 0)
(0.668460818552 0 0)
(0.633866172977 0 0)
(0.630509119941 0 0)
(0.769124876442 0 0)
(0.471239382903 0 0)
(0.27069044827 0 0)
(0.478120619547 0 0)
(0.410062726355 0 0)
(0.624623831642 0 0)
(0.609410615213 0 0)
(0.700997703051 0 0)
(0.622439692805 0 0)
(0.663163737728 0 0)
(0.301780197975 0 0)
(0.239493812318 0 0)
(0.28616103146 0 0)
(0.653633897538 0 0)
(0.718264838822 0 0)
(0.538344587879 0 0)
(0.477959647214 0 0)
(0.527500954258 0 0)
(0.593635975963 0 0)
(0.843442139346 0 0)
(0.561022190441 0 0)
(0.457623935642 0 0)
(0.444802593792 0 0)
(0.409130787914 0 0)
(0.304487044195 0 0)
(0.52810921398 0 0)
(0.588538812806 0 0)
(0.775472401824 0 0)
(0.353109225298 0 0)
(0.649522648719 0 0)
(0.32150031368 0 0)
(0.806135585983 0 0)
(0.402717319998 0 0)
(0.7407437132 0 0)
(0.692397929586 0 0)
(0.6359228014 0 0)
(0.2932308084 0 0)
(0.342993329054 0 0)
(0.911867098113 0 0)
(0.643474356486 0 0)
(0.44287970882 0 0)
(0.623860787686 0 0)
(0.429831642572 0 0)
(0.517349055863 0 0)
(0.623257216928 0 0)
(0.463093439333 0 0)
(0.617102516434 0 0)
(0.656887980419 0 0)
(0.276128482378 0 0)
(0.636703426867 0 0)
(0.546157254123 0 0)
(0.767969461127 0 0)
(0.525296446968 0 0)
(0.584873813615 0 0)
(0.36060187356 0 0)
(0.379937693748 0 0)
(0.537633248517 0 0)
(0.332596950866 0 0)
(0.441329435327 0 0)
(0.398147840238 0 0)
(0.54606385008 0 0)
(0.590870535008 0 0)
(0.622159060192 0 0)
(0.477799046047 0 0)
(0.672345417808 0 0)
(0.559839247367 0 0)
(0.688973291352 0 0)
(0.213586454276 0 0)
(0.566581386242 0 0)
(0.455913065285 0 0)
(0.304512641878 0 0)
(0.473327470915 0 0)
(0.357555400569 0 0)
(0.339142512587 0 0)
(0.368237820479 0 0)
(0.717645107572 0 0)
(0.782887904474 0 0)
(0.774559179954 0 0)
(0.406530904968 0 0)
(0.662866293922 0 0)
(0.726313585944 0 0)
(0.654784739451 0 0)
(0.721276977109 0 0)
(0.527668851175 0 0)
(0.614880767205 0 0)
(0.471907363398 0 0)
(0.315388874477 0 0)
(0.337535720814 0 0)
(0.590591237123 0 0)
(0.438074440625 0 0)
(0.638872209242 0 0)
(0.167069150328 0 0)
(0.735380999319 0 0)
(0.472874830237 0 0)
(0.623670647198 0 0)
(0.863733115324 0 0)
(0.218992879297 0 0)
(0.242287946243 0 0)
(0.621621616771 0 0)
(0.630074819516 0 0)
(0.201522671554 0 0)
(0.441122006907 0 0)
(0.607263616293 0 0)
(0.654820994789 0 0)
(0.264416481146 0 0)
(0.325574369109 0 0)
(0.515602138484 0 0)
(0.630721287338 0 0)
(0.663333665542 0 0)
(0.471770190252 0 0)
(0.544621278682 0 0)
(0.683515208677 0 0)
(0.582128195809 0 0)
(0.65623157821 0 0)
(0.689238653654 0 0)
(0.586541563295 0 0)
(0.543141057613 0 0)
(0.851993077145 0 0)
(0.594708220347 0 0)
(0.26033069192 0 0)
(0.542216166288 0 0)
(0.799512990226 0 0)
(0.555843179484 0 0)
(0.628929812528 0 0)
(0.583693743104 0 0)
(0.336043222239 0 0)
(0.373925102659 0 0)
(0.658339342338 0 0)
(0.709021429169 0 0)
(0.625813501392 0 0)
(0.295169612708 0 0)
(0.530026244172 0 0)
(0.339027700565 0 0)
(0.297755466456 0 0)
(0.601434330211 0 0)
(0.68278684439 0 0)
(0.361669578433 0 0)
(0.600359351868 0 0)
(0.813253443807 0 0)
(0.535134586876 0 0)
(0.268893468974 0 0)
(0.354927332146 0 0)
(0.444455573246 0 0)
(0.390052622336 0 0)
(0.134590474609 0 0)
(0.62439566194 0 0)
(0.968596527501 0 0)
(0.530203787728 0 0)
(0.522563113954 0 0)
(0.582781415488 0 0)
(0.80745428146 0 0)
(0.465867529757 0 0)
(0.207778591289 0 0)
(0.419476774845 0 0)
(0.336109905501 0 0)
(0.596532899365 0 0)
(0.364690494126 0 0)
(0.517030008878 0 0)
(0.442368382246 0 0)
(0.522353138353 0 0)
(0.626426899887 0 0)
(0.553692783368 0 0)
(0.611067931212 0 0)
(0.675246540333 0 0)
(0.647813645847 0 0)
(0.615969293178 0 0)
(0.626092374643 0 0)
(0.676605203791 0 0)
(0.400271360614 0 0)
(0.525222315488 0 0)
(0.47193049441 0 0)
(0.393391881739 0 0)
(0.630115889963 0 0)
(0.529401173435 0 0)
(0.649642953999 0 0)
(0.538344268137 0 0)
(0.540551080045 0 0)
(0.623938146836 0 0)
(0.334803859549 0 0)
(0.827422648349 0 0)
(0.881069418817 0 0)
(0.549099624761 0 0)
(0.765274574849 0 0)
(0.820756644562 0 0)
(0.323009790392 0 0)
(0.683148094137 0 0)
(0.836935084996 0 0)
(0.394953106134 0 0)
(0.309578784694 0 0)
(0.632587855285 0 0)
(0.560742020724 0 0)
(0.697310462987 0 0)
(0.434408732885 0 0)
(0.600820727881 0 0)
(0.688214058657 0 0)
(0.624438788807 0 0)
(0.473338779336 0 0)
(0.446929806254 0 0)
(0.47767952686 0 0)
(0.773371758642 0 0)
(0.672286535747 0 0)
(0.395348541418 0 0)
(0.616281190107 0 0)
(0.635086001372 0 0)
(0.928692173971 0 0)
(0.753189671396 0 0)
(0.788713082749 0 0)
(0.739603844972 0 0)
(0.611748017884 0 0)
(0.320938129221 0 0)
(0.693640556689 0 0)
(0.865376195457 0 0)
(0.665032453437 0 0)
(0.61214213997 0 0)
(0.152231708762 0 0)
(0.604905659521 0 0)
(0.283225070071 0 0)
(0.504451375993 0 0)
(0.69108511481 0 0)
(0.580071490882 0 0)
(0.638498398667 0 0)
(0.711978753012 0 0)
(0.360087196785 0 0)
(0.599210204202 0 0)
(0.214882905132 0 0)
(0.502424453013 0 0)
(0.671803870975 0 0)
(0.588223294774 0 0)
(0.327082902982 0 0)
(0.270803352226 0 0)
(0.512526529574 0 0)
(0.262907308353 0 0)
(0.277175394776 0 0)
(0.600906565786 0 0)
(0.452990114704 0 0)
(0.522890043688 0 0)
(0.66355314058 0 0)
(0.778544897122 0 0)
(0.625435738686 0 0)
(0.598886669276 0 0)
(0.497857891994 0 0)
(0.660459328672 0 0)
(0.728770605079 0 0)
(0.64336389852 0 0)
(0.580745087553 0 0)
(0.645245307833 0 0)
(0.600835116848 0 0)
(0.373562216006 0 0)
(0.584191932486 0 0)
(0.622117916116 0 0)
(0.421999324556 0 0)
(0.458098752969 0 0)
(0.653012778338 0 0)
(0.563640048556 0 0)
(0.31593053025 0 0)
(0.479401670301 0 0)
(0.709049931648 0 0)
(0.586917759015 0 0)
(0.664177982114 0 0)
(0.724616265972 0 0)
(0.409569155822 0 0)
(0.663167395718 0 0)
(0.572640873592 0 0)
(0.447373254409 0 0)
(0.785370524101 0 0)
(0.516219813843 0 0)
(0.645494923226 0 0)
(0.45409048043 0 0)
(0.591508805169 0 0)
(0.622688097068 0 0)
(0.80657624185 0 0)
(0.575572571476 0 0)
(0.729407147815 0 0)
(0.411417961358 0 0)
(0.559600024834 0 0)
(0.529321099288 0 0)
(0.486783049571 0 0)
(0.311300906412 0 0)
(0.634842733766 0 0)
(0.543953642479 0 0)
(0.58493887554 0 0)
(0.646833407256 0 0)
(0.83757987645 0 0)
(0.394906044566 0 0)
(0.510489892259 0 0)
(0.435835609347 0 0)
(0.718564039577 0 0)
(0.516871159392 0 0)
(0.770711739726 0 0)