/*--------------------------------*- C++ -*----------------------------------*\
  =========                 |
  \\      /  F ield         | OpenFOAM: The Open Source CFD Toolbox
   \\    /   O peration     | Website:  https://openfoam.org
    \\  /    A nd           | Version:  6
     \\/     M anipulation  |
\*---------------------------------------------------------------------------*/
FoamFile
{
    version     2.0;
    format      ascii;
    class       volVectorField;
    location    "0";
    object      Ulifty1;
}
// * * * * * * * * * * * * * * * * * * * * * * * * * * * * * * * * * * * * * //

dimensions      [0 1 -1 0 0 0 0];

internalField   nonuniform List<vector> 
13046
(
(0 0.331810035612 0)
(0 0.195084091699 0)
(0 0.276895394245 0)
(0 0.281189577985 0)
(0 0.290271414137 0)
(0 0.190351955974 0)
(0 0.298466725944 0)
(0 0.189210401055 0)
(0 0.313113212871 0)
(0 0.396221390312 0)
(0 0.00724893127378 0)
(0 0.409236283869 0)
(0 0.323563423988 0)
(0 0.153330305624 0)
(0 0.301839676433 0)
(0 0.448172376223 0)
(0 0.345883853987 0)
(0 0.0455042783707 0)
(0 0.320072156223 0)
(0 0.241909525647 0)
(0 0.246248942439 0)
(0 0.423406081319 0)
(0 0.349442372769 0)
(0 0.0311641629025 0)
(0 0.295531381133 0)
(0 0.201395730499 0)
(0 0.267807971552 0)
(0 0.332033879146 0)
(0 0.148193470363 0)
(0 0.287954339406 0)
(0 0.337740916243 0)
(0 0.181216321807 0)
(0 0.266416291488 0)
(0 0.289003487672 0)
(0 0.262988386207 0)
(0 0.212319635655 0)
(0 0.287229532579 0)
(0 0.277491775152 0)
(0 0.231828743064 0)
(0 0.3727551419 0)
(0 0.213777413926 0)
(0 0.187777757763 0)
(0 0.256806198005 0)
(0 0.269433495325 0)
(0 0.247725922336 0)
(0 0.253569786984 0)
(0 0.284879116815 0)
(0 0.238428249201 0)
(0 0.307953021206 0)
(0 0.174476971683 0)
(0 0.280272260845 0)
(0 0.163080784115 0)
(0 0.416246283449 0)
(0 0.18857455558 0)
(0 0.152100232249 0)
(0 0.197395651241 0)
(0 0.425147569759 0)
(0 0.107185440333 0)
(0 0.456538168987 0)
(0 0.2544583861 0)
(0 0.294226823222 0)
(0 0.124151679952 0)
(0 0.384271998389 0)
(0 0.367532905539 0)
(0 0.054829693869 0)
(0 0.363610824516 0)
(0 0.458454384306 0)
(0 0.112004364168 0)
(0 0.232345225668 0)
(0 0.451213210932 0)
(0 0.122433787126 0)
(0 0.235589357365 0)
(0 0.0838167832093 0)
(0 0.467223276912 0)
(0 0.261587963813 0)
(0 0.319650143491 0)
(0 0.229671669719 0)
(0 0.230201888471 0)
(0 0.273218745144 0)
(0 0.444391251221 0)
(0 0.069506758328 0)
(0 0.301468650763 0)
(0 0.198025349442 0)
(0 0.290958335838 0)
(0 0.372215957059 0)
(0 0.0348321268363 0)
(0 0.374995591083 0)
(0 0.304021021839 0)
(0 0.414646895154 0)
(0 0.0539609485188 0)
(0 0.48073598453 0)
(0 0.250032045119 0)
(0 0.033316202538 0)
(0 0.363181175522 0)
(0 0.35660910446 0)
(0 0.109049521037 0)
(0 0.103971025543 0)
(0 0.32014816535 0)
(0 0.342546547623 0)
(0 0.423032910007 0)
(0 0.292090792214 0)
(0 0.0560994296114 0)
(0 0.266177392368 0)
(0 0.297610613485 0)
(0 0.229317188045 0)
(0 0.398476161856 0)
(0 0.221921087091 0)
(0 0.162102198001 0)
(0 0.396962205824 0)
(0 0.182635702535 0)
(0 0.195011945083 0)
(0 0.44253271024 0)
(0 0.459023122692 0)
(0 -0.0455288699489 0)
(0 0.316430165943 0)
(0 0.175292720031 0)
(0 0.298039106627 0)
(0 0.385880370821 0)
(0 0.379395645576 0)
(0 0.0905992014669 0)
(0 0.310933014647 0)
(0 0.106300672305 0)
(0 0.316076218156 0)
(0 0.395905959797 0)
(0 -0.016698155024 0)
(0 0.400819011286 0)
(0 0.355711679979 0)
(0 0.130108347829 0)
(0 0.304540940877 0)
(0 0.381978486483 0)
(0 0.23167641586 0)
(0 0.187529708647 0)
(0 0.469980147524 0)
(0 0.237463303839 0)
(0 0.0467989686808 0)
(0 0.344782912487 0)
(0 0.0842814982237 0)
(0 0.373659942139 0)
(0 0.339094631559 0)
(0 0.164003280435 0)
(0 0.261739204909 0)
(0 0.28345682853 0)
(0 0.164162065759 0)
(0 0.359555218517 0)
(0 0.412989356167 0)
(0 0.178547445567 0)
(0 0.207483672356 0)
(0 0.381500684345 0)
(0 0.230640412867 0)
(0 0.171286251759 0)
(0 0.294843735194 0)
(0 0.0996217788916 0)
(0 0.365222986556 0)
(0 0.348735532718 0)
(0 0.25426465909 0)
(0 0.187581815159 0)
(0 0.136693274952 0)
(0 0.216892942655 0)
(0 0.108030919283 0)
(0 0.214831803344 0)
(0 0.438102342962 0)
(0 0.422325928353 0)
(0 0.249990922364 0)
(0 0.151024887916 0)
(0 0.363850396361 0)
(0 0.371053472689 0)
(0 0.415102454485 0)
(0 -0.00504458292583 0)
(0 0.408586493796 0)
(0 0.414413003901 0)
(0 -0.0437311408226 0)
(0 0.346328927018 0)
(0 0.0707170373553 0)
(0 0.357272146666 0)
(0 0.404830066445 0)
(0 0.160796180871 0)
(0 0.217916158674 0)
(0 0.248988821013 0)
(0 0.376900795172 0)
(0 0.174442127244 0)
(0 0.425515119487 0)
(0 0.00524558730651 0)
(0 0.330055712837 0)
(0 0.401357568367 0)
(0 0.176565968713 0)
(0 0.222458017071 0)
(0 0.35402888472 0)
(0 0.238677771843 0)
(0 0.173381785411 0)
(0 0.267552404751 0)
(0 0.164298470409 0)
(0 0.336052972161 0)
(0 0.144818641074 0)
(0 0.321415058502 0)
(0 0.355803767169 0)
(0 0.145632827994 0)
(0 0.312322090966 0)
(0 0.347762515159 0)
(0 0.411291772136 0)
(0 0.0479903787542 0)
(0 0.449933590261 0)
(0 0.267340133242 0)
(0 0.0642385738006 0)
(0 0.284223987865 0)
(0 0.0371058425685 0)
(0 0.466249057823 0)
(0 0.164252369586 0)
(0 0.174705252523 0)
(0 0.453706314548 0)
(0 0.297950841381 0)
(0 0.46993411484 0)
(0 0.273510717356 0)
(0 0.0838187718556 0)
(0 0.0156817858306 0)
(0 0.284836957513 0)
(0 0.453256476899 0)
(0 0.269507365019 0)
(0 0.280014386772 0)
(0 0.214854315154 0)
(0 0.356154266169 0)
(0 0.164446941934 0)
(0 0.285590603298 0)
(0 0.448931665917 0)
(0 0.24326207269 0)
(0 0.0506120290085 0)
(0 0.321404921258 0)
(0 0.152519068714 0)
(0 0.327874292459 0)
(0 0.440816353577 0)
(0 -0.0337670314739 0)
(0 0.3765549282 0)
(0 0.44309740437 0)
(0 0.173882311745 0)
(0 0.139153085015 0)
(0 0.264496222363 0)
(0 0.037753644031 0)
(0 0.429265625569 0)
(0 0.231476617348 0)
(0 0.131416867928 0)
(0 0.390899395026 0)
(0 0.368643349896 0)
(0 0.127441440149 0)
(0 0.298853087036 0)
(0 0.0806199676214 0)
(0 0.219618720629 0)
(0 0.470837116757 0)
(0 0.223081457388 0)
(0 0.109562229477 0)
(0 0.45001966467 0)
(0 0.452365566703 0)
(0 -0.0447282220364 0)
(0 0.348393157097 0)
(0 0.411263521926 0)
(0 0.197411045275 0)
(0 0.190655436763 0)
(0 0.501013563279 0)
(0 0.432400991967 0)
(0 -0.0366860172636 0)
(0 0.30112418121 0)
(0 0.245955391913 0)
(0 0.211576535589 0)
(0 0.25808647053 0)
(0 0.260737802552 0)
(0 0.130654407918 0)
(0 0.152378170017 0)
(0 0.391235239198 0)
(0 0.378058438283 0)
(0 0.305233354019 0)
(0 0.463973414217 0)
(0 0.0680944334491 0)
(0 0.370378570583 0)
(0 0.13644236161 0)
(0 0.286292569531 0)
(0 0.22566433363 0)
(0 0.0933929246555 0)
(0 0.447984133574 0)
(0 0.363364830772 0)
(0 0.0820131021093 0)
(0 0.333670814585 0)
(0 0.276965356314 0)
(0 0.255712294813 0)
(0 0.268126006953 0)
(0 0.245026386331 0)
(0 0.132716225155 0)
(0 0.422659042466 0)
(0 0.382240890326 0)
(0 0.129496700095 0)
(0 0.27742743257 0)
(0 0.324660728059 0)
(0 0.340817353293 0)
(0 0.417819421287 0)
(0 0.185838750382 0)
(0 0.17722944959 0)
(0 0.241504963386 0)
(0 0.104493302782 0)
(0 0.409844078383 0)
(0 0.365100956473 0)
(0 0.357767245007 0)
(0 0.0810548308417 0)
(0 0.381031334073 0)
(0 0.189226415555 0)
(0 0.197477386873 0)
(0 0.437765492147 0)
(0 0.199707235692 0)
(0 0.123162961179 0)
(0 0.400186600262 0)
(0 0.107667818399 0)
(0 0.278187458042 0)
(0 0.432332381206 0)
(0 0.180222698465 0)
(0 0.185712617114 0)
(0 0.421239246427 0)
(0 0.402963965997 0)
(0 0.101090462765 0)
(0 0.293380783619 0)
(0 0.0903092411579 0)
(0 0.304070328162 0)
(0 0.418149772394 0)
(0 0.020563175543 0)
(0 0.352221779799 0)
(0 0.373481774277 0)
(0 0.109197877436 0)
(0 0.292375613634 0)
(0 -0.08739921686 0)
(0 0.476862593893 0)
(0 0.4577502681 0)
(0 0.238788046654 0)
(0 0.331025668859 0)
(0 0.189092841961 0)
(0 0.288686408334 0)
(0 0.121231890329 0)
(0 0.354800262767 0)
(0 0.381170493647 0)
(0 0.329460744717 0)
(0 0.0480714191961 0)
(0 0.146000994927 0)
(0 0.19109269166 0)
(0 0.442264628666 0)
(0 0.0609146311294 0)
(0 0.21870613142 0)
(0 0.455818910479 0)
(0 0.167160684318 0)
(0 0.322666412932 0)
(0 0.316736721178 0)
(0 0.115040881055 0)
(0 0.335084201156 0)
(0 0.152705683918 0)
(0 0.323560078154 0)
(0 0.421076926274 0)
(0 0.321354364809 0)
(0 0.0475515219689 0)
(0 0.15695410239 0)
(0 0.160418456363 0)
(0 0.457407374146 0)
(0 0.333327425932 0)
(0 0.115177841803 0)
(0 0.357322354172 0)
(0 0.257217000545 0)
(0 0.150788279444 0)
(0 0.360576340911 0)
(0 0.205641188417 0)
(0 0.156122617424 0)
(0 0.399308700415 0)
(0 0.305887264718 0)
(0 0.18389578763 0)
(0 0.290484839413 0)
(0 0.44984454078 0)
(0 0.199426581064 0)
(0 0.13455552208 0)
(0 0.306881745478 0)
(0 0.0256306981444 0)
(0 0.41143978123 0)
(0 0.074531739889 0)
(0 0.243046437985 0)
(0 0.458008492248 0)
(0 0.452852269774 0)
(0 0.220285120525 0)
(0 0.131184330935 0)
(0 0.446181706722 0)
(0 0.428769187251 0)
(0 0.0959633209821 0)
(0 0.091615099159 0)
(0 0.290597876442 0)
(0 0.275863745094 0)
(0 0.461869645136 0)
(0 -0.0795462942088 0)
(0 0.480043944892 0)
(0 0.460198726969 0)
(0 0.389713426096 0)
(0 -0.0362901357572 0)
(0 0.273067621766 0)
(0 0.123969893241 0)
(0 0.397855889409 0)
(0 0.397669957315 0)
(0 0.345990118797 0)
(0 0.0186713798575 0)
(0 0.423568527714 0)
(0 0.426451608819 0)
(0 0.11508204079 0)
(0 0.114554080946 0)
(0 0.244118226964 0)
(0 0.265166447772 0)
(0 0.467784282251 0)
(0 -0.0176810762219 0)
(0 0.274734024611 0)
(0 0.512217695933 0)
(0 0.428855374045 0)
(0 -0.0590230968018 0)
(0 0.22884572932 0)
(0 0.296080361796 0)
(0 0.241785240807 0)
(0 0.441078928676 0)
(0 -0.0682291336225 0)
(0 0.431088345953 0)
(0 0.401032736116 0)
(0 0.157071728469 0)
(0 0.234670115506 0)
(0 0.319255908749 0)
(0 0.00850142744286 0)
(0 0.439387788383 0)
(0 -0.12411986071 0)
(0 0.515399560097 0)
(0 0.406273235612 0)
(0 0.373574967678 0)
(0 0.221512845691 0)
(0 0.207307818282 0)
(0 0.253876421484 0)
(0 0.202481725145 0)
(0 0.310935366887 0)
(0 0.430401748686 0)
(0 0.396732317609 0)
(0 0.00361685690023 0)
(0 0.263495756887 0)
(0 0.20058359742 0)
(0 0.332234171252 0)
(0 0.246867766691 0)
(0 0.296378143411 0)
(0 0.253419331447 0)
(0 0.470000176364 0)
(0 0.185190019867 0)
(0 0.138853061161 0)
(0 0.234246088253 0)
(0 0.225893008981 0)
(0 0.339315105516 0)
(0 0.241851083767 0)
(0 0.22097314284 0)
(0 0.345981478199 0)
(0 0.442026131623 0)
(0 0.130095521886 0)
(0 0.195908924363 0)
(0 0.381700017684 0)
(0 0.380502008433 0)
(0 0.0280294520687 0)
(0 0.00723876704208 0)
(0 0.415438258658 0)
(0 0.376544681984 0)
(0 0.314746115766 0)
(0 0.0262766381287 0)
(0 0.443461971699 0)
(0 0.220917522183 0)
(0 0.456977546409 0)
(0 0.125084771214 0)
(0 0.389423470069 0)
(0 0.198601161864 0)
(0 0.175580393358 0)
(0 0.203493420153 0)
(0 0.0951418169385 0)
(0 0.450207169134 0)
(0 -0.103772316778 0)
(0 0.513037881438 0)
(0 0.337079037802 0)
(0 0.465631955983 0)
(0 0.248266541593 0)
(0 0.0161791877374 0)
(0 0.4062736718 0)
(0 0.433198037388 0)
(0 -0.0166379759911 0)
(0 0.520177491343 0)
(0 -0.186550970724 0)
(0 0.409723102881 0)
(0 -0.117231350854 0)
(0 0.520176795751 0)
(0 0.533728331632 0)
(0 0.0982293152305 0)
(0 0.278995058416 0)
(0 0.400895505904 0)
(0 -0.0375897165376 0)
(0 0.493671181903 0)
(0 0.296260028802 0)
(0 0.3207596986 0)
(0 0.0663157560894 0)
(0 0.375649242813 0)
(0 0.476463853211 0)
(0 0.340552761667 0)
(0 0.024332682345 0)
(0 0.308899583028 0)
(0 0.302079472961 0)
(0 0.171481600848 0)
(0 0.0147187315717 0)
(0 0.473122797604 0)
(0 0.269656988722 0)
(0 0.203573342811 0)
(0 0.46086131619 0)
(0 0.124740494033 0)
(0 0.0930637921998 0)
(0 0.237405437202 0)
(0 0.437986713029 0)
(0 0.685518536824 0)
(0 -0.303401636216 0)
(0 0.698481159928 0)
(0 -0.123860870235 0)
(0 0.478271916077 0)
(0 0.393748170797 0)
(0 0.301386073611 0)
(0 0.296817373389 0)
(0 0.175998223532 0)
(0 -0.00623921839726 0)
(0 0.304508471362 0)
(0 0.468306493725 0)
(0 0.488167555492 0)
(0 0.277362919013 0)
(0 -0.0166687749907 0)
(0 0.368346016149 0)
(0 0.394436123529 0)
(0 0.031841230896 0)
(0 0.319374346593 0)
(0 0.060080921893 0)
(0 0.433426940988 0)
(0 0.467388115922 0)
(0 0.1414517638 0)
(0 0.195379613476 0)
(0 0.100417407765 0)
(0 0.434518960519 0)
(0 0.265532430379 0)
(0 0.302313846009 0)
(0 0.448858970858 0)
(0 0.0518739669262 0)
(0 0.380524140161 0)
(0 0.394863128117 0)
(0 0.149760732928 0)
(0 0.140994385312 0)
(0 0.255679242911 0)
(0 0.2698476281 0)
(0 0.385666458601 0)
(0 0.156369131728 0)
(0 0.241369039197 0)
(0 0.449842232001 0)
(0 0.125766444071 0)
(0 0.245289739727 0)
(0 0.0751998591246 0)
(0 0.241987271285 0)
(0 0.436793381588 0)
(0 0.0124798205527 0)
(0 0.293768075092 0)
(0 0.44507662162 0)
(0 0.422001361347 0)
(0 0.252583300144 0)
(0 0.064489722354 0)
(0 -0.116536031636 0)
(0 0.461079379774 0)
(0 0.467017669688 0)
(0 0.363101928818 0)
(0 0.335962221564 0)
(0 0.247621092119 0)
(0 0.198353712804 0)
(0 0.248644546835 0)
(0 0.185986258499 0)
(0 0.436451484108 0)
(0 0.423806873409 0)
(0 0.222815802268 0)
(0 0.140065314701 0)
(0 0.238389395293 0)
(0 0.142642516159 0)
(0 -0.142199532565 0)
(0 0.526879255966 0)
(0 0.369981922489 0)
(0 -0.00632268978946 0)
(0 0.29804954864 0)
(0 0.440833662724 0)
(0 0.421881748614 0)
(0 0.183147741663 0)
(0 0.16511353049 0)
(0 0.0868195092886 0)
(0 0.208740021785 0)
(0 0.456118935173 0)
(0 0.305330142968 0)
(0 0.0652201264814 0)
(0 0.440096239109 0)
(0 -0.0826928247735 0)
(0 0.366338987332 0)
(0 0.455596662335 0)
(0 -0.0527588019273 0)
(0 0.371863996958 0)
(0 0.478008092718 0)
(0 0.409281691871 0)
(0 0.113373047533 0)
(0 0.271531838017 0)
(0 0.38203747225 0)
(0 0.197753148909 0)
(0 0.217002816518 0)
(0 0.376673352588 0)
(0 0.395981318408 0)
(0 0.0222514951181 0)
(0 0.0910726701879 0)
(0 0.269687617171 0)
(0 0.413500454455 0)
(0 0.350847219786 0)
(0 0.060735747826 0)
(0 0.369867097298 0)
(0 0.429421634727 0)
(0 0.213296506202 0)
(0 0.148662679265 0)
(0 0.231347115235 0)
(0 0.153037059359 0)
(0 0.409559367074 0)
(0 0.390353618257 0)
(0 0.213178461066 0)
(0 0.196443403997 0)
(0 0.404393701818 0)
(0 0.0119414984559 0)
(0 0.357338396142 0)
(0 0.38707842128 0)
(0 0.0871161635106 0)
(0 0.331827651773 0)
(0 0.346888557394 0)
(0 0.221281277743 0)
(0 0.197762732258 0)
(0 0.467308272196 0)
(0 0.316276363883 0)
(0 0.0415979972112 0)
(0 0.360597567475 0)
(0 0.167927846408 0)
(0 0.255563751402 0)
(0 0.265839745306 0)
(0 0.177571898261 0)
(0 0.338365537998 0)
(0 0.105094411519 0)
(0 0.247673528394 0)
(0 0.428942592515 0)
(0 0.465291993586 0)
(0 0.370748433574 0)
(0 -0.00934274154285 0)
(0 0.481401478641 0)
(0 0.364078884546 0)
(0 0.00423025659531 0)
(0 0.344709892149 0)
(0 0.0680033871437 0)
(0 0.391685596849 0)
(0 0.210568221886 0)
(0 0.13391549858 0)
(0 0.410083457934 0)
(0 0.388873679771 0)
(0 -0.0184660387309 0)
(0 0.491927967672 0)
(0 0.395485920091 0)
(0 0.0667766897378 0)
(0 0.330895985941 0)
(0 0.575259364622 0)
(0 -0.196376786339 0)
(0 0.472863802224 0)
(0 0.561768449476 0)
(0 -0.168634184572 0)
(0 0.529751021979 0)
(0 0.319096390796 0)
(0 0.0557523406644 0)
(0 0.439889716517 0)
(0 0.430171287026 0)
(0 -0.0149141423865 0)
(0 0.357621319511 0)
(0 0.412140396135 0)
(0 0.401443540857 0)
(0 0.360987484439 0)
(0 0.0293530717655 0)
(0 0.362644275682 0)
(0 0.0461092113646 0)
(0 0.309697571022 0)
(0 0.0584518479476 0)
(0 0.396504065449 0)
(0 0.468825773473 0)
(0 0.0962961767713 0)
(0 0.208117998349 0)
(0 0.318470114217 0)
(0 0.252628986704 0)
(0 0.194861270876 0)
(0 0.277254514904 0)
(0 0.0662282390826 0)
(0 0.409396088761 0)
(0 0.419904112315 0)
(0 0.276318467468 0)
(0 0.0804364527516 0)
(0 0.466732034886 0)
(0 0.294741082313 0)
(0 0.0618722396963 0)
(0 0.437489545791 0)
(0 0.12340051926 0)
(0 0.220190910421 0)
(0 0.406986242551 0)
(0 0.139348619227 0)
(0 0.232127482158 0)
(0 0.305603137363 0)
(0 0.100459133062 0)
(0 0.387619929347 0)
(0 0.282008584809 0)
(0 0.0865819333506 0)
(0 0.390649201445 0)
(0 0.348046597188 0)
(0 0.231896682459 0)
(0 0.214758919455 0)
(0 0.400497212759 0)
(0 0.130486973615 0)
(0 0.253092430093 0)
(0 0.481458368091 0)
(0 0.0120901626864 0)
(0 0.258122064248 0)
(0 0.32418523768 0)
(0 0.475748687464 0)
(0 -0.0780465021006 0)
(0 0.315313558974 0)
(0 0.496228944139 0)
(0 -0.0808588491535 0)
(0 0.382946730196 0)
(0 0.224455214256 0)
(0 0.172383648862 0)
(0 -0.0879643695419 0)
(0 0.495755639582 0)
(0 0.400073015089 0)
(0 0.393025919385 0)
(0 0.327261626254 0)
(0 0.0720848460699 0)
(0 0.497035207775 0)
(0 -0.116104169888 0)
(0 0.337694630315 0)
(0 0.281509904174 0)
(0 0.308849088188 0)
(0 0.217766022623 0)
(0 0.340333052225 0)
(0 0.123931470723 0)
(0 0.312459532227 0)
(0 0.156146727517 0)
(0 0.210924514512 0)
(0 0.421731017282 0)
(0 0.46666436759 0)
(0 -0.0341686801716 0)
(0 0.276315920908 0)
(0 0.0809650324478 0)
(0 0.24496334803 0)
(0 0.41492779224 0)
(0 0.325184432944 0)
(0 0.453516817123 0)
(0 0.0323632762742 0)
(0 0.346077602636 0)
(0 0.124368068172 0)
(0 0.337902022822 0)
(0 0.319943147888 0)
(0 0.267099476525 0)
(0 0.217200108922 0)
(0 -0.0232672609551 0)
(0 0.312358305886 0)
(0 0.465751753796 0)
(0 0.380825880559 0)
(0 0.0681339531159 0)
(0 0.361087076427 0)
(0 0.430948538843 0)
(0 0.460088886708 0)
(0 0.385593635872 0)
(0 0.416865340402 0)
(0 -0.0176513560321 0)
(0 -0.0181134199218 0)
(0 0.268672614008 0)
(0 0.14230315096 0)
(0 0.370051564073 0)
(0 0.109991154584 0)
(0 0.269675011109 0)
(0 0.399397600274 0)
(0 0.27301082062 0)
(0 0.175338402648 0)
(0 0.314972491262 0)
(0 -0.0485985675029 0)
(0 0.323567280332 0)
(0 -0.0672206639441 0)
(0 0.481477736635 0)
(0 0.288069090199 0)
(0 0.479793029341 0)
(0 0.3330258588 0)
(0 0.0981105715895 0)
(0 0.344138529945 0)
(0 0.320069881126 0)
(0 0.335285246675 0)
(0 -0.0242425966588 0)
(0 -0.0462370055627 0)
(0 0.454233501298 0)
(0 0.464295941383 0)
(0 0.269100284982 0)
(0 0.120785626561 0)
(0 0.410811909421 0)
(0 0.300146426942 0)
(0 0.139692507516 0)
(0 0.329998258431 0)
(0 0.459924954493 0)
(0 0.351047897328 0)
(0 0.0141363845915 0)
(0 0.286732691898 0)
(0 0.144353362403 0)
(0 0.364317191752 0)
(0 0.288617122028 0)
(0 0.174771461441 0)
(0 0.337781882452 0)
(0 0.458846861422 0)
(0 0.385460920426 0)
(0 -0.00383957144865 0)
(0 0.352875014907 0)
(0 0.128646551751 0)
(0 0.329836555271 0)
(0 0.120434035204 0)
(0 0.19226829678 0)
(0 0.46661191299 0)
(0 0.442316056396 0)
(0 0.148782945569 0)
(0 0.210649564352 0)
(0 0.0585023131316 0)
(0 0.482322242756 0)
(0 0.232974208505 0)
(0 0.538488943474 0)
(0 -0.190824448766 0)
(0 0.491074869278 0)
(0 0.316705011372 0)
(0 0.137619625613 0)
(0 0.356972566771 0)
(0 0.441505510153 0)
(0 0.367009848806 0)
(0 0.0302913307039 0)
(0 0.178469720203 0)
(0 0.151587683406 0)
(0 0.462115252561 0)
(0 0.533401171688 0)
(0 0.465073513968 0)
(0 -0.0896076860186 0)
(0 0.364953648435 0)
(0 0.369194344191 0)
(0 0.193464794658 0)
(0 0.237114524963 0)
(0 0.178647713688 0)
(0 0.215835536214 0)
(0 0.266411497357 0)
(0 0.183018476047 0)
(0 0.322111176483 0)
(0 0.364696478944 0)
(0 0.36188636225 0)
(0 0.198116409639 0)
(0 0.208386473513 0)
(0 0.20740009511 0)
(0 0.226843058696 0)
(0 0.299439831663 0)
(0 0.152771760859 0)
(0 0.342033924738 0)
(0 0.283297887779 0)
(0 0.144492424431 0)
(0 0.341348200163 0)
(0 0.5035131023 0)
(0 -0.0712857359999 0)
(0 0.312464035418 0)
(0 0.376001285474 0)
(0 0.167870165342 0)
(0 0.236949435866 0)
(0 0.344141584775 0)
(0 -0.0124196312338 0)
(0 0.440917045153 0)
(0 0.30754959188 0)
(0 0.321369167179 0)
(0 0.0858121605263 0)
(0 0.0816307363392 0)
(0 0.371745500816 0)
(0 0.387720081078 0)
(0 0.370395184432 0)
(0 0.178068989636 0)
(0 0.247843636477 0)
(0 0.422063885725 0)
(0 0.125606182243 0)
(0 0.257728832776 0)
(0 0.308943102678 0)
(0 0.101362868788 0)
(0 0.35979811401 0)
(0 0.305736328008 0)
(0 0.22868593538 0)
(0 0.259038791306 0)
(0 0.295450042976 0)
(0 0.0790158767338 0)
(0 0.401874822033 0)
(0 0.337352097869 0)
(0 0.253329286778 0)
(0 0.204737779299 0)
(0 0.273352404322 0)
(0 0.113111314361 0)
(0 0.383851313517 0)
(0 0.408370375761 0)
(0 0.125125601796 0)
(0 0.259464559418 0)
(0 0.307113853497 0)
(0 0.328766128851 0)
(0 0.216618205676 0)
(0 0.247381674306 0)
(0 0.231136612778 0)
(0 0.247761244633 0)
(0 0.337765422664 0)
(0 0.219499323964 0)
(0 0.347675264893 0)
(0 0.214869446731 0)
(0 0.214767027758 0)
(0 0.226321735157 0)
(0 0.370061851524 0)
(0 0.358592733288 0)
(0 0.156841252924 0)
(0 0.146227913952 0)
(0 0.264851563328 0)
(0 0.271880718615 0)
(0 0.321736545615 0)
(0 0.0605163559174 0)
(0 0.418979298083 0)
(0 0.452208649115 0)
(0 0.185592849066 0)
(0 0.122209335674 0)
(0 0.338683723681 0)
(0 0.339877807477 0)
(0 0.0586101033064 0)
(0 0.048975006062 0)
(0 0.421143876619 0)
(0 0.398226731781 0)
(0 0.432597256989 0)
(0 0.163902071862 0)
(0 0.168217274592 0)
(0 0.275348421057 0)
(0 0.254019767608 0)
(0 0.230750927655 0)
(0 0.301071737967 0)
(0 0.0701772580709 0)
(0 0.392226369475 0)
(0 0.362082098109 0)
(0 0.23166094827 0)
(0 0.176476066722 0)
(0 0.402829812212 0)
(0 0.121857735141 0)
(0 0.271542857456 0)
(0 0.422547468814 0)
(0 0.411566406167 0)
(0 0.0782965155664 0)
(0 0.297367431018 0)
(0 0.0811625234115 0)
(0 0.306702901497 0)
(0 0.328125000213 0)
(0 0.0916969740422 0)
(0 0.358428169396 0)
(0 0.50903616286 0)
(0 -0.0633488717913 0)
(0 0.448217020957 0)
(0 0.172290972043 0)
(0 0.157032970228 0)
(0 0.456131950103 0)
(0 0.449722619245 0)
(0 0.450470331855 0)
(0 0.181518318906 0)
(0 0.143185294362 0)
(0 0.192195840082 0)
(0 0.157826819674 0)
(0 0.253282422176 0)
(0 0.0808144077759 0)
(0 0.437140679492 0)
(0 0.411206002233 0)
(0 0.125633254485 0)
(0 0.23803391112 0)
(0 0.441645314808 0)
(0 0.182301764649 0)
(0 0.169190909375 0)
(0 0.430425616576 0)
(0 0.421232832047 0)
(0 0.204998196949 0)
(0 0.208367042742 0)
(0 0.166107946385 0)
(0 0.158016998015 0)
(0 0.429598760686 0)
(0 0.19166791488 0)
(0 0.148760432212 0)
(0 0.320019137132 0)
(0 0.0940933675586 0)
(0 0.366969546701 0)
(0 0.326892821571 0)
(0 0.231276605931 0)
(0 0.203113621043 0)
(0 0.433148008729 0)
(0 0.384898949693 0)
(0 0.00933445960426 0)
(0 0.441705922967 0)
(0 0.175018027225 0)
(0 0.15698180556 0)
(0 0.384560060554 0)
(0 0.399327420362 0)
(0 0.117552907914 0)
(0 0.117441568359 0)
(0 0.273229656537 0)
(0 0.293391215454 0)
(0 0.366430152199 0)
(0 0.0140041519442 0)
(0 0.413891496319 0)
(0 0.442936280748 0)
(0 0.35893802892 0)
(0 0.0118208695595 0)
(0 0.441745060591 0)
(0 0.373218714391 0)
(0 0.00592389684294 0)
(0 0.413146939081 0)
(0 0.322032268474 0)
(0 0.0769714797851 0)
(0 0.411295259608 0)
(0 0.139603166525 0)
(0 0.252159664794 0)
(0 -0.116424351918 0)
(0 0.018424678476 0)
(0 0.100808118465 0)
(0 -0.0965915057759 0)
(0 0.0540136210304 0)
(0 -0.279677724287 0)
(0 0.0331828429783 0)
(0 -0.0152692199839 0)
(0 -0.0155784299353 0)
(0 0.0576533046731 0)
(0 0.0607590310039 0)
(0 -0.01235781626 0)
(0 -0.0939858564341 0)
(0 0.0477232416514 0)
(0 0.0179054515714 0)
(0 -0.0339095769208 0)
(0 -0.0347472473099 0)
(0 0.0125671699014 0)
(0 0.0199826189184 0)
(0 0.0434298552145 0)
(0 0.0240228862795 0)
(0 0.0114045195952 0)
(0 0.073666351686 0)
(0 0.321195054269 0)
(0 0.126854026413 0)
(0 0.0211235741836 0)
(0 0.0553369983206 0)
(0 -0.00392896850852 0)
(0 0.0264077433644 0)
(0 -0.0796414674682 0)
(0 -0.0024449804459 0)
(0 0.0369697933735 0)
(0 0.019124163569 0)
(0 0.0230518339254 0)
(0 0.00236638479531 0)
(0 0.0191237575477 0)
(0 0.11588842927 0)
(0 0.0686768526696 0)
(0 -0.0223007044151 0)
(0 0.0266523041487 0)
(0 0.00854384718684 0)
(0 0.510366474697 0)
(0 0.00492348444533 0)
(0 0.0527638536699 0)
(0 0.0861982732309 0)
(0 0.0110483937408 0)
(0 0.0122247055641 0)
(0 0.00583167426433 0)
(0 -0.012344050173 0)
(0 0.0048248996521 0)
(0 0.146902901421 0)
(0 0.0274938635159 0)
(0 -0.0362069170517 0)
(0 0.00740217261844 0)
(0 -0.00382310482569 0)
(0 0.14380881293 0)
(0 0.0423481779175 0)
(0 0.0191283955341 0)
(0 0.00434705179316 0)
(0 0.0476886827 0)
(0 0.00398854608483 0)
(0 0.00487866972045 0)
(0 0.127968548847 0)
(0 0.00445787376019 0)
(0 0.0191182345719 0)
(0 0.0440097782291 0)
(0 0.0243820889524 0)
(0 0.190044388212 0)
(0 0.0728949256874 0)
(0 0.0675003906526 0)
(0 -0.00342607161682 0)
(0 -0.00064124742383 0)
(0 0.00600150310764 0)
(0 0.0515094834701 0)
(0 -0.00217088596164 0)
(0 0.0239187652402 0)
(0 0.0165279162193 0)
(0 0.00248934792909 0)
(0 0.042139138374 0)
(0 0.102897978193 0)
(0 0.0132865367237 0)
(0 0.0189459810392 0)
(0 -0.0202988086253 0)
(0 -0.0224620199353 0)
(0 0.0114312985595 0)
(0 0.0466634835602 0)
(0 0.0125812922478 0)
(0 -0.0329751894491 0)
(0 0.01599989321 0)
(0 0.130674063413 0)
(0 -0.0169950596442 0)
(0 0.0470976247847 0)
(0 0.109812955713 0)
(0 0.0247122702275 0)
(0 -0.052337801836 0)
(0 -0.189241713174 0)
(0 0.00139877131839 0)
(0 0.00554185679018 0)
(0 -0.0566554159247 0)
(0 -0.00348138373177 0)
(0 0.0266595590728 0)
(0 0.0783288186669 0)
(0 0.0977733117549 0)
(0 0.19356142639 0)
(0 -0.0257658199993 0)
(0 -0.0591569092194 0)
(0 -0.00722644539235 0)
(0 -0.00809262758117 0)
(0 0.00206517787222 0)
(0 0.109468002291 0)
(0 0.0817623914132 0)
(0 0.0459874742721 0)
(0 -0.00583196282712 0)
(0 -9.45249392273e-05 0)
(0 0.0280906458923 0)
(0 0.0671004668842 0)
(0 0.0133015558082 0)
(0 -0.0353167486416 0)
(0 -0.00745193122448 0)
(0 0.0124323888329 0)
(0 0.0189340795948 0)
(0 0.135067523636 0)
(0 0.17647225163 0)
(0 0.0534163703696 0)
(0 0.0213438591495 0)
(0 0.00656139890702 0)
(0 -0.011529080546 0)
(0 0.179712032703 0)
(0 -0.139027760198 0)
(0 0.0527709689967 0)
(0 -0.0038341792873 0)
(0 0.129194963514 0)
(0 -0.018928764474 0)
(0 -0.0580676157772 0)
(0 -0.110650301835 0)
(0 0.100490557181 0)
(0 0.0223723679066 0)
(0 -0.0106072218674 0)
(0 0.00143748697323 0)
(0 0.0390012159583 0)
(0 -0.0430917006434 0)
(0 0.0467189653517 0)
(0 0.0320241488884 0)
(0 0.000203647746189 0)
(0 0.0779798018441 0)
(0 0.00666539028179 0)
(0 -0.020397051161 0)
(0 0.10631857399 0)
(0 0.00298476372984 0)
(0 0.0130040806776 0)
(0 -0.018707419939 0)
(0 0.0219335731256 0)
(0 -0.0255368041234 0)
(0 0.0838239662648 0)
(0 0.0512734285268 0)
(0 0.0122431081777 0)
(0 0.0491582061276 0)
(0 0.0515875257887 0)
(0 0.110730680056 0)
(0 0.0176074161305 0)
(0 0.00515601520295 0)
(0 -0.0039341243738 0)
(0 0.0558367390185 0)
(0 -0.141059497365 0)
(0 0.0290434592505 0)
(0 -0.0076875542325 0)
(0 0.374343332149 0)
(0 0.0113433717976 0)
(0 0.0830667379954 0)
(0 0.196424109202 0)
(0 0.0241325151488 0)
(0 0.182263199192 0)
(0 0.08693421958 0)
(0 0.118785091202 0)
(0 -0.0356137290109 0)
(0 -0.00433359244074 0)
(0 -0.0142969609102 0)
(0 0.110412532572 0)
(0 -0.00941061924577 0)
(0 -0.0248709617338 0)
(0 -0.100125971583 0)
(0 -0.0263892199804 0)
(0 0.0132594810858 0)
(0 0.00804330119963 0)
(0 0.0223970286178 0)
(0 0.189121577401 0)
(0 0.0521954192162 0)
(0 0.00926918703348 0)
(0 0.0406380101828 0)
(0 0.00620873526297 0)
(0 0.439180023465 0)
(0 -0.0712625074402 0)
(0 0.0814276928814 0)
(0 0.00423656326123 0)
(0 -0.00557868962439 0)
(0 0.188090419835 0)
(0 0.254840129821 0)
(0 0.00137528453133 0)
(0 0.00597441234718 0)
(0 0.341138078588 0)
(0 0.0266684486478 0)
(0 -0.0271734175012 0)
(0 0.00196124305839 0)
(0 0.0512399442262 0)
(0 0.102534582953 0)
(0 0.0475117905209 0)
(0 -0.0116442062004 0)
(0 0.00378358591684 0)
(0 0.056700819176 0)
(0 0.0220235537501 0)
(0 0.00263740450716 0)
(0 0.0330022514758 0)
(0 -0.102019569299 0)
(0 -0.000170691846698 0)
(0 0.00831157583536 0)
(0 0.0757357362135 0)
(0 -0.00850359972258 0)
(0 -0.0101160578072 0)
(0 0.0788078992998 0)
(0 0.0113798215479 0)
(0 -0.00453965869681 0)
(0 0.011291141033 0)
(0 -0.0266565590853 0)
(0 -0.0102211550037 0)
(0 0.0326051005956 0)
(0 0.0372057573446 0)
(0 -0.0414054622919 0)
(0 -0.0154858643729 0)
(0 -0.11401437166 0)
(0 0.0449570385889 0)
(0 0.0517894519429 0)
(0 0.0166987236893 0)
(0 0.0405213735317 0)
(0 0.00791833622813 0)
(0 -0.00923970538544 0)
(0 0.0319598608268 0)
(0 0.00971570144824 0)
(0 -0.00672532365021 0)
(0 0.0459109294855 0)
(0 0.112797852068 0)
(0 0.027857193476 0)
(0 0.127156926423 0)
(0 0.0877924322928 0)
(0 0.478322134256 0)
(0 -0.0384600914486 0)
(0 -0.00900126565601 0)
(0 0.0153408236173 0)
(0 0.0113539868872 0)
(0 -0.021499915289 0)
(0 -0.00671961387395 0)
(0 0.0298076163209 0)
(0 0.170541798802 0)
(0 0.0410496274533 0)
(0 0.0311806856035 0)
(0 -0.0107946363021 0)
(0 0.0165159686271 0)
(0 0.0550699256191 0)
(0 0.0220735958624 0)
(0 0.0349328090085 0)
(0 0.00299340707365 0)
(0 0.0147905138465 0)
(0 0.00952816181528 0)
(0 -0.0924401130274 0)
(0 -0.0162544571361 0)
(0 0.00290224304075 0)
(0 -0.0210782720743 0)
(0 0.00141351256615 0)
(0 0.0369893265528 0)
(0 0.0191729150686 0)
(0 0.0125893521955 0)
(0 0.0403716056848 0)
(0 -0.0836410897296 0)
(0 0.0142305257018 0)
(0 0.00412310601122 0)
(0 0.0113418116927 0)
(0 0.0130594949164 0)
(0 0.0061854191595 0)
(0 0.028340672448 0)
(0 -0.0135327838882 0)
(0 -0.0100804685947 0)
(0 0.0165758076537 0)
(0 -0.0130975773399 0)
(0 -0.0111864109999 0)
(0 0.0317964867319 0)
(0 -0.109439220449 0)
(0 -0.0149341349894 0)
(0 0.0880509281759 0)
(0 0.0451352217273 0)
(0 -0.00248138207818 0)
(0 0.0581116558348 0)
(0 -0.00155311938685 0)
(0 0.0369745476327 0)
(0 0.0483508677281 0)
(0 -0.0575093954798 0)
(0 -0.0491233354943 0)
(0 0.0715163544398 0)
(0 0.0167373988676 0)
(0 0.0459832887986 0)
(0 -0.23901726504 0)
(0 -0.0435605663113 0)
(0 0.0795332415775 0)
(0 0.00780301317675 0)
(0 -0.113011760155 0)
(0 -0.00873949480168 0)
(0 -0.00725738205432 0)
(0 -0.00353598462327 0)
(0 -0.0126060772529 0)
(0 0.00725752937138 0)
(0 0.0401968142994 0)
(0 -0.0017691052137 0)
(0 -0.00912308557758 0)
(0 0.00385701592287 0)
(0 0.00690624922816 0)
(0 0.442922316137 0)
(0 -0.0612094137519 0)
(0 0.0508613982683 0)
(0 0.0254489620826 0)
(0 -0.0926456090896 0)
(0 -0.00444302277479 0)
(0 -0.0160971736093 0)
(0 -0.00213941004696 0)
(0 0.0335171705388 0)
(0 0.00827456927204 0)
(0 0.173475765882 0)
(0 0.0403182644098 0)
(0 -0.04683885943 0)
(0 0.00946611652973 0)
(0 0.0268456230727 0)
(0 0.304371947117 0)
(0 0.0511141293398 0)
(0 0.116287614446 0)
(0 0.0556356885515 0)
(0 0.00966546839694 0)
(0 0.0229206977139 0)
(0 0.0132317484752 0)
(0 0.00200353012937 0)
(0 -0.011709066889 0)
(0 0.00663041716639 0)
(0 -0.0362231214066 0)
(0 0.0367473671333 0)
(0 0.00368051706961 0)
(0 -0.00169347739955 0)
(0 -0.0559727546109 0)
(0 -0.0207527612526 0)
(0 -0.0573106966328 0)
(0 -0.0540503130593 0)
(0 0.0726256913593 0)
(0 -0.0153771590351 0)
(0 0.00273926225458 0)
(0 0.119966761699 0)
(0 0.0714242731666 0)
(0 -0.0131189011632 0)
(0 0.00937987782084 0)
(0 0.101025319314 0)