/*--------------------------------*- C++ -*----------------------------------*\
  =========                 |
  \\      /  F ield         | OpenFOAM: The Open Source CFD Toolbox
   \\    /   O peration     | Website:  https://openfoam.org
    \\  /    A nd           | Version:  6
     \\/     M anipulation  |
\*---------------------------------------------------------------------------*/
FoamFile
{
    version     2.0;
    format      ascii;
    class       volVectorField;
    location    "0";
    object      Uliftx0;
}
// * * * * * * * * * * * * * * * * * * * * * * * * * * * * * * * * * * * * * //

dimensions      [0 1 -1 0 0 0 0];

internalField   nonuniform List<vector> 
13046
(
(0.416974 0 0)
(0.534499 0 0)
(0.410603 0 0)
(0.439099 0 0)
(0.382324 0 0)
(0.496798 0 0)
(0.453315 0 0)
(0.523582 0 0)
(0.383366 0 0)
(0.452323 0 0)
(0.738704 0 0)
(0.211266 0 0)
(0.430393 0 0)
(0.554504 0 0)
(0.364391 0 0)
(0.399918 0 0)
(0.271492 0 0)
(0.724261 0 0)
(0.407566 0 0)
(0.461391 0 0)
(0.491877 0 0)
(0.399393 0 0)
(0.245956 0 0)
(0.713414 0 0)
(0.42294 0 0)
(0.498574 0 0)
(0.406832 0 0)
(0.405134 0 0)
(0.556589 0 0)
(0.359194 0 0)
(0.397081 0 0)
(0.53602 0 0)
(0.39875 0 0)
(0.419412 0 0)
(0.410906 0 0)
(0.48337 0 0)
(0.442029 0 0)
(0.426155 0 0)
(0.484054 0 0)
(0.350081 0 0)
(0.43595 0 0)
(0.539979 0 0)
(0.451365 0 0)
(0.432463 0 0)
(0.451465 0 0)
(0.455622 0 0)
(0.412342 0 0)
(0.451069 0 0)
(0.414366 0 0)
(0.522362 0 0)
(0.378878 0 0)
(0.469375 0 0)
(0.292631 0 0)
(0.547822 0 0)
(0.490399 0 0)
(0.551648 0 0)
(0.290399 0 0)
(0.642309 0 0)
(0.329063 0 0)
(0.357916 0 0)
(0.485364 0 0)
(0.577071 0 0)
(0.302774 0 0)
(0.256874 0 0)
(0.660035 0 0)
(0.43414 0 0)
(0.320233 0 0)
(0.639041 0 0)
(0.377673 0 0)
(0.322061 0 0)
(0.626856 0 0)
(0.380431 0 0)
(0.660043 0 0)
(0.338194 0 0)
(0.343598 0 0)
(0.39176 0 0)
(0.450842 0 0)
(0.49205 0 0)
(0.316289 0 0)
(0.346015 0 0)
(0.669371 0 0)
(0.433415 0 0)
(0.509222 0 0)
(0.393518 0 0)
(0.249682 0 0)
(0.684032 0 0)
(0.44187 0 0)
(0.482808 0 0)
(0.232916 0 0)
(0.635265 0 0)
(0.196465 0 0)
(0.541613 0 0)
(0.630243 0 0)
(0.419243 0 0)
(0.427079 0 0)
(0.611744 0 0)
(0.61759 0 0)
(0.327484 0 0)
(0.307539 0 0)
(0.238347 0 0)
(0.500335 0 0)
(0.628814 0 0)
(0.46461 0 0)
(0.411224 0 0)
(0.475364 0 0)
(0.307099 0 0)
(0.525108 0 0)
(0.497023 0 0)
(0.316073 0 0)
(0.460706 0 0)
(0.5402 0 0)
(0.486547 0 0)
(0.169226 0 0)
(0.841882 0 0)
(0.425612 0 0)
(0.536693 0 0)
(0.376811 0 0)
(0.400322 0 0)
(0.403824 0 0)
(0.632684 0 0)
(0.317075 0 0)
(0.621139 0 0)
(0.323816 0 0)
(0.450056 0 0)
(0.746704 0 0)
(0.195561 0 0)
(0.413153 0 0)
(0.58827 0 0)
(0.347839 0 0)
(0.359955 0 0)
(0.431273 0 0)
(0.552601 0 0)
(0.198542 0 0)
(0.530855 0 0)
(0.602143 0 0)
(0.456901 0 0)
(0.635019 0 0)
(0.285417 0 0)
(0.392456 0 0)
(0.544189 0 0)
(0.387737 0 0)
(0.483705 0 0)
(0.538636 0 0)
(0.342506 0 0)
(0.317172 0 0)
(0.484248 0 0)
(0.548654 0 0)
(0.329561 0 0)
(0.520412 0 0)
(0.499267 0 0)
(0.46694 0 0)
(0.580523 0 0)
(0.288266 0 0)
(0.358841 0 0)
(0.494534 0 0)
(0.501065 0 0)
(0.520719 0 0)
(0.545542 0 0)
(0.524754 0 0)
(0.528807 0 0)
(0.276493 0 0)
(0.257112 0 0)
(0.492264 0 0)
(0.515524 0 0)
(0.319676 0 0)
(0.470602 0 0)
(0.203567 0 0)
(0.727608 0 0)
(0.454211 0 0)
(0.170364 0 0)
(0.78263 0 0)
(0.435487 0 0)
(0.633147 0 0)
(0.271398 0 0)
(0.33915 0 0)
(0.574955 0 0)
(0.42098 0 0)
(0.506911 0 0)
(0.332784 0 0)
(0.509012 0 0)
(0.19297 0 0)
(0.690896 0 0)
(0.477099 0 0)
(0.343202 0 0)
(0.565525 0 0)
(0.430397 0 0)
(0.335055 0 0)
(0.493845 0 0)
(0.490787 0 0)
(0.468942 0 0)
(0.512286 0 0)
(0.342255 0 0)
(0.564263 0 0)
(0.344755 0 0)
(0.428954 0 0)
(0.585662 0 0)
(0.359925 0 0)
(0.47281 0 0)
(0.241285 0 0)
(0.675977 0 0)
(0.229006 0 0)
(0.520013 0 0)
(0.613377 0 0)
(0.52254 0 0)
(0.652529 0 0)
(0.207259 0 0)
(0.470224 0 0)
(0.579632 0 0)
(0.280942 0 0)
(0.442538 0 0)
(0.344877 0 0)
(0.338763 0 0)
(0.685924 0 0)
(0.657623 0 0)
(0.517288 0 0)
(0.194678 0 0)
(0.439921 0 0)
(0.400589 0 0)
(0.472664 0 0)
(0.406858 0 0)
(0.566536 0 0)
(0.385758 0 0)
(0.213711 0 0)
(0.524976 0 0)
(0.596381 0 0)
(0.445888 0 0)
(0.561626 0 0)
(0.352416 0 0)
(0.176523 0 0)
(0.763697 0 0)
(0.489144 0 0)
(0.265419 0 0)
(0.564082 0 0)
(0.476823 0 0)
(0.499908 0 0)
(0.612516 0 0)
(0.207554 0 0)
(0.50794 0 0)
(0.516905 0 0)
(0.287716 0 0)
(0.399888 0 0)
(0.594569 0 0)
(0.346043 0 0)
(0.569039 0 0)
(0.552181 0 0)
(0.227867 0 0)
(0.543257 0 0)
(0.545687 0 0)
(0.253485 0 0)
(0.15021 0 0)
(0.753424 0 0)
(0.49057 0 0)
(0.329335 0 0)
(0.460585 0 0)
(0.561318 0 0)
(0.445886 0 0)
(0.180737 0 0)
(0.866588 0 0)
(0.383605 0 0)
(0.463165 0 0)
(0.461033 0 0)
(0.490603 0 0)
(0.50801 0 0)
(0.536846 0 0)
(0.53703 0 0)
(0.316473 0 0)
(0.29756 0 0)
(0.305498 0 0)
(0.361652 0 0)
(0.697882 0 0)
(0.398981 0 0)
(0.589559 0 0)
(0.365627 0 0)
(0.54113 0 0)
(0.55645 0 0)
(0.245623 0 0)
(0.421906 0 0)
(0.631022 0 0)
(0.297535 0 0)
(0.443448 0 0)
(0.462174 0 0)
(0.443501 0 0)
(0.52678 0 0)
(0.544353 0 0)
(0.286234 0 0)
(0.379003 0 0)
(0.59347 0 0)
(0.358719 0 0)
(0.43204 0 0)
(0.459636 0 0)
(0.308219 0 0)
(0.450308 0 0)
(0.561843 0 0)
(0.514235 0 0)
(0.548562 0 0)
(0.265817 0 0)
(0.4335 0 0)
(0.285348 0 0)
(0.643362 0 0)
(0.332879 0 0)
(0.459456 0 0)
(0.535198 0 0)
(0.260601 0 0)
(0.54667 0 0)
(0.50905 0 0)
(0.367418 0 0)
(0.617846 0 0)
(0.339513 0 0)
(0.307574 0 0)
(0.470055 0 0)
(0.570028 0 0)
(0.3799 0 0)
(0.381765 0 0)
(0.647665 0 0)
(0.341888 0 0)
(0.640221 0 0)
(0.315098 0 0)
(0.219792 0 0)
(0.69845 0 0)
(0.477842 0 0)
(0.393909 0 0)
(0.606096 0 0)
(0.337245 0 0)
(0.90203 0 0)
(0.123606 0 0)
(0.493108 0 0)
(0.484263 0 0)
(0.357085 0 0)
(0.477195 0 0)
(0.46883 0 0)
(0.558002 0 0)
(0.306726 0 0)
(0.242766 0 0)
(0.455088 0 0)
(0.641717 0 0)
(0.489803 0 0)
(0.557284 0 0)
(0.272411 0 0)
(0.568403 0 0)
(0.533124 0 0)
(0.21049 0 0)
(0.544815 0 0)
(0.358963 0 0)
(0.438443 0 0)
(0.57889 0 0)
(0.314203 0 0)
(0.528097 0 0)
(0.341457 0 0)
(0.381319 0 0)
(0.268784 0 0)
(0.686784 0 0)
(0.463623 0 0)
(0.589331 0 0)
(0.274535 0 0)
(0.454486 0 0)
(0.602545 0 0)
(0.313507 0 0)
(0.48364 0 0)
(0.519777 0 0)
(0.319068 0 0)
(0.532182 0 0)
(0.485459 0 0)
(0.30091 0 0)
(0.430774 0 0)
(0.522122 0 0)
(0.387566 0 0)
(0.269997 0 0)
(0.559881 0 0)
(0.510447 0 0)
(0.484448 0 0)
(0.652265 0 0)
(0.217444 0 0)
(0.587761 0 0)
(0.531035 0 0)
(0.227676 0 0)
(0.313778 0 0)
(0.400952 0 0)
(0.615623 0 0)
(0.366449 0 0)
(0.353864 0 0)
(0.644845 0 0)
(0.669212 0 0)
(0.33621 0 0)
(0.334606 0 0)
(0.1503 0 0)
(0.894819 0 0)
(0.490199 0 0)
(0.418069 0 0)
(0.182617 0 0)
(0.807745 0 0)
(0.50503 0 0)
(0.566132 0 0)
(0.297736 0 0)
(0.22119 0 0)
(0.462383 0 0)
(0.682646 0 0)
(0.338737 0 0)
(0.349958 0 0)
(0.615003 0 0)
(0.624654 0 0)
(0.367273 0 0)
(0.356772 0 0)
(0.163201 0 0)
(0.676114 0 0)
(0.525267 0 0)
(0.450766 0 0)
(0.170719 0 0)
(0.881435 0 0)
(0.477417 0 0)
(0.407348 0 0)
(0.436498 0 0)
(0.458308 0 0)
(0.835869 0 0)
(0.147654 0 0)
(0.34633 0 0)
(0.576984 0 0)
(0.4053 0 0)
(0.500555 0 0)
(0.687557 0 0)
(0.200881 0 0)
(0.901019 0 0)
(0.0898287 0 0)
(0.537741 0 0)
(0.359111 0 0)
(0.449708 0 0)
(0.534509 0 0)
(0.469979 0 0)
(0.47892 0 0)
(0.380905 0 0)
(0.432373 0 0)
(0.211468 0 0)
(0.762784 0 0)
(0.479833 0 0)
(0.492826 0 0)
(0.37199 0 0)
(0.477759 0 0)
(0.424831 0 0)
(0.449734 0 0)
(0.265407 0 0)
(0.57738 0 0)
(0.503644 0 0)
(0.499937 0 0)
(0.458904 0 0)
(0.379291 0 0)
(0.503627 0 0)
(0.473103 0 0)
(0.379379 0 0)
(0.298279 0 0)
(0.599992 0 0)
(0.406108 0 0)
(0.241166 0 0)
(0.21435 0 0)
(0.725785 0 0)
(0.704533 0 0)
(0.430671 0 0)
(0.43591 0 0)
(0.500823 0 0)
(0.674834 0 0)
(0.208373 0 0)
(0.395375 0 0)
(0.315846 0 0)
(0.623045 0 0)
(0.328281 0 0)
(0.434824 0 0)
(0.549375 0 0)
(0.547307 0 0)
(0.532039 0 0)
(0.237774 0 0)
(0.819845 0 0)
(0.106887 0 0)
(0.551059 0 0)
(0.179615 0 0)
(0.524574 0 0)
(0.629969 0 0)
(0.466748 0 0)
(0.186098 0 0)
(0.776762 0 0)
(0.0595378 0 0)
(0.944313 0 0)
(0.567108 0 0)
(1.01636 0 0)
(0.11128 0 0)
(0.527834 0 0)
(0.583784 0 0)
(0.496288 0 0)
(0.275091 0 0)
(0.726646 0 0)
(0.146893 0 0)
(0.537297 0 0)
(0.455784 0 0)
(0.622031 0 0)
(0.258567 0 0)
(0.385168 0 0)
(0.25787 0 0)
(0.751224 0 0)
(0.440135 0 0)
(0.371735 0 0)
(0.531657 0 0)
(0.655088 0 0)
(0.178918 0 0)
(0.52391 0 0)
(0.557909 0 0)
(0.255119 0 0)
(0.521394 0 0)
(0.560902 0 0)
(0.524794 0 0)
(0.243782 0 0)
(0.0531543 0 0)
(1.39334 0 0)
(0.754866 0 0)
(0.863245 0 0)
(0.100881 0 0)
(0.518751 0 0)
(0.430562 0 0)
(0.372785 0 0)
(0.521416 0 0)
(0.696413 0 0)
(0.51294 0 0)
(0.172894 0 0)
(0.160608 0 0)
(0.535675 0 0)
(0.694006 0 0)
(0.450498 0 0)
(0.23239 0 0)
(0.692493 0 0)
(0.28772 0 0)
(0.687085 0 0)
(0.379801 0 0)
(0.298449 0 0)
(0.612123 0 0)
(0.431852 0 0)
(0.63862 0 0)
(0.351834 0 0)
(0.350041 0 0)
(0.279885 0 0)
(0.354902 0 0)
(0.69189 0 0)
(0.366065 0 0)
(0.379264 0 0)
(0.573893 0 0)
(0.598177 0 0)
(0.383654 0 0)
(0.381957 0 0)
(0.36188 0 0)
(0.572544 0 0)
(0.402231 0 0)
(0.334895 0 0)
(0.628994 0 0)
(0.385571 0 0)
(0.575806 0 0)
(0.522986 0 0)
(0.236286 0 0)
(0.661199 0 0)
(0.500679 0 0)
(0.188409 0 0)
(0.229298 0 0)
(0.504045 0 0)
(0.583699 0 0)
(0.91574 0 0)
(0.111374 0 0)
(0.48781 0 0)
(0.38241 0 0)
(0.390679 0 0)
(0.430414 0 0)
(0.542149 0 0)
(0.41266 0 0)
(0.528966 0 0)
(0.33948 0 0)
(0.325737 0 0)
(0.401293 0 0)
(0.612678 0 0)
(0.401413 0 0)
(0.59417 0 0)
(0.886549 0 0)
(0.0854445 0 0)
(0.572587 0 0)
(0.674186 0 0)
(0.500369 0 0)
(0.180214 0 0)
(0.306132 0 0)
(0.443463 0 0)
(0.571064 0 0)
(0.545259 0 0)
(0.543207 0 0)
(0.227808 0 0)
(0.305561 0 0)
(0.682472 0 0)
(0.375577 0 0)
(0.795397 0 0)
(0.494435 0 0)
(0.125086 0 0)
(0.79634 0 0)
(0.514366 0 0)
(0.151218 0 0)
(0.366517 0 0)
(0.618723 0 0)
(0.354705 0 0)
(0.34288 0 0)
(0.473669 0 0)
(0.530312 0 0)
(0.455792 0 0)
(0.230279 0 0)
(0.706197 0 0)
(0.583054 0 0)
(0.498947 0 0)
(0.257356 0 0)
(0.275218 0 0)
(0.655257 0 0)
(0.42942 0 0)
(0.323813 0 0)
(0.417146 0 0)
(0.59345 0 0)
(0.531476 0 0)
(0.518314 0 0)
(0.305582 0 0)
(0.345728 0 0)
(0.450176 0 0)
(0.547643 0 0)
(0.20793 0 0)
(0.6988 0 0)
(0.456551 0 0)
(0.408255 0 0)
(0.644575 0 0)
(0.302163 0 0)
(0.366474 0 0)
(0.433923 0 0)
(0.520663 0 0)
(0.369306 0 0)
(0.279572 0 0)
(0.720887 0 0)
(0.375851 0 0)
(0.551764 0 0)
(0.393992 0 0)
(0.474724 0 0)
(0.504605 0 0)
(0.349293 0 0)
(0.565659 0 0)
(0.524767 0 0)
(0.265236 0 0)
(0.398376 0 0)
(0.204842 0 0)
(0.783295 0 0)
(0.400585 0 0)
(0.231721 0 0)
(0.783059 0 0)
(0.280062 0 0)
(0.664821 0 0)
(0.411868 0 0)
(0.529957 0 0)
(0.503805 0 0)
(0.280429 0 0)
(0.20725 0 0)
(0.824835 0 0)
(0.417168 0 0)
(0.257006 0 0)
(0.641187 0 0)
(0.468039 0 0)
(0.0624247 0 0)
(1.04665 0 0)
(0.619468 0 0)
(0.560595 0 0)
(1.08046 0 0)
(0.0972666 0 0)
(0.287704 0 0)
(0.693638 0 0)
(0.381632 0 0)
(0.179986 0 0)
(0.729501 0 0)
(0.472724 0 0)
(0.421281 0 0)
(0.418618 0 0)
(0.252399 0 0)
(0.708555 0 0)
(0.257109 0 0)
(0.693227 0 0)
(0.477357 0 0)
(0.628854 0 0)
(0.248804 0 0)
(0.23661 0 0)
(0.546757 0 0)
(0.557009 0 0)
(0.398177 0 0)
(0.410472 0 0)
(0.512242 0 0)
(0.488772 0 0)
(0.600544 0 0)
(0.238914 0 0)
(0.254057 0 0)
(0.504509 0 0)
(0.599585 0 0)
(0.354356 0 0)
(0.303923 0 0)
(0.69698 0 0)
(0.315205 0 0)
(0.610124 0 0)
(0.386559 0 0)
(0.344412 0 0)
(0.591088 0 0)
(0.396221 0 0)
(0.480446 0 0)
(0.600659 0 0)
(0.286673 0 0)
(0.480231 0 0)
(0.585161 0 0)
(0.262389 0 0)
(0.379857 0 0)
(0.446375 0 0)
(0.519426 0 0)
(0.354385 0 0)
(0.595928 0 0)
(0.372442 0 0)
(0.179392 0 0)
(0.650393 0 0)
(0.538786 0 0)
(0.52264 0 0)
(0.124788 0 0)
(0.76548 0 0)
(0.529242 0 0)
(0.110409 0 0)
(0.772886 0 0)
(0.352348 0 0)
(0.421546 0 0)
(0.557933 0 0)
(0.858321 0 0)
(0.126171 0 0)
(0.526791 0 0)
(0.4062 0 0)
(0.295473 0 0)
(0.655508 0 0)
(0.0890482 0 0)
(0.823049 0 0)
(0.528801 0 0)
(0.460526 0 0)
(0.399164 0 0)
(0.493337 0 0)
(0.426811 0 0)
(0.573573 0 0)
(0.333437 0 0)
(0.49864 0 0)
(0.54269 0 0)
(0.293937 0 0)
(0.146128 0 0)
(0.690421 0 0)
(0.515692 0 0)
(0.567192 0 0)
(0.509711 0 0)
(0.247112 0 0)
(0.256345 0 0)
(0.369399 0 0)
(0.72148 0 0)
(0.437612 0 0)
(0.596493 0 0)
(0.330527 0 0)
(0.417469 0 0)
(0.427048 0 0)
(0.51157 0 0)
(0.712789 0 0)
(0.516421 0 0)
(0.167526 0 0)
(0.27164 0 0)
(0.660303 0 0)
(0.454637 0 0)
(0.424341 0 0)
(0.444415 0 0)
(0.197814 0 0)
(0.196903 0 0)
(0.76845 0 0)
(0.814174 0 0)
(0.490906 0 0)
(0.540855 0 0)
(0.318399 0 0)
(0.565114 0 0)
(0.496279 0 0)
(0.276528 0 0)
(0.453787 0 0)
(0.50312 0 0)
(0.357256 0 0)
(0.751151 0 0)
(0.519077 0 0)
(0.727962 0 0)
(0.141016 0 0)
(0.526235 0 0)
(0.122314 0 0)
(0.440441 0 0)
(0.603888 0 0)
(0.301851 0 0)
(0.497717 0 0)
(0.51342 0 0)
(0.715039 0 0)
(0.748795 0 0)
(0.161131 0 0)
(0.155366 0 0)
(0.509862 0 0)
(0.566464 0 0)
(0.28577 0 0)
(0.45198 0 0)
(0.546064 0 0)
(0.329195 0 0)
(0.385572 0 0)
(0.230814 0 0)
(0.752768 0 0)
(0.473747 0 0)
(0.549533 0 0)
(0.320267 0 0)
(0.468474 0 0)
(0.527155 0 0)
(0.357817 0 0)
(0.423383 0 0)
(0.218512 0 0)
(0.783168 0 0)
(0.422647 0 0)
(0.595383 0 0)
(0.332702 0 0)
(0.516646 0 0)
(0.567298 0 0)
(0.251846 0 0)
(0.314652 0 0)
(0.598046 0 0)
(0.420903 0 0)
(0.599405 0 0)
(0.211156 0 0)
(0.546455 0 0)
(0.0531549 0 0)
(1.03461 0 0)
(0.559997 0 0)
(0.467923 0 0)
(0.580853 0 0)
(0.33109 0 0)
(0.412095 0 0)
(0.246709 0 0)
(0.738762 0 0)
(0.447173 0 0)
(0.595782 0 0)
(0.28818 0 0)
(0.48325 0 0)
(0.145893 0 0)
(0.955954 0 0)
(0.353998 0 0)
(0.328321 0 0)
(0.489833 0 0)
(0.513733 0 0)
(0.473596 0 0)
(0.513594 0 0)
(0.468462 0 0)
(0.500923 0 0)
(0.364548 0 0)
(0.34657 0 0)
(0.356444 0 0)
(0.458815 0 0)
(0.522567 0 0)
(0.468793 0 0)
(0.513962 0 0)
(0.460166 0 0)
(0.547289 0 0)
(0.339968 0 0)
(0.460615 0 0)
(0.537577 0 0)
(0.328834 0 0)
(0.124667 0 0)
(0.768148 0 0)
(0.545016 0 0)
(0.357297 0 0)
(0.555268 0 0)
(0.406091 0 0)
(0.495867 0 0)
(0.723429 0 0)
(0.188266 0 0)
(0.459643 0 0)
(0.471939 0 0)
(0.599104 0 0)
(0.622535 0 0)
(0.273031 0 0)
(0.273701 0 0)
(0.375788 0 0)
(0.555247 0 0)
(0.414226 0 0)
(0.35143 0 0)
(0.615295 0 0)
(0.373131 0 0)
(0.454199 0 0)
(0.586332 0 0)
(0.289255 0 0)
(0.421242 0 0)
(0.494041 0 0)
(0.436624 0 0)
(0.488739 0 0)
(0.60913 0 0)
(0.262785 0 0)
(0.396515 0 0)
(0.425758 0 0)
(0.522848 0 0)
(0.490264 0 0)
(0.563553 0 0)
(0.289535 0 0)
(0.36065 0 0)
(0.608666 0 0)
(0.371215 0 0)
(0.404222 0 0)
(0.403401 0 0)
(0.492696 0 0)
(0.427415 0 0)
(0.505305 0 0)
(0.448373 0 0)
(0.370984 0 0)
(0.445481 0 0)
(0.372239 0 0)
(0.505043 0 0)
(0.464827 0 0)
(0.510658 0 0)
(0.384907 0 0)
(0.384849 0 0)
(0.571258 0 0)
(0.56631 0 0)
(0.38984 0 0)
(0.368721 0 0)
(0.289594 0 0)
(0.678961 0 0)
(0.391817 0 0)
(0.251906 0 0)
(0.558707 0 0)
(0.501695 0 0)
(0.278548 0 0)
(0.271673 0 0)
(0.691644 0 0)
(0.678493 0 0)
(0.398909 0 0)
(0.410151 0 0)
(0.286474 0 0)
(0.457056 0 0)
(0.568824 0 0)
(0.423842 0 0)
(0.426168 0 0)
(0.463989 0 0)
(0.471889 0 0)
(0.611693 0 0)
(0.252068 0 0)
(0.362966 0 0)
(0.414454 0 0)
(0.543077 0 0)
(0.365509 0 0)
(0.609097 0 0)
(0.357825 0 0)
(0.366771 0 0)
(0.385721 0 0)
(0.656533 0 0)
(0.307253 0 0)
(0.653505 0 0)
(0.312431 0 0)
(0.444213 0 0)
(0.607095 0 0)
(0.284799 0 0)
(0.45594 0 0)
(0.904994 0 0)
(0.149845 0 0)
(0.450673 0 0)
(0.586316 0 0)
(0.281337 0 0)
(0.287406 0 0)
(0.301422 0 0)
(0.42942 0 0)
(0.591729 0 0)
(0.441398 0 0)
(0.592066 0 0)
(0.519628 0 0)
(0.584956 0 0)
(0.241751 0 0)
(0.340397 0 0)
(0.599354 0 0)
(0.377742 0 0)
(0.29826 0 0)
(0.453561 0 0)
(0.579448 0 0)
(0.319712 0 0)
(0.318451 0 0)
(0.437626 0 0)
(0.421115 0 0)
(0.581691 0 0)
(0.578851 0 0)
(0.303765 0 0)
(0.424074 0 0)
(0.582331 0 0)
(0.459607 0 0)
(0.604742 0 0)
(0.289068 0 0)
(0.381776 0 0)
(0.428431 0 0)
(0.507605 0 0)
(0.431149 0 0)
(0.227595 0 0)
(0.75347 0 0)
(0.290566 0 0)
(0.444673 0 0)
(0.582249 0 0)
(0.375377 0 0)
(0.386126 0 0)
(0.599986 0 0)
(0.621354 0 0)
(0.351814 0 0)
(0.349072 0 0)
(0.226267 0 0)
(0.723236 0 0)
(0.414634 0 0)
(0.406713 0 0)
(0.235479 0 0)
(0.745392 0 0)
(0.409432 0 0)
(0.218469 0 0)
(0.754902 0 0)
(0.389845 0 0)
(0.298473 0 0)
(0.664379 0 0)
(0.355918 0 0)
(0.6 0 0)
(0.388096 0 0)
(0.633479 0 0)
(0.522071 0 0)
(0.396848 0 0)
(0.63257 0 0)
(0.423885 0 0)
(0.812091 0 0)
(0.451524 0 0)
(0.585714 0 0)
(0.704171 0 0)
(0.332803 0 0)
(0.320809 0 0)
(0.729721 0 0)
(0.63665 0 0)
(0.407483 0 0)
(0.497709 0 0)
(0.641031 0 0)
(0.599117 0 0)
(0.5589 0 0)
(0.526822 0 0)
(0.273816 0 0)
(0.446981 0 0)
(0.576753 0 0)
(0.283716 0 0)
(0.24867 0 0)
(0.362157 0 0)
(0.541896 0 0)
(0.386633 0 0)
(0.715695 0 0)
(0.465009 0 0)
(0.628077 0 0)
(0.685234 0 0)
(0.447002 0 0)
(0.51424 0 0)
(0.342877 0 0)
(0.665139 0 0)
(0.488476 0 0)
(0.289377 0 0)
(0.30999 0 0)
(0.577976 0 0)
(0.546596 0 0)
(0.603383 0 0)
(0.14321 0 0)
(0.649431 0 0)
(0.384157 0 0)
(0.466804 0 0)
(0.552485 0 0)
(0.547555 0 0)
(0.644609 0 0)
(0.739748 0 0)
(0.650352 0 0)
(0.346788 0 0)
(0.325974 0 0)
(0.631007 0 0)
(0.6139 0 0)
(0.694886 0 0)
(0.345787 0 0)
(0.324453 0 0)
(0.504258 0 0)
(0.660466 0 0)
(0.423679 0 0)
(0.647409 0 0)
(0.631982 0 0)
(0.345971 0 0)
(0.579994 0 0)
(0.494371 0 0)
(0.318044 0 0)
(0.452968 0 0)
(0.398589 0 0)
(0.296778 0 0)
(0.499123 0 0)
(0.773369 0 0)
(0.71843 0 0)
(0.59698 0 0)
(0.294547 0 0)
(0.714426 0 0)
(0.35351 0 0)
(0.552488 0 0)
(0.677499 0 0)
(0.447151 0 0)
(0.291997 0 0)
(0.5779 0 0)
(0.480471 0 0)
(0.735868 0 0)
(0.647733 0 0)
(0.502828 0 0)
(0.439607 0 0)
(0.515501 0 0)
(0.592718 0 0)
(0.473511 0 0)
(0.399567 0 0)
(0.62382 0 0)
(0.365903 0 0)
(0.371762 0 0)
(0.35394 0 0)
(0.632947 0 0)
(0.889379 0 0)
(0.668461 0 0)
(0.633866 0 0)
(0.630509 0 0)
(0.769125 0 0)
(0.471239 0 0)
(0.27069 0 0)
(0.478121 0 0)
(0.410063 0 0)
(0.624624 0 0)
(0.60941 0 0)
(0.700998 0 0)
(0.62244 0 0)
(0.663164 0 0)
(0.30178 0 0)
(0.239494 0 0)
(0.286161 0 0)
(0.653634 0 0)
(0.718265 0 0)
(0.538344 0 0)
(0.47796 0 0)
(0.527501 0 0)
(0.593636 0 0)
(0.843442 0 0)
(0.561022 0 0)
(0.457624 0 0)
(0.444803 0 0)
(0.409131 0 0)
(0.304487 0 0)
(0.528109 0 0)
(0.588539 0 0)
(0.775472 0 0)
(0.353109 0 0)
(0.649522 0 0)
(0.3215 0 0)
(0.806136 0 0)
(0.402717 0 0)
(0.740744 0 0)
(0.692398 0 0)
(0.635923 0 0)
(0.293231 0 0)
(0.342993 0 0)
(0.911867 0 0)
(0.643474 0 0)
(0.44288 0 0)
(0.623861 0 0)
(0.429832 0 0)
(0.517349 0 0)
(0.623257 0 0)
(0.463093 0 0)
(0.617103 0 0)
(0.656888 0 0)
(0.276128 0 0)
(0.636703 0 0)
(0.546157 0 0)
(0.767969 0 0)
(0.525296 0 0)
(0.584874 0 0)
(0.360602 0 0)
(0.379938 0 0)
(0.537633 0 0)
(0.332597 0 0)
(0.441329 0 0)
(0.398148 0 0)
(0.546064 0 0)
(0.590871 0 0)
(0.622159 0 0)
(0.477799 0 0)
(0.672345 0 0)
(0.559839 0 0)
(0.688973 0 0)
(0.213586 0 0)
(0.566581 0 0)
(0.455913 0 0)
(0.304513 0 0)
(0.473327 0 0)
(0.357555 0 0)
(0.339143 0 0)
(0.368238 0 0)
(0.717645 0 0)
(0.782888 0 0)
(0.774559 0 0)
(0.406531 0 0)
(0.662866 0 0)
(0.726314 0 0)
(0.654785 0 0)
(0.721277 0 0)
(0.527669 0 0)
(0.614881 0 0)
(0.471907 0 0)
(0.315389 0 0)
(0.337536 0 0)
(0.590591 0 0)
(0.438074 0 0)
(0.638872 0 0)
(0.167069 0 0)
(0.735381 0 0)
(0.472875 0 0)
(0.623671 0 0)
(0.863733 0 0)
(0.218993 0 0)
(0.242288 0 0)
(0.621622 0 0)
(0.630075 0 0)
(0.201523 0 0)
(0.441122 0 0)
(0.607263 0 0)
(0.654821 0 0)
(0.264416 0 0)
(0.325574 0 0)
(0.515602 0 0)
(0.630721 0 0)
(0.663334 0 0)
(0.47177 0 0)
(0.544621 0 0)
(0.683515 0 0)
(0.582128 0 0)
(0.656231 0 0)
(0.689239 0 0)
(0.586542 0 0)
(0.543141 0 0)
(0.851993 0 0)
(0.594708 0 0)
(0.260331 0 0)
(0.542216 0 0)
(0.799513 0 0)
(0.555843 0 0)
(0.62893 0 0)
(0.583694 0 0)
(0.336043 0 0)
(0.373925 0 0)
(0.658339 0 0)
(0.709021 0 0)
(0.625813 0 0)
(0.29517 0 0)
(0.530026 0 0)
(0.339028 0 0)
(0.297755 0 0)
(0.601434 0 0)
(0.682787 0 0)
(0.36167 0 0)
(0.600359 0 0)
(0.813253 0 0)
(0.535134 0 0)
(0.268893 0 0)
(0.354927 0 0)
(0.444455 0 0)
(0.390053 0 0)
(0.13459 0 0)
(0.624396 0 0)
(0.968597 0 0)
(0.530204 0 0)
(0.522563 0 0)
(0.582781 0 0)
(0.807454 0 0)
(0.465868 0 0)
(0.207779 0 0)
(0.419477 0 0)
(0.33611 0 0)
(0.596533 0 0)
(0.36469 0 0)
(0.51703 0 0)
(0.442368 0 0)
(0.522353 0 0)
(0.626427 0 0)
(0.553693 0 0)
(0.611068 0 0)
(0.675246 0 0)
(0.647814 0 0)
(0.615969 0 0)
(0.626092 0 0)
(0.676605 0 0)
(0.400271 0 0)
(0.525222 0 0)
(0.47193 0 0)
(0.393392 0 0)
(0.630116 0 0)
(0.529401 0 0)
(0.649643 0 0)
(0.538344 0 0)
(0.540551 0 0)
(0.623938 0 0)
(0.334804 0 0)
(0.827423 0 0)
(0.881069 0 0)
(0.5491 0 0)
(0.765275 0 0)
(0.820757 0 0)
(0.32301 0 0)
(0.683148 0 0)
(0.836935 0 0)
(0.394953 0 0)
(0.309579 0 0)
(0.632588 0 0)
(0.560742 0 0)
(0.69731 0 0)
(0.434409 0 0)
(0.600821 0 0)
(0.688214 0 0)
(0.624439 0 0)
(0.473339 0 0)
(0.44693 0 0)
(0.477679 0 0)
(0.773371 0 0)
(0.672287 0 0)
(0.395349 0 0)
(0.616281 0 0)
(0.635086 0 0)
(0.928692 0 0)
(0.75319 0 0)
(0.788713 0 0)
(0.739604 0 0)
(0.611748 0 0)
(0.320938 0 0)
(0.693641 0 0)
(0.865376 0 0)
(0.665032 0 0)
(0.612142 0 0)
(0.152232 0 0)
(0.604905 0 0)
(0.283225 0 0)
(0.504451 0 0)
(0.691085 0 0)
(0.580071 0 0)
(0.638498 0 0)
(0.711979 0 0)
(0.360087 0 0)
(0.59921 0 0)
(0.214883 0 0)
(0.502424 0 0)
(0.671804 0 0)
(0.588223 0 0)
(0.327083 0 0)
(0.270803 0 0)
(0.512526 0 0)
(0.262907 0 0)
(0.277175 0 0)
(0.600907 0 0)
(0.45299 0 0)
(0.52289 0 0)
(0.663553 0 0)
(0.778545 0 0)
(0.625436 0 0)
(0.598887 0 0)
(0.497858 0 0)
(0.660459 0 0)
(0.728771 0 0)
(0.643364 0 0)
(0.580745 0 0)
(0.645245 0 0)
(0.600835 0 0)
(0.373562 0 0)
(0.584192 0 0)
(0.622118 0 0)
(0.421999 0 0)
(0.458099 0 0)
(0.653013 0 0)
(0.56364 0 0)
(0.315931 0 0)
(0.479402 0 0)
(0.70905 0 0)
(0.586918 0 0)
(0.664178 0 0)
(0.724616 0 0)
(0.409569 0 0)
(0.663167 0 0)
(0.572641 0 0)
(0.447373 0 0)
(0.785371 0 0)
(0.51622 0 0)
(0.645495 0 0)
(0.45409 0 0)
(0.591509 0 0)
(0.622688 0 0)
(0.806576 0 0)
(0.575572 0 0)
(0.729407 0 0)
(0.411418 0 0)
(0.5596 0 0)
(0.529321 0 0)
(0.486783 0 0)
(0.311301 0 0)
(0.634843 0 0)
(0.543954 0 0)
(0.584939 0 0)
(0.646833 0 0)
(0.83758 0 0)
(0.394906 0 0)
(0.51049 0 0)
(0.435836 0 0)
(0.718564 0 0)
(0.516871 0 0)
(0.770712 0 0)
(0.61114 0 0)
(0.640826 0 0)
(0.656207 0 0)
(0.55159 0 0)
(0.388581 0 0)
(0.604093 0 0)
(0.500631 0 0)
(0.358595 0 0)
(0.39178 0 0)
(0.467702 0 0)
(0.348591 0 0)
(0.59417 0 0)
(0.610361 0 0)
(0.719477 0 0)
(0.252415 0 0)
(0.469552 0 0)
(0.44729 0 0)
(0.643946 0 0)
(0.530977 0 0)
(0.843951 0 0)
(0.49052 0 0)
(0.583593 0 0)
(0.633305 0 0)
(0.446576 0 0)
(0.51346 0 0)
(0.641835 0 0)
(0.578015 0 0)
(0.645469 0 0)
(0.637833 0 0)
(0.643322 0 0)
(0.575436 0 0)
(0.538172 0 0)
(0.705094 0 0)
(0.597975 0 0)
(0.750595 0 0)
(0.580537 0 0)
(0.690704 0 0)
(0.519584 0 0)
(0.615479 0 0)
(0.807248 0 0)
(0.28928 0 0)
(0.272618 0 0)
(0.332717 0 0)
(0.645364 0 0)
(0.518955 0 0)
(0.709281 0 0)
(0.290693 0 0)
(0.408371 0 0)
(0.739744 0 0)
(0.32334 0 0)
(0.723507 0 0)
(0.215534 0 0)
(0.762253 0 0)
(0.550672 0 0)
(0.556743 0 0)
(0.279129 0 0)
(0.484208 0 0)
(0.6329 0 0)
(0.205325 0 0)
(0.611696 0 0)
(0.385179 0 0)
(0.559961 0 0)
(0.528864 0 0)
(0.614346 0 0)
(0.622232 0 0)
(0.633095 0 0)
(0.410713 0 0)
(0.563606 0 0)
(0.252005 0 0)
(0.286442 0 0)
(0.781159 0 0)
(0.630094 0 0)
(0.348359 0 0)
(0.724525 0 0)
(0.637394 0 0)
(0.549467 0 0)
(0.699016 0 0)
(0.33662 0 0)
(0.6492 0 0)
(0.65654 0 0)
(0.435486 0 0)
(0.639313 0 0)
(0.232563 0 0)
(0.253291 0 0)
(0.524995 0 0)
(0.283006 0 0)
(0.382162 0 0)
(0.305844 0 0)
(0.427885 0 0)
(0.455649 0 0)
(0.697034 0 0)
(0.655724 0 0)
(0.587987 0 0)
(0.329199 0 0)
(0.584077 0 0)
(0.738936 0 0)
(0.227538 0 0)
(0.668169 0 0)
(0.425541 0 0)
(0.663269 0 0)
(0.302419 0 0)
(0.169559 0 0)
(0.682517 0 0)
(0.386975 0 0)
(0.514882 0 0)
(0.300914 0 0)
(0.576684 0 0)
(0.321252 0 0)
(0.381115 0 0)
(0.317694 0 0)
(0.266754 0 0)
(0.462215 0 0)
(0.649788 0 0)
(0.477591 0 0)
(0.599182 0 0)
(0.586257 0 0)
(0.523433 0 0)
(0.579273 0 0)
(0.499477 0 0)
(0.605336 0 0)
(0.715596 0 0)
(0.722855 0 0)
(0.563703 0 0)
(0.502724 0 0)
(0.534071 0 0)
(0.37472 0 0)
(0.66143 0 0)
(0.572907 0 0)
(0.518028 0 0)
(0.721098 0 0)
(0.275966 0 0)
(0.639974 0 0)
(0.426213 0 0)
(0.450715 0 0)
(0.376487 0 0)
(0.51421 0 0)
(0.234265 0 0)
(0.659326 0 0)
(0.562643 0 0)
(0.402124 0 0)
(0.543908 0 0)
(0.586018 0 0)
(0.533796 0 0)
(0.618971 0 0)
(0.371525 0 0)
(0.385673 0 0)
(0.626959 0 0)
(0.626874 0 0)
(0.516644 0 0)
(0.763886 0 0)
(0.698569 0 0)
(0.37897 0 0)
(0.383612 0 0)
(0.266298 0 0)
(0.590123 0 0)
(0.352248 0 0)
(0.180666 0 0)
(0.343365 0 0)
(0.814858 0 0)
(0.48889 0 0)
(0.509123 0 0)
(0.177527 0 0)
(0.625141 0 0)
(0.635784 0 0)
(0.729206 0 0)
(0.660265 0 0)
(0.770404 0 0)
(0.313509 0 0)
(0.457073 0 0)
(0.474239 0 0)
(0.300614 0 0)
(0.446479 0 0)
(0.624331 0 0)
(0.378338 0 0)
(0.182803 0 0)
(0.384938 0 0)
(0.215421 0 0)
(0.495216 0 0)
(0.488661 0 0)
(0.503407 0 0)
(0.452533 0 0)
(0.616983 0 0)
(0.553076 0 0)
(0.707651 0 0)
(0.661084 0 0)
(0.546711 0 0)
(0.517503 0 0)
(0.609134 0 0)
(0.421519 0 0)
(0.304552 0 0)
(0.799288 0 0)
(0.302773 0 0)
(0.631832 0 0)
(0.631817 0 0)
(0.583056 0 0)
(0.416787 0 0)
(0.587558 0 0)
(0.475939 0 0)
(0.485937 0 0)
(0.227406 0 0)
(0.58753 0 0)
(0.541703 0 0)
(0.310861 0 0)
(1.02803 0 0)
(0.739179 0 0)
(0.665812 0 0)
(0.683658 0 0)
(0.90273 0 0)
(0.967632 0 0)
(0.667292 0 0)
(1.05181 0 0)
(0.516567 0 0)
(0.895747 0 0)
(0.703995 0 0)
(0.525987 0 0)
(0.391561 0 0)
(0.651291 0 0)
(0.598412 0 0)
(0.724979 0 0)
(0.788284 0 0)
(0.391417 0 0)
(0.511828 0 0)
(0.567169 0 0)
(0.740352 0 0)
(0.518426 0 0)
(0.449526 0 0)
(0.636614 0 0)
(0.249265 0 0)
(0.664923 0 0)
(0.293864 0 0)
(0.5756 0 0)
(0.266087 0 0)
(0.604168 0 0)
(0.666143 0 0)
(0.712523 0 0)
(0.53826 0 0)
(0.525354 0 0)
(0.513357 0 0)
(0.672718 0 0)
(0.587213 0 0)
(0.711293 0 0)
(0.713344 0 0)
(0.606075 0 0)
(0.792742 0 0)
(0.7183 0 0)
(0.305608 0 0)
(0.624923 0 0)
(0.291241 0 0)
(0.400801 0 0)
(0.632705 0 0)
(0.550906 0 0)
(0.396197 0 0)
(0.7636 0 0)
(0.887281 0 0)
(0.576249 0 0)
(0.761402 0 0)
(0.849477 0 0)
(0.40633 0 0)
(0.31819 0 0)
(0.557097 0 0)
(0.483132 0 0)
(0.598648 0 0)
(0.291659 0 0)
(0.388017 0 0)
(0.513862 0 0)
(0.620138 0 0)
(0.236188 0 0)
(0.317174 0 0)
(0.452365 0 0)
(0.497879 0 0)
(0.588603 0 0)
(0.291463 0 0)
(0.546641 0 0)
(0.832978 0 0)
(0.260264 0 0)
(0.42005 0 0)
(0.293183 0 0)
(0.514783 0 0)
(0.656463 0 0)
(0.565862 0 0)
(0.304158 0 0)
(0.35219 0 0)
(0.9329 0 0)
(0.175911 0 0)
(0.567829 0 0)
(0.642983 0 0)
(0.449833 0 0)
(0.493474 0 0)
(0.372013 0 0)
(0.199623 0 0)
(0.50229 0 0)
(0.561029 0 0)
(0.436526 0 0)
(0.387571 0 0)
(0.48004 0 0)
(0.369515 0 0)
(0.342668 0 0)
(0.657615 0 0)
(0.629154 0 0)
(0.524744 0 0)
(0.720272 0 0)
(0.664374 0 0)
(0.788604 0 0)
(0.57751 0 0)
(0.341153 0 0)
(0.758332 0 0)
(0.529093 0 0)
(0.607829 0 0)
(0.529574 0 0)
(0.182923 0 0)
(0.359407 0 0)
(0.703006 0 0)
(0.789054 0 0)
(0.552007 0 0)
(0.622557 0 0)
(0.672054 0 0)
(0.832447 0 0)
(0.470067 0 0)
(0.478873 0 0)
(0.392724 0 0)
(0.777467 0 0)
(0.477556 0 0)
(0.663203 0 0)
(0.633903 0 0)
(0.477323 0 0)
(0.294197 0 0)
(0.463527 0 0)
(0.174474 0 0)
(0.671838 0 0)
(0.428008 0 0)
(0.832377 0 0)
(0.332429 0 0)
(0.202153 0 0)
(0.273011 0 0)
(0.422957 0 0)
(0.697896 0 0)
(0.696506 0 0)
(0.506338 0 0)
(0.858719 0 0)
(0.549088 0 0)
(0.7766 0 0)
(0.540135 0 0)
(0.7558 0 0)
(0.467491 0 0)
(0.615476 0 0)
(0.82744 0 0)
(0.382971 0 0)
(0.519512 0 0)
(0.550284 0 0)
(0.551788 0 0)
(0.395289 0 0)
(0.439599 0 0)
(0.459785 0 0)
(0.540829 0 0)
(0.85116 0 0)
(0.41218 0 0)
(0.581535 0 0)
(0.420687 0 0)
(0.904258 0 0)
(0.490403 0 0)
(0.267574 0 0)
(0.401235 0 0)
(0.265129 0 0)
(0.416123 0 0)
(0.588448 0 0)
(0.866829 0 0)
(0.814587 0 0)
(0.545001 0 0)
(0.779741 0 0)
(0.326522 0 0)
(0.778978 0 0)
(0.610345 0 0)
(0.562304 0 0)
(0.673446 0 0)
(0.514564 0 0)
(0.859587 0 0)
(0.469338 0 0)
(0.283018 0 0)
(0.464646 0 0)
(0.728072 0 0)
(0.526635 0 0)
(0.634711 0 0)
(0.585288 0 0)
(0.507518 0 0)
(0.569623 0 0)
(0.506657 0 0)
(0.510141 0 0)
(0.337904 0 0)
(0.645964 0 0)
(0.370865 0 0)
(0.585372 0 0)
(0.597149 0 0)
(0.430556 0 0)
(0.507524 0 0)
(0.393676 0 0)
(0.512806 0 0)
(0.342633 0 0)
(0.631294 0 0)
(0.551187 0 0)
(0.580582 0 0)
(0.221294 0 0)
(0.655803 0 0)
(0.55591 0 0)
(0.599182 0 0)
(0.438981 0 0)
(0.41488 0 0)
(0.528792 0 0)
(0.718133 0 0)
(0.200495 0 0)
(0.859091 0 0)
(0.698614 0 0)
(0.636881 0 0)
(0.458487 0 0)
(0.835996 0 0)
(0.830828 0 0)
(0.733235 0 0)
(0.731111 0 0)
(0.369562 0 0)
(0.543929 0 0)
(0.482814 0 0)
(0.264913 0 0)
(0.500038 0 0)
(0.634756 0 0)
(0.181908 0 0)
(0.57505 0 0)
(0.504263 0 0)
(0.467219 0 0)
(0.543835 0 0)
(0.811877 0 0)
(0.533156 0 0)
(0.384992 0 0)
(0.607853 0 0)
(0.534446 0 0)
(0.635103 0 0)
(0.772312 0 0)
(0.396008 0 0)
(0.628099 0 0)
(0.680242 0 0)
(0.453104 0 0)
(0.554794 0 0)
(0.564213 0 0)
(0.491719 0 0)
(0.427277 0 0)
(0.573738 0 0)
(0.576201 0 0)
(0.491239 0 0)
(0.721967 0 0)
(0.633725 0 0)
(0.600399 0 0)
(0.526795 0 0)
(0.494188 0 0)
(0.406273 0 0)
(0.359277 0 0)
(0.515403 0 0)
(0.299146 0 0)
(0.481665 0 0)
(0.424479 0 0)
(0.336017 0 0)
(0.212394 0 0)
(0.607411 0 0)
(0.541367 0 0)
(0.506515 0 0)
(0.732069 0 0)
(0.342453 0 0)
(0.375406 0 0)
(0.426948 0 0)
(0.408658 0 0)
(0.661858 0 0)
(0.771337 0 0)
(0.502929 0 0)
(0.372248 0 0)
(0.651153 0 0)
(0.434471 0 0)
(0.426602 0 0)
(0.413416 0 0)
(0.635942 0 0)
(0.572744 0 0)
(0.610885 0 0)
(0.616351 0 0)
(0.422208 0 0)
(0.609994 0 0)
(0.393731 0 0)
(0.81807 0 0)
(0.443298 0 0)
(0.556865 0 0)
(0.508306 0 0)
(0.912029 0 0)
(0.512773 0 0)
(0.491499 0 0)
(0.454234 0 0)
(0.593372 0 0)
(0.426373 0 0)
(0.292036 0 0)
(0.362651 0 0)
(0.33561 0 0)
(0.577326 0 0)
(0.309349 0 0)
(0.383815 0 0)
(0.66369 0 0)
(0.672501 0 0)
(0.577974 0 0)
(0.73098 0 0)
(0.387628 0 0)
(0.562835 0 0)
(0.420661 0 0)
(0.25844 0 0)
(0.341855 0 0)
(0.536972 0 0)
(0.630554 0 0)
(0.355084 0 0)
(0.521741 0 0)
(0.665185 0 0)
(0.545131 0 0)
(0.396203 0 0)
(0.258266 0 0)
(0.22182 0 0)
(0.515099 0 0)
(0.476774 0 0)
(0.825248 0 0)
(0.678433 0 0)
(0.390438 0 0)
(0.426473 0 0)
(0.540671 0 0)
(0.295226 0 0)
(0.641097 0 0)
(0.36038 0 0)
(0.508792 0 0)
(0.530195 0 0)
(0.382979 0 0)
(0.481948 0 0)
(0.680508 0 0)
(0.541494 0 0)
(0.321358 0 0)
(0.485637 0 0)
(0.801251 0 0)
(0.549012 0 0)
(0.344467 0 0)
(0.612085 0 0)
(0.558698 0 0)
(0.278481 0 0)
(0.410961 0 0)
(0.41114 0 0)
(0.475089 0 0)
(0.774958 0 0)
(0.404618 0 0)
(0.73316 0 0)
(0.610949 0 0)
(0.317711 0 0)
(0.420645 0 0)
(0.703953 0 0)
(0.612017 0 0)
(0.623855 0 0)
(0.445412 0 0)
(0.607347 0 0)
(0.611334 0 0)
(0.43003 0 0)
(0.665324 0 0)
(0.169332 0 0)
(0.428758 0 0)
(0.735038 0 0)
(0.88738 0 0)
(0.557793 0 0)
(0.458417 0 0)
(0.340839 0 0)
(0.453799 0 0)
(0.420755 0 0)