/*--------------------------------*- C++ -*----------------------------------*\
  =========                 |
  \\      /  F ield         | OpenFOAM: The Open Source CFD Toolbox
   \\    /   O peration     | Website:  https://openfoam.org
    \\  /    A nd           | Version:  6
     \\/     M anipulation  |
\*---------------------------------------------------------------------------*/
FoamFile
{
    version     2.0;
    format      ascii;
    class       volVectorField;
    location    "0";
    object      Ulift1;
}
// * * * * * * * * * * * * * * * * * * * * * * * * * * * * * * * * * * * * * //

dimensions      [0 1 -1 0 0 0 0];

internalField   nonuniform List<vector> 
13046
(
(0.502567759948 0.331810035612 0)
(0.4820435389 0.195084091699 -5.2507133229e-21)
(0.370306800191 0.276895394245 2.84638818999e-21)
(0.504846812267 0.281189577985 0)
(0.391144296127 0.290271414137 4.92487123834e-21)
(0.441815947255 0.190351955974 0)
(0.523943851642 0.298466725944 -1.70477999486e-21)
(0.445359017245 0.189210401055 -3.17738697727e-21)
(0.386233117114 0.313113212871 -1.26495225403e-20)
(0.714480916468 0.396221390312 5.31488374475e-21)
(0.471101365162 0.00724893127378 0)
(0.189668881681 0.409236283869 -4.85385475822e-21)
(0.548383115847 0.323563423988 -1.51141709412e-20)
(0.470264133602 0.153330305624 2.6518066667e-21)
(0.353461633707 0.301839676433 8.33392106569e-21)
(0.665709155871 0.448172376223 6.17218157891e-22)
(0.19361657252 0.345883853987 1.06862688126e-20)
(0.518611854673 0.0455042783707 1.93698127369e-21)
(0.444693487243 0.320072156223 0)
(0.405518441669 0.241909525647 8.35449945635e-22)
(0.490473569285 0.246248942439 -6.50164427959e-21)
(0.668621516275 0.423406081319 8.40562242068e-21)
(0.185351248435 0.349442372769 6.59583972294e-21)
(0.499240094774 0.0311641629025 -3.46046930494e-22)
(0.492211374446 0.295531381133 -1.84857937722e-21)
(0.467565312492 0.201395730499 -1.34523728542e-20)
(0.396403337996 0.267807971552 0)
(0.534055152502 0.332033879146 -1.3703313834e-20)
(0.469884639135 0.148193470363 3.1013872026e-21)
(0.324703848946 0.287954339406 6.73640006331e-21)
(0.494505683221 0.337740916243 0)
(0.480502486684 0.181216321807 0)
(0.346389114362 0.266416291488 2.84639106857e-21)
(0.471175221671 0.289003487672 1.06311052665e-20)
(0.395311091777 0.262988386207 -2.62938119735e-21)
(0.455751676374 0.212319635655 -1.26124137776e-20)
(0.475001099087 0.287229532579 1.14789564182e-20)
(0.41593213379 0.277491775152 0)
(0.454003808755 0.231828743064 0)
(0.46745514676 0.3727551419 8.0832654575e-21)
(0.34101950027 0.213777413926 4.82485556279e-21)
(0.530764899896 0.187777757763 -7.41209610626e-21)
(0.463742895179 0.256806198005 -3.5621094023e-21)
(0.446080745378 0.269433495325 3.03930290648e-21)
(0.443992580869 0.247725922336 0)
(0.463186799799 0.253569786984 -2.5237696757e-21)
(0.427525371223 0.284879116815 0)
(0.418760459895 0.238428249201 -1.33798498812e-21)
(0.508284173802 0.307953021206 0)
(0.460308502055 0.174476971683 -3.87152550474e-22)
(0.35892762157 0.280272260845 4.96556630899e-21)
(0.314705859368 0.163080784115 -8.67882956882e-21)
(0.424903877828 0.416246283449 0)
(0.570616874139 0.18857455558 1.35412593085e-20)
(0.329168334674 0.152100232249 -5.19810600506e-21)
(0.591611730431 0.197395651241 -1.57344436806e-20)
(0.426030535313 0.425147569759 1.63118965009e-20)
(0.534961072343 0.107185440333 -3.51306335037e-21)
(0.542537361813 0.456538168987 0)
(0.22098878315 0.2544583861 3.98323652232e-21)
(0.596940190707 0.294226823222 -1.51990652774e-20)
(0.408034625027 0.124151679952 3.80505425342e-21)
(0.335219399425 0.384271998389 -6.54742277768e-23)
(0.240137594366 0.367532905539 5.16451688255e-21)
(0.457414151857 0.054829693869 1.39364251782e-22)
(0.645389374624 0.363610824516 -5.92242971983e-21)
(0.543166142247 0.458454384306 0)
(0.558167991288 0.112004364168 1.16218178438e-20)
(0.240711147366 0.232345225668 -1.41109183879e-21)
(0.525654011909 0.451213210932 -2.26229926405e-21)
(0.544583430623 0.122433787126 1.16217910101e-20)
(0.241135023471 0.235589357365 -1.41106305505e-21)
(0.55548555356 0.0838167832093 4.49337111149e-24)
(0.596054341322 0.467223276912 1.33339050563e-20)
(0.223403706576 0.261587963813 5.94800711068e-21)
(0.448862007901 0.319650143491 0)
(0.39670043286 0.229671669719 6.17333350234e-21)
(0.497694284035 0.230201888471 -1.48623592344e-20)
(0.217999618438 0.273218745144 9.16521525061e-21)
(0.606227031369 0.444391251221 1.39227148218e-20)
(0.542147034421 0.069506758328 -7.17987236893e-21)
(0.494464145872 0.301468650763 1.16373539515e-21)
(0.446777475267 0.198025349442 -8.39941215657e-22)
(0.377515101701 0.290958335838 0)
(0.241262267408 0.372215957059 -1.13549065421e-20)
(0.478484903684 0.0348321268363 0)
(0.683828022216 0.374995591083 -2.24103332564e-21)
(0.658442456772 0.304021021839 1.822784952e-20)
(0.27203160273 0.414646895154 0)
(0.405918434808 0.0539609485188 2.72267099817e-22)
(0.305920890622 0.48073598453 0)
(0.699942861993 0.250032045119 0)
(0.359377957321 0.033316202538 -3.04932813968e-22)
(0.592376989497 0.363181175522 1.20828780797e-20)
(0.590166860596 0.35660910446 1.49922486942e-20)
(0.482711242116 0.109049521037 -5.6976780195e-21)
(0.45756756853 0.103971025543 -1.53377801772e-22)
(0.298415811999 0.32014816535 -1.51471676141e-20)
(0.278655858066 0.342546547623 -1.06465188763e-20)
(0.299856409469 0.423032910007 4.85139634777e-22)
(0.671134772872 0.292090792214 1.82278551043e-20)
(0.406421161956 0.0560994296114 0)
(0.488504942962 0.266177392368 5.84587029831e-21)
(0.428309836859 0.297610613485 0)
(0.432510930716 0.229317188045 0)
(0.400856606184 0.398476161856 -3.05836527123e-20)
(0.566834687279 0.221921087091 4.25207148622e-22)
(0.346930584008 0.162102198001 0)
(0.433709586857 0.396962205824 3.2228922199e-21)
(0.327388599102 0.182635702535 0)
(0.552073783729 0.195011945083 -2.0346050376e-21)
(0.809506137568 0.44253271024 0)
(0.142454657587 0.459023122692 4.77997941541e-21)
(0.501980353361 -0.0455288699489 6.11778473525e-21)
(0.514592545697 0.316430165943 -7.56228234302e-21)
(0.454494493935 0.175292720031 2.67779555822e-21)
(0.351744177188 0.298039106627 1.26132297485e-20)
(0.602856360415 0.385880370821 -2.85501037398e-21)
(0.579485441177 0.379395645576 -2.85500309339e-21)
(0.497609011211 0.0905992014669 7.13071621591e-23)
(0.2697984818 0.310933014647 -2.48541012196e-21)
(0.481627934819 0.106300672305 -5.38672528816e-21)
(0.271128341759 0.316076218156 -2.48541400606e-21)
(0.745861336786 0.395905959797 -1.63773666805e-20)
(0.484609228778 -0.016698155024 6.24590968829e-21)
(0.184695643424 0.400819011286 2.46002956425e-21)
(0.56718786912 0.355711679979 0)
(0.482750532004 0.130108347829 5.94430296679e-21)
(0.316588821255 0.304540940877 -7.42931529127e-21)
(0.47247354694 0.381978486483 0)
(0.330072189876 0.23167641586 5.44205195546e-21)
(0.520947424192 0.187529708647 -1.19646807424e-20)
(0.304869031576 0.469980147524 0)
(0.672253377436 0.237463303839 0)
(0.340533497284 0.0467989686808 0)
(0.631439334301 0.344782912487 0)
(0.450234462741 0.0842814982237 -7.26758436213e-21)
(0.285234552686 0.373659942139 3.39303169926e-21)
(0.516173303435 0.339094631559 0)
(0.49192723835 0.164003280435 0)
(0.344065128026 0.261739204909 0)
(0.562312439381 0.28345682853 0)
(0.412474336117 0.164162065759 0)
(0.375920419135 0.359555218517 0)
(0.431895450226 0.412989356167 3.22289529536e-21)
(0.336773755707 0.178547445567 0)
(0.568953780751 0.207483672356 6.62319602151e-21)
(0.419920760852 0.381500684345 -3.20965326155e-20)
(0.568637295408 0.230640412867 -1.57923842489e-20)
(0.374672472016 0.171286251759 8.60411478935e-21)
(0.610416419103 0.294843735194 -6.64563848848e-21)
(0.423734305823 0.0996217788916 0)
(0.325353944513 0.365222986556 -8.93277115192e-22)
(0.413832649207 0.348735532718 0)
(0.543604872532 0.25426465909 2.04828794064e-20)
(0.403495525692 0.187581815159 6.30452485005e-21)
(0.33076388845 0.136693274952 2.81584981752e-21)
(0.600617233162 0.216892942655 9.85548580309e-21)
(0.342816511132 0.108030919283 0)
(0.616940717091 0.214831803344 1.94897549983e-20)
(0.390789205407 0.438102342962 1.2595556976e-21)
(0.378818365963 0.422325928353 1.25957988342e-21)
(0.569726019566 0.249990922364 -7.29734240567e-22)
(0.391098199191 0.151024887916 -4.47159396449e-21)
(0.388163773735 0.363850396361 -6.65963297492e-21)
(0.738442694017 0.371053472689 1.35730355528e-21)
(0.213928440889 0.415102454485 -9.24249599053e-22)
(0.46748152232 -0.00504458292583 -4.04419826015e-21)
(0.779507857083 0.408586493796 -1.18733148789e-20)
(0.157409854119 0.414413003901 1.46351450437e-21)
(0.49311698646 -0.0437311408226 0)
(0.627762559333 0.346328927018 1.04405952075e-20)
(0.451948021414 0.0707170373553 0)
(0.263643993988 0.357272146666 3.87691537712e-21)
(0.495198481196 0.404830066445 0)
(0.545497457217 0.160796180871 -3.48000446713e-21)
(0.310165155527 0.217916158674 -1.25223382131e-21)
(0.553040775335 0.248988821013 -1.65221278796e-20)
(0.394768048885 0.376900795172 0)
(0.375798427204 0.174442127244 0)
(0.221407332204 0.425515119487 0)
(0.425155954198 0.00524558730651 0)
(0.710393312805 0.330055712837 1.18705151468e-21)
(0.473073646684 0.401357568367 0)
(0.53276422467 0.176565968713 -5.78064896133e-21)
(0.311916828438 0.222458017071 6.03389073737e-22)
(0.4032334112 0.35402888472 0)
(0.544414628725 0.238677771843 0)
(0.382008523157 0.173381785411 0)
(0.5485699364 0.267552404751 3.24153945304e-21)
(0.411660673651 0.164298470409 0)
(0.384693034265 0.336052972161 0)
(0.449096207714 0.144818641074 -6.02822026834e-21)
(0.328493445845 0.321415058502 6.17482360108e-21)
(0.566040359015 0.355803767169 1.41084364991e-21)
(0.475648857467 0.145632827994 0)
(0.322122586464 0.312322090966 -4.91719240176e-21)
(0.673165986924 0.347762515159 -9.76235724296e-21)
(0.248916872365 0.411291772136 -7.35154565029e-22)
(0.437897435795 0.0479903787542 -1.04326053111e-20)
(0.30912131106 0.449933590261 -1.74840016021e-22)
(0.66278181208 0.267340133242 3.80067478921e-21)
(0.371676486809 0.0642385738006 7.34167604305e-21)
(0.69328078744 0.284223987865 -1.4791095428e-20)
(0.380410784263 0.0371058425685 0)
(0.27862865178 0.466249057823 1.03207064193e-20)
(0.288560780436 0.164252369586 -3.10999025258e-21)
(0.586154770484 0.174705252523 5.49744898164e-21)
(0.436998585976 0.453706314548 3.16675429871e-21)
(0.52348686247 0.297950841381 3.29992628459e-21)
(0.597625366275 0.46993411484 3.81124355611e-21)
(0.216551125366 0.273510717356 4.39159319303e-21)
(0.554759742098 0.0838187718556 4.49340301497e-24)
(0.393554762844 0.0156817858306 0)
(0.716256670383 0.284836957513 6.7650662177e-21)
(0.271582938232 0.453256476899 0)
(0.478847885151 0.269507365019 8.52598821605e-21)
(0.408051210123 0.280014386772 0)
(0.435316461466 0.214854315154 -4.68790771222e-21)
(0.528080859063 0.356154266169 0)
(0.486767419467 0.164446941934 4.15478827364e-22)
(0.332899941838 0.285590603298 1.08963152667e-20)
(0.322467258371 0.448931665917 -8.13310133462e-22)
(0.674374530076 0.24326207269 0)
(0.362383482068 0.0506120290085 7.34169756696e-21)
(0.562498603244 0.321404921258 0)
(0.45064837656 0.152519068714 -4.06389247398e-21)
(0.347681362968 0.327874292459 0)
(0.194964963525 0.440816353577 0)
(0.469657684999 -0.0337670314739 -6.26363852758e-21)
(0.781503605411 0.3765549282 0)
(0.430045478179 0.44309740437 3.16673043945e-21)
(0.600699530528 0.173882311745 0)
(0.30121833552 0.139153085015 0)
(0.672596839619 0.264496222363 -1.47910253203e-20)
(0.378205285165 0.037753644031 0)
(0.28760737837 0.429265625569 7.33047399816e-21)
(0.587331155188 0.231476617348 -2.93597358152e-21)
(0.363163743725 0.131416867928 -9.86872573283e-21)
(0.379288469571 0.390899395026 4.69099658502e-21)
(0.554912200587 0.368643349896 0)
(0.481961659195 0.127441440149 5.7730083751e-21)
(0.29291701523 0.298853087036 -1.53706855185e-20)
(0.334276661418 0.0806199676214 -7.70608800188e-21)
(0.657685039044 0.219618720629 -3.85458770914e-21)
(0.359303566935 0.470837116757 7.96086231595e-21)
(0.623817125063 0.223081457388 0)
(0.333959061962 0.109562229477 -3.23364034204e-21)
(0.368634062247 0.45001966467 -1.88067286921e-22)
(0.180770061251 0.452365566703 -4.72706723337e-21)
(0.440906608859 -0.0447282220364 0)
(0.776976818497 0.348393157097 -5.83396195492e-21)
(0.458959992912 0.411263521926 1.60729983633e-20)
(0.327509804698 0.197411045275 4.35977532919e-21)
(0.559477996969 0.190655436763 9.33815412812e-22)
(0.790087896295 0.501013563279 3.96047615738e-21)
(0.102571612493 0.432400991967 -7.43488348026e-22)
(0.532319945206 -0.0366860172636 0)
(0.419821283639 0.30112418121 2.44458652495e-21)
(0.491173158915 0.245955391913 1.12877699453e-20)
(0.409404192588 0.211576535589 -8.59736753392e-21)
(0.584535292076 0.25808647053 4.320850092e-21)
(0.578550945151 0.260737802552 1.49322631517e-20)
(0.385239799826 0.130654407918 2.38777793275e-21)
(0.382915795981 0.152378170017 -4.7211962718e-21)
(0.377865289306 0.391235239198 -3.2161001309e-22)
(0.359799531676 0.378058438283 6.83773334354e-21)
(0.194098924294 0.305233354019 9.13297610143e-21)
(0.61464340867 0.463973414217 7.91551348085e-21)
(0.530196614551 0.0680944334491 0)
(0.554982255037 0.370378570583 0)
(0.499107980912 0.13644236161 0)
(0.312784159042 0.286292569531 -1.10895899899e-20)
(0.643299471014 0.22566433363 3.8580097642e-21)
(0.346390333429 0.0933929246555 0)
(0.367793363546 0.447984133574 0)
(0.619418643449 0.363364830772 -7.59558443201e-21)
(0.478046903013 0.0820131021093 0)
(0.275942467771 0.333670814585 1.34566049142e-20)
(0.449767934655 0.276965356314 1.39641024849e-21)
(0.447761607259 0.255712294813 -7.62459891941e-21)
(0.430276159245 0.268126006953 -7.85146619162e-22)
(0.601228310687 0.245026386331 1.7521974177e-20)
(0.358548602132 0.132716225155 0)
(0.371207783621 0.422659042466 -3.74391571406e-22)
(0.54121782263 0.382240890326 0)
(0.497788767697 0.129496700095 -6.36321849848e-21)
(0.287390931045 0.27742743257 -2.26139393448e-21)
(0.548546584738 0.324660728059 -2.84272883505e-21)
(0.567739317975 0.340817353293 -1.52865636393e-21)
(0.448604872962 0.417819421287 1.75047998076e-20)
(0.305428634771 0.185838750382 3.77238234675e-21)
(0.558929095627 0.17722944959 1.65886411016e-20)
(0.621437015438 0.241504963386 5.72668334052e-21)
(0.368885587985 0.104493302782 -6.62303324686e-21)
(0.360498857436 0.409844078383 1.10752261803e-21)
(0.620300596218 0.365100956473 -8.65149542802e-22)
(0.260258348445 0.357767245007 9.5294583327e-21)
(0.46011852808 0.0810548308417 5.47380611203e-21)
(0.450635917553 0.381031334073 1.75649597686e-21)
(0.349307609487 0.189226415555 0)
(0.552654478038 0.197477386873 -6.67591898389e-21)
(0.396362772415 0.437765492147 1.60400316148e-21)
(0.609199046058 0.199707235692 5.63450541742e-21)
(0.321819327742 0.123162961179 0)
(0.560348251136 0.400186600262 -1.76998418009e-21)
(0.507041775966 0.107667818399 1.56725676186e-21)
(0.259414637719 0.278187458042 1.97592240011e-21)
(0.449596702694 0.432332381206 -7.09931475827e-22)
(0.313782655847 0.180222698465 0)
(0.576254516279 0.185712617114 2.0938047144e-20)
(0.588237209612 0.421239246427 0)
(0.586087254663 0.402963965997 0)
(0.522574731001 0.101090462765 -3.33905684347e-21)
(0.257535888085 0.293380783619 -9.71640120931e-21)
(0.497528558382 0.0903092411579 -1.54179399285e-21)
(0.243200598836 0.304070328162 -1.18806853323e-20)
(0.23673656028 0.418149772394 3.39472442065e-21)
(0.447580762414 0.020563175543 0)
(0.708713349091 0.352221779799 -2.26868205983e-21)
(0.577303476466 0.373481774277 0)
(0.498498921481 0.109197877436 1.57582187645e-22)
(0.290836145186 0.292375613634 -1.270478262e-21)
(0.51668341873 -0.08739921686 -6.96443144384e-21)
(0.0980861279607 0.476862593893 -1.04642516007e-20)
(0.865126298785 0.4577502681 -2.12312254789e-20)
(0.528412562124 0.238788046654 1.01809342169e-20)
(0.41876378719 0.331025668859 0)
(0.397628758233 0.189092841961 3.82571340593e-21)
(0.59164399772 0.288686408334 -6.18442635129e-21)
(0.419999438454 0.121231890329 0)
(0.343830179515 0.354800262767 1.9234957301e-21)
(0.260837021277 0.381170493647 5.89135418209e-21)
(0.658655901499 0.329460744717 -1.56337092043e-23)
(0.43734603797 0.0480714191961 4.94245427795e-21)
(0.304811073411 0.146000994927 4.08677673173e-21)
(0.589811802399 0.19109269166 0)
(0.409467738321 0.442264628666 1.63119077478e-20)
(0.336173872576 0.0609146311294 8.20445642641e-21)
(0.659685222662 0.21870613142 -9.41892527188e-21)
(0.338247689928 0.455818910479 0)
(0.437153733548 0.167160684318 -6.7571937298e-22)
(0.346055532112 0.322666412932 0)
(0.581551463593 0.316736721178 -6.91374243519e-21)
(0.446330097204 0.115040881055 -2.46304582458e-21)
(0.319049303053 0.335084201156 -5.85073173019e-21)
(0.429657257188 0.152705683918 -6.89902141305e-23)
(0.365825542394 0.323560078154 7.26359113041e-21)
(0.640413876412 0.421076926274 5.27609010724e-21)
(0.201100474461 0.321354364809 -5.07195301721e-21)
(0.507999466303 0.0475515219689 1.93697867228e-21)
(0.28638100034 0.15695410239 -3.10999439446e-21)
(0.59965114263 0.160418456363 -2.0757959712e-22)
(0.452574157819 0.457407374146 0)
(0.594874600243 0.333327425932 -6.91369926032e-21)
(0.4454446382 0.115177841803 -2.46305081814e-21)
(0.310409609059 0.357322354172 -7.27447439178e-21)
(0.562798303571 0.257217000545 0)
(0.391026024328 0.150788279444 -6.75138829302e-21)
(0.374005662127 0.360576340911 0)
(0.577237504684 0.205641188417 5.36999818797e-21)
(0.343827740011 0.156122617424 0)
(0.419342196396 0.399308700415 0)
(0.512031130732 0.305887264718 1.16373324509e-21)
(0.460479332781 0.18389578763 -1.47628408726e-21)
(0.377380260094 0.290484839413 -6.88629343505e-21)
(0.410473577386 0.44984454078 -5.83375822762e-21)
(0.609994991175 0.199426581064 1.05987649288e-20)
(0.319693992085 0.13455552208 5.5010695467e-21)
(0.697142946314 0.306881745478 1.1485821969e-20)
(0.425191517116 0.0256306981444 -9.82498963936e-21)
(0.27048276114 0.41143978123 -1.73460382508e-22)
(0.348270069439 0.074531739889 5.71581757891e-21)
(0.651594314177 0.243046437985 -9.41891681077e-21)
(0.327593550846 0.458008492248 -1.49960268388e-20)
(0.508002009836 0.452852269774 -4.01432843461e-21)
(0.253003180277 0.220285120525 -1.10284251956e-20)
(0.555064956918 0.131184330935 0)
(0.594186876152 0.446181706722 3.58235136672e-21)
(0.571141088341 0.428769187251 -3.42907834905e-21)
(0.523134527022 0.0959633209821 -1.79726181463e-21)
(0.53341607225 0.091615099159 -7.17987095486e-21)
(0.231797948651 0.290597876442 1.80130540602e-21)
(0.233626500522 0.275863745094 6.56673411044e-22)
(0.115801458693 0.461869645136 -1.42361361204e-20)
(0.538542721301 -0.0795462942088 -6.96443482022e-21)
(0.869152944643 0.480043944892 -3.12196519387e-21)
(0.763861535688 0.460198726969 3.76461550865e-22)
(0.124582541403 0.389713426096 0)
(0.523989796478 -0.0362901357572 0)
(0.609727715536 0.273067621766 -2.08583860637e-21)
(0.397171636563 0.123969893241 1.65842327087e-22)
(0.359544363128 0.397855889409 0)
(0.239848283727 0.397669957315 1.75395249651e-21)
(0.700917896335 0.345990118797 -3.58992567357e-21)
(0.452417271599 0.0186713798575 0)
(0.541803660402 0.423568527714 -7.54770229667e-21)
(0.543345764079 0.426451608819 -2.03824548991e-20)
(0.535527444376 0.11508204079 -4.82251634051e-21)
(0.519637913067 0.114554080946 3.23044853718e-21)
(0.259865409935 0.244118226964 2.11689844351e-21)
(0.246763432925 0.265166447772 -1.2641946569e-21)
(0.256874283111 0.467784282251 0)
(0.390977151395 -0.0176810762219 0)
(0.749839724692 0.274734024611 -1.23300168252e-21)
(0.834441511913 0.512217695933 3.96046342137e-21)
(0.101567357762 0.428855374045 -4.34518299354e-21)
(0.554025616581 -0.0590230968018 0)
(0.475782266638 0.22884572932 2.81093478979e-21)
(0.453346998305 0.296080361796 -5.88299011491e-21)
(0.406220245769 0.241785240807 -2.09850054662e-21)
(0.818929490596 0.441078928676 4.16068219134e-21)
(0.510800476887 -0.0682291336225 6.11778471458e-21)
(0.12002110941 0.431088345953 4.0364833057e-21)
(0.493826823072 0.401032736116 -1.70000456342e-20)
(0.524701491687 0.157071728469 1.33884689712e-20)
(0.296028043655 0.234670115506 1.1270437234e-21)
(0.725332290955 0.319255908749 4.06451439171e-21)
(0.425489558454 0.00850142744286 8.17131012366e-21)
(0.252366794362 0.439387788383 -3.36476565185e-21)
(0.486308337837 -0.12411986071 -1.14574150786e-22)
(0.109783055948 0.515399560097 -1.34085519607e-21)
(0.912521323954 0.406273235612 -8.84439240856e-21)
(0.450251749845 0.373574967678 -3.19558287005e-21)
(0.345990983309 0.221512845691 -1.92039211914e-22)
(0.520696895221 0.207307818282 1.67169062525e-21)
(0.513009159366 0.253876421484 0)
(0.420219866129 0.202481725145 -7.42320532906e-21)
(0.421562246682 0.310935366887 1.66406258012e-20)
(0.717007210084 0.430401748686 -2.23919527408e-20)
(0.161311920042 0.396732317609 2.13292634893e-21)
(0.49203891015 0.00361685690023 9.1360987332e-21)
(0.517002832536 0.263495756887 0)
(0.40570685017 0.20058359742 5.88965866118e-21)
(0.405247245516 0.332234171252 1.41960384609e-20)
(0.472650439669 0.246867766691 2.11662037582e-21)
(0.452535661188 0.296378143411 -5.88299243236e-21)
(0.420154198678 0.253419331447 -1.33798737817e-21)
(0.424753186648 0.470000176364 1.11819256086e-21)
(0.61364981845 0.185190019867 -5.15278480465e-21)
(0.302095917166 0.138853061161 -1.76606531121e-21)
(0.49906803698 0.234246088253 0)
(0.377684130326 0.225893008981 0)
(0.431622867902 0.339315105516 5.5318319756e-22)
(0.511983547341 0.241851083767 4.49384908848e-21)
(0.386377432146 0.22097314284 1.8128060059e-21)
(0.431565539772 0.345981478199 -9.20094842163e-23)
(0.500216205935 0.442026131623 3.524438455e-21)
(0.565943347866 0.130095521886 7.78860149758e-21)
(0.264001725019 0.195908924363 -1.06355088183e-20)
(0.195474491492 0.381700017684 -6.69569157352e-21)
(0.204753796599 0.380502008433 -7.16097014342e-21)
(0.487218153885 0.0280294520687 -3.28901693354e-21)
(0.47134731138 0.00723876704208 3.16604896476e-21)
(0.685817041954 0.415438258658 -2.14914280105e-20)
(0.702041048374 0.376544681984 -1.61765401017e-20)
(0.70214077709 0.314746115766 1.0300308039e-20)
(0.410036188654 0.0262766381287 4.2793928745e-21)
(0.253769775954 0.443461971699 0)
(0.253209275955 0.220917522183 -2.3219085894e-21)
(0.527815098169 0.456977546409 -2.26230290468e-21)
(0.560510659351 0.125084771214 0)
(0.464757637156 0.389423470069 0)
(0.323108252892 0.198601161864 3.74138885945e-21)
(0.544332723403 0.175580393358 7.70164794895e-21)
(0.635549426351 0.203493420153 0)
(0.325938434485 0.0951418169385 -3.23363785777e-21)
(0.38036017135 0.450207169134 -1.88067194583e-22)
(0.448818229589 -0.103772316778 2.50721025875e-21)
(0.179569640503 0.513037881438 0)
(0.876278926357 0.337079037802 -2.18614445955e-20)
(0.28098986765 0.465631955983 0)
(0.703152854818 0.248266541593 0)
(0.359739454885 0.0161791877374 -3.11028880186e-21)
(0.751928762428 0.4062736718 6.01457507152e-21)
(0.166252027344 0.433198037388 0)
(0.474292195378 -0.0166379759911 -6.26363624692e-21)
(0.112338444439 0.520177491343 5.12934608371e-32)
(0.525102330189 -0.186550970724 7.42716374042e-21)
(1.01889531198 0.409723102881 1.40972062918e-20)
(0.565123210257 -0.117231350854 7.25968935095e-21)
(0.0615949455834 0.520176795751 5.12933922464e-32)
(0.947301204131 0.533728331632 1.47350004858e-20)
(0.399612908581 0.0982293152305 -6.94277674419e-21)
(0.625762647074 0.278995058416 0)
(0.335235722589 0.400895505904 -1.10938260945e-20)
(0.400878559106 -0.0375897165376 9.330869403e-22)
(0.226184975617 0.493671181903 0)
(0.781309189881 0.296260028802 0)
(0.63742172742 0.3207596986 7.70531348675e-21)
(0.431619390457 0.0663157560894 -2.1793712382e-21)
(0.278303610744 0.375649242813 2.12287075119e-21)
(0.686753282176 0.476463853211 1.0071141302e-20)
(0.164979452043 0.340552761667 -2.87899713005e-21)
(0.536919738496 0.024332682345 0)
(0.525001587129 0.308899583028 -1.08228741805e-20)
(0.366506353576 0.302079472961 1.3187197568e-21)
(0.453495186554 0.171481600848 2.00207524115e-21)
(0.366603028259 0.0147187315717 0)
(0.259146544013 0.473122797604 4.79568984186e-21)
(0.70820139535 0.269656988722 5.53206727131e-21)
(0.612113193185 0.203573342811 -4.9642584353e-21)
(0.386561026838 0.46086131619 3.63125775747e-21)
(0.308984136736 0.124740494033 0)
(0.346338062766 0.0930637921998 0)
(0.628846078102 0.237405437202 0)
(0.341628843839 0.437986713029 -7.45736479805e-21)
(0.0533526781784 0.685518536824 0)
(0.754132673187 -0.303401636216 -1.5490407741e-21)
(1.39471162561 0.698481159928 1.25261574954e-21)
(0.497583667554 -0.123860870235 5.60091078704e-21)
(0.132372043606 0.478271916077 2.65666624438e-22)
(0.905669401946 0.393748170797 -3.46553796541e-20)
(0.512149117902 0.301386073611 -2.36072097629e-23)
(0.365908822843 0.296817373389 -5.91833036988e-21)
(0.447385942156 0.175998223532 -4.26651984238e-21)
(0.397913346457 -0.00623921839726 -7.32172322122e-21)
(0.733487526886 0.304508471362 -1.16116192443e-21)
(0.232432705193 0.468306493725 0)
(0.250601454796 0.488167555492 -7.42767648843e-21)
(0.75228156544 0.277362919013 0)
(0.386559721552 -0.0166687749907 -3.42681310977e-22)
(0.681122361408 0.368346016149 -1.16727813321e-21)
(0.223989078216 0.394436123529 -7.90724257339e-21)
(0.456817135346 0.031841230896 -8.30028388982e-21)
(0.206330482132 0.319374346593 1.01394187039e-20)
(0.511551707337 0.060080921893 -1.22654361116e-21)
(0.626983530659 0.433426940988 0)
(0.494545673209 0.467388115922 -4.97580358338e-22)
(0.578291786802 0.1414517638 7.78861053918e-21)
(0.265694525712 0.195379613476 -5.12703355e-21)
(0.534151113318 0.100417407765 -3.51306275368e-21)
(0.571947179446 0.434518960519 -6.99241163204e-21)
(0.246856641796 0.265532430379 3.98324251968e-21)
(0.181127288569 0.302313846009 2.72426564297e-21)
(0.620106971328 0.448858970858 0)
(0.519270415912 0.0518739669262 5.09818736468e-21)
(0.510240158677 0.380524140161 -2.85357788043e-21)
(0.540991267826 0.394863128117 0)
(0.504381763261 0.149760732928 1.11667856293e-20)
(0.51690184197 0.140994385312 1.11667966846e-20)
(0.299841075979 0.255679242911 1.70234160458e-21)
(0.301080965293 0.2698476281 0)
(0.511321478646 0.385666458601 -2.23548200204e-20)
(0.524560441059 0.156369131728 0)
(0.315809561838 0.241369039197 1.07706134362e-22)
(0.530839238897 0.449842232001 0)
(0.543682525806 0.125766444071 -6.89848548726e-21)
(0.250786348472 0.245289739727 9.33047484326e-22)
(0.362233039383 0.0751998591246 3.62960541339e-21)
(0.651047814945 0.241987271285 9.32788099725e-21)
(0.341233333308 0.436793381588 -1.3803380607e-20)
(0.393012678567 0.0124798205527 0)
(0.705471874723 0.293768075092 5.6408894468e-22)
(0.249557439176 0.44507662162 0)
(0.316641730606 0.422001361347 9.73173829688e-21)
(0.64805845518 0.252583300144 1.14959666156e-21)
(0.370738447448 0.064489722354 -2.52985027596e-21)
(0.543684476046 -0.116536031636 -1.67469856994e-22)
(0.0932071488304 0.461079379774 3.47621622214e-21)
(0.905847305561 0.467017669688 0)
(0.475860146887 0.363101928818 2.66060718143e-21)
(0.494005286355 0.335962221564 0)
(0.348177078118 0.247621092119 -7.59657424967e-22)
(0.50534915988 0.198353712804 -4.80078526291e-21)
(0.363714746753 0.248644546835 -7.59658907824e-22)
(0.499254722784 0.185986258499 9.91011946905e-21)
(0.51970814977 0.436451484108 0)
(0.498458400273 0.423806873409 -1.48809057873e-21)
(0.273828670815 0.222815802268 -5.94116544606e-21)
(0.545786980685 0.140065314701 5.2701300849e-21)
(0.273623345095 0.238389395293 5.85789849754e-22)
(0.541182880147 0.142642516159 6.29590467304e-21)
(0.482146903521 -0.142199532565 0)
(0.147243238493 0.526879255966 9.39174789251e-22)
(0.951490882029 0.369981922489 0)
(0.408803640491 -0.00632268978946 3.74383732083e-21)
(0.729691808882 0.29804954864 5.81410598852e-21)
(0.248014868417 0.440833662724 -3.36476384878e-21)
(0.467832899334 0.421881748614 2.14174367946e-21)
(0.304550308252 0.183147741663 3.15397550428e-21)
(0.569812144783 0.16511353049 8.56285048884e-21)
(0.323406953238 0.0868195092886 -6.38726487435e-21)
(0.639067641701 0.208740021785 3.43889656349e-24)
(0.359381132413 0.456118935173 0)
(0.221294342611 0.305330142968 1.01071510256e-20)
(0.528550521617 0.0652201264814 -1.22653156714e-21)
(0.628543165986 0.440096239109 0)
(0.466239593451 -0.0826928247735 0)
(0.831526473613 0.366338987332 0)
(0.156322471606 0.455596662335 0)
(0.458087070171 -0.0527588019273 0)
(0.810564210777 0.371863996958 4.32293969481e-21)
(0.17855102788 0.478008092718 0)
(0.561163000571 0.409281691871 -1.10413295969e-20)
(0.519344481062 0.113373047533 4.79770573233e-21)
(0.268878311726 0.271531838017 -1.2641930978e-21)
(0.434463029525 0.38203747225 -1.3832475251e-21)
(0.354964277015 0.197753148909 0)
(0.542944462619 0.217002816518 4.93536158311e-21)
(0.701713443404 0.376673352588 -1.16728413137e-21)
(0.224205400461 0.395981318408 4.96824618217e-21)
(0.469100106888 0.0222514951181 -5.13424511169e-21)
(0.379587457136 0.0910726701879 0)
(0.624065311939 0.269687617171 0)
(0.32038947188 0.413500454455 -1.41644262637e-20)
(0.257762289688 0.350847219786 2.21340802057e-22)
(0.47726843672 0.060735747826 6.00144688378e-21)
(0.646883678017 0.369867097298 1.59169030922e-20)
(0.499195191971 0.429421634727 -1.48809557759e-21)
(0.286253622083 0.213296506202 -3.84522802116e-21)
(0.555691575261 0.148662679265 1.02579695363e-21)
(0.587679168741 0.231347115235 -2.48707522611e-21)
(0.359562412559 0.153037059359 -5.14753147944e-21)
(0.401957039751 0.409559367074 -1.64705416826e-21)
(0.455318664559 0.390353618257 1.12230113033e-20)
(0.333556544249 0.213178461066 -6.29515405686e-22)
(0.534881717511 0.196443403997 7.70164711566e-21)
(0.211985719693 0.404393701818 8.61381291064e-21)
(0.44744015509 0.0119414984559 -4.04419713022e-21)
(0.700176079317 0.357338396142 1.3573034365e-21)
(0.603256526135 0.38707842128 -1.52103805626e-21)
(0.480505412923 0.0871161635106 7.13063863622e-23)
(0.251304068045 0.331827651773 0)
(0.465125429541 0.346888557394 2.66060949263e-21)
(0.361305053613 0.221281277743 -4.16431185751e-21)
(0.51499128404 0.197762732258 9.23141758074e-21)
(0.653216766355 0.467308272196 9.91104475434e-21)
(0.181340265854 0.316276363883 -2.48337852177e-21)
(0.536458827369 0.0415979972112 1.11001607408e-21)
(0.494792973369 0.360597567475 -1.27361285759e-21)
(0.492991352817 0.167927846408 0)
(0.320756796167 0.255563751402 0)