/*--------------------------------*- C++ -*----------------------------------*\
  =========                 |
  \\      /  F ield         | OpenFOAM: The Open Source CFD Toolbox
   \\    /   O peration     | Website:  https://openfoam.org
    \\  /    A nd           | Version:  6
     \\/     M anipulation  |
\*---------------------------------------------------------------------------*/
FoamFile
{
    version     2.0;
    format      ascii;
    class       volVectorField;
    location    "0";
    object      Ulifty1;
}
// * * * * * * * * * * * * * * * * * * * * * * * * * * * * * * * * * * * * * //

dimensions      [0 1 -1 0 0 0 0];

internalField   nonuniform List<vector> 
13046
(
(0 0.33181 0)
(0 0.195084 0)
(0 0.276895 0)
(0 0.281189 0)
(0 0.290271 0)
(0 0.190352 0)
(0 0.298466 0)
(0 0.18921 0)
(0 0.313113 0)
(0 0.396221 0)
(0 0.00724869 0)
(0 0.409236 0)
(0 0.323563 0)
(0 0.15333 0)
(0 0.301839 0)
(0 0.448172 0)
(0 0.345884 0)
(0 0.0455039 0)
(0 0.320072 0)
(0 0.241909 0)
(0 0.246249 0)
(0 0.423406 0)
(0 0.349442 0)
(0 0.0311638 0)
(0 0.295531 0)
(0 0.201395 0)
(0 0.267808 0)
(0 0.332034 0)
(0 0.148193 0)
(0 0.287954 0)
(0 0.337741 0)
(0 0.181216 0)
(0 0.266416 0)
(0 0.289003 0)
(0 0.262988 0)
(0 0.212319 0)
(0 0.287229 0)
(0 0.277492 0)
(0 0.231828 0)
(0 0.372755 0)
(0 0.213777 0)
(0 0.187777 0)
(0 0.256806 0)
(0 0.269433 0)
(0 0.247726 0)
(0 0.253569 0)
(0 0.284879 0)
(0 0.238428 0)
(0 0.307953 0)
(0 0.174477 0)
(0 0.280272 0)
(0 0.163081 0)
(0 0.416246 0)
(0 0.188574 0)
(0 0.1521 0)
(0 0.197395 0)
(0 0.425147 0)
(0 0.107185 0)
(0 0.456538 0)
(0 0.254458 0)
(0 0.294226 0)
(0 0.124151 0)
(0 0.384272 0)
(0 0.367533 0)
(0 0.0548294 0)
(0 0.363611 0)
(0 0.458454 0)
(0 0.112004 0)
(0 0.232345 0)
(0 0.451213 0)
(0 0.122433 0)
(0 0.235589 0)
(0 0.0838162 0)
(0 0.467223 0)
(0 0.261588 0)
(0 0.31965 0)
(0 0.229671 0)
(0 0.230202 0)
(0 0.273219 0)
(0 0.444391 0)
(0 0.0695063 0)
(0 0.301468 0)
(0 0.198025 0)
(0 0.290958 0)
(0 0.372216 0)
(0 0.0348319 0)
(0 0.374995 0)
(0 0.304021 0)
(0 0.414647 0)
(0 0.0539607 0)
(0 0.480736 0)
(0 0.250032 0)
(0 0.0333161 0)
(0 0.363181 0)
(0 0.356609 0)
(0 0.109049 0)
(0 0.103971 0)
(0 0.320148 0)
(0 0.342546 0)
(0 0.423033 0)
(0 0.29209 0)
(0 0.0560992 0)
(0 0.266177 0)
(0 0.29761 0)
(0 0.229317 0)
(0 0.398476 0)
(0 0.221921 0)
(0 0.162102 0)
(0 0.396962 0)
(0 0.182636 0)
(0 0.195011 0)
(0 0.442533 0)
(0 0.459023 0)
(0 -0.045529 0)
(0 0.31643 0)
(0 0.175292 0)
(0 0.298039 0)
(0 0.38588 0)
(0 0.379395 0)
(0 0.0905988 0)
(0 0.310933 0)
(0 0.1063 0)
(0 0.316076 0)
(0 0.395906 0)
(0 -0.0166983 0)
(0 0.400819 0)
(0 0.355711 0)
(0 0.130108 0)
(0 0.304541 0)
(0 0.381978 0)
(0 0.231676 0)
(0 0.187529 0)
(0 0.46998 0)
(0 0.237463 0)
(0 0.0467988 0)
(0 0.344783 0)
(0 0.0842812 0)
(0 0.37366 0)
(0 0.339094 0)
(0 0.164003 0)
(0 0.261739 0)
(0 0.283456 0)
(0 0.164162 0)
(0 0.359555 0)
(0 0.412989 0)
(0 0.178547 0)
(0 0.207483 0)
(0 0.381501 0)
(0 0.23064 0)
(0 0.171286 0)
(0 0.294843 0)
(0 0.0996215 0)
(0 0.365223 0)
(0 0.348735 0)
(0 0.254264 0)
(0 0.187582 0)
(0 0.136693 0)
(0 0.216892 0)
(0 0.108031 0)
(0 0.214831 0)
(0 0.438102 0)
(0 0.422326 0)
(0 0.24999 0)
(0 0.151025 0)
(0 0.36385 0)
(0 0.371053 0)
(0 0.415102 0)
(0 -0.00504477 0)
(0 0.408586 0)
(0 0.414413 0)
(0 -0.0437313 0)
(0 0.346329 0)
(0 0.0707167 0)
(0 0.357272 0)
(0 0.40483 0)
(0 0.160796 0)
(0 0.217916 0)
(0 0.248988 0)
(0 0.376901 0)
(0 0.174442 0)
(0 0.425515 0)
(0 0.0052454 0)
(0 0.330055 0)
(0 0.401357 0)
(0 0.176565 0)
(0 0.222458 0)
(0 0.354029 0)
(0 0.238677 0)
(0 0.173382 0)
(0 0.267552 0)
(0 0.164298 0)
(0 0.336053 0)
(0 0.144818 0)
(0 0.321415 0)
(0 0.355803 0)
(0 0.145632 0)
(0 0.312322 0)
(0 0.347762 0)
(0 0.411292 0)
(0 0.0479901 0)
(0 0.449933 0)
(0 0.26734 0)
(0 0.0642384 0)
(0 0.284224 0)
(0 0.0371057 0)
(0 0.466249 0)
(0 0.164252 0)
(0 0.174705 0)
(0 0.453706 0)
(0 0.29795 0)
(0 0.469934 0)
(0 0.273511 0)
(0 0.0838182 0)
(0 0.0156817 0)
(0 0.284837 0)
(0 0.453256 0)
(0 0.269507 0)
(0 0.280014 0)
(0 0.214854 0)
(0 0.356154 0)
(0 0.164447 0)
(0 0.28559 0)
(0 0.448932 0)
(0 0.243262 0)
(0 0.0506119 0)
(0 0.321405 0)
(0 0.152519 0)
(0 0.327874 0)
(0 0.440816 0)
(0 -0.0337672 0)
(0 0.376555 0)
(0 0.443097 0)
(0 0.173882 0)
(0 0.139153 0)
(0 0.264496 0)
(0 0.0377535 0)
(0 0.429265 0)
(0 0.231476 0)
(0 0.131417 0)
(0 0.390899 0)
(0 0.368643 0)
(0 0.127441 0)
(0 0.298853 0)
(0 0.0806198 0)
(0 0.219618 0)
(0 0.470837 0)
(0 0.223081 0)
(0 0.109562 0)
(0 0.45002 0)
(0 0.452365 0)
(0 -0.0447283 0)
(0 0.348393 0)
(0 0.411263 0)
(0 0.197411 0)
(0 0.190655 0)
(0 0.501014 0)
(0 0.432401 0)
(0 -0.0366862 0)
(0 0.301124 0)
(0 0.245955 0)
(0 0.211576 0)
(0 0.258086 0)
(0 0.260737 0)
(0 0.130654 0)
(0 0.152378 0)
(0 0.391235 0)
(0 0.378058 0)
(0 0.305233 0)
(0 0.463973 0)
(0 0.0680939 0)
(0 0.370378 0)
(0 0.136442 0)
(0 0.286292 0)
(0 0.225664 0)
(0 0.0933928 0)
(0 0.447984 0)
(0 0.363365 0)
(0 0.0820128 0)
(0 0.333671 0)
(0 0.276965 0)
(0 0.255712 0)
(0 0.268126 0)
(0 0.245026 0)
(0 0.132716 0)
(0 0.422659 0)
(0 0.382241 0)
(0 0.129496 0)
(0 0.277427 0)
(0 0.32466 0)
(0 0.340817 0)
(0 0.417819 0)
(0 0.185839 0)
(0 0.177229 0)
(0 0.241504 0)
(0 0.104493 0)
(0 0.409844 0)
(0 0.365101 0)
(0 0.357767 0)
(0 0.0810545 0)
(0 0.381031 0)
(0 0.189226 0)
(0 0.197477 0)
(0 0.437765 0)
(0 0.199707 0)
(0 0.123163 0)
(0 0.400186 0)
(0 0.107667 0)
(0 0.278187 0)
(0 0.432332 0)
(0 0.180223 0)
(0 0.185712 0)
(0 0.421239 0)
(0 0.402964 0)
(0 0.10109 0)
(0 0.293381 0)
(0 0.0903088 0)
(0 0.30407 0)
(0 0.41815 0)
(0 0.020563 0)
(0 0.352222 0)
(0 0.373482 0)
(0 0.109197 0)
(0 0.292375 0)
(0 -0.0873993 0)
(0 0.476862 0)
(0 0.45775 0)
(0 0.238788 0)
(0 0.331025 0)
(0 0.189093 0)
(0 0.288686 0)
(0 0.121232 0)
(0 0.3548 0)
(0 0.38117 0)
(0 0.32946 0)
(0 0.0480712 0)
(0 0.146001 0)
(0 0.191092 0)
(0 0.442264 0)
(0 0.0609145 0)
(0 0.218706 0)
(0 0.455819 0)
(0 0.16716 0)
(0 0.322666 0)
(0 0.316736 0)
(0 0.115041 0)
(0 0.335084 0)
(0 0.152705 0)
(0 0.32356 0)
(0 0.421077 0)
(0 0.321354 0)
(0 0.0475511 0)
(0 0.156954 0)
(0 0.160418 0)
(0 0.457407 0)
(0 0.333327 0)
(0 0.115178 0)
(0 0.357322 0)
(0 0.257217 0)
(0 0.150788 0)
(0 0.360576 0)
(0 0.205641 0)
(0 0.156122 0)
(0 0.399309 0)
(0 0.305887 0)
(0 0.183895 0)
(0 0.290485 0)
(0 0.449844 0)
(0 0.199426 0)
(0 0.134555 0)
(0 0.306881 0)
(0 0.0256305 0)
(0 0.41144 0)
(0 0.0745316 0)
(0 0.243046 0)
(0 0.458008 0)
(0 0.452852 0)
(0 0.220285 0)
(0 0.131184 0)
(0 0.446182 0)
(0 0.428769 0)
(0 0.0959628 0)
(0 0.0916146 0)
(0 0.290598 0)
(0 0.275864 0)
(0 0.46187 0)
(0 -0.0795464 0)
(0 0.480044 0)
(0 0.460199 0)
(0 0.389713 0)
(0 -0.0362903 0)
(0 0.273067 0)
(0 0.12397 0)
(0 0.397856 0)
(0 0.39767 0)
(0 0.34599 0)
(0 0.0186712 0)
(0 0.423568 0)
(0 0.426451 0)
(0 0.115082 0)
(0 0.114554 0)
(0 0.244118 0)
(0 0.265166 0)
(0 0.467784 0)
(0 -0.0176812 0)
(0 0.274734 0)
(0 0.512218 0)
(0 0.428855 0)
(0 -0.0590232 0)
(0 0.228845 0)
(0 0.29608 0)
(0 0.241785 0)
(0 0.441079 0)
(0 -0.0682292 0)
(0 0.431088 0)
(0 0.401033 0)
(0 0.157071 0)
(0 0.23467 0)
(0 0.319256 0)
(0 0.00850127 0)
(0 0.439388 0)
(0 -0.12412 0)
(0 0.515399 0)
(0 0.406273 0)
(0 0.373575 0)
(0 0.221513 0)
(0 0.207307 0)
(0 0.253876 0)
(0 0.202481 0)
(0 0.310935 0)
(0 0.430402 0)
(0 0.396732 0)
(0 0.00361659 0)
(0 0.263495 0)
(0 0.200583 0)
(0 0.332234 0)
(0 0.246867 0)
(0 0.296378 0)
(0 0.253419 0)
(0 0.47 0)
(0 0.185189 0)
(0 0.138853 0)
(0 0.234246 0)
(0 0.225893 0)
(0 0.339315 0)
(0 0.241851 0)
(0 0.220973 0)
(0 0.345981 0)
(0 0.442026 0)
(0 0.130095 0)
(0 0.195909 0)
(0 0.3817 0)
(0 0.380502 0)
(0 0.0280291 0)
(0 0.00723852 0)
(0 0.415438 0)
(0 0.376544 0)
(0 0.314746 0)
(0 0.0262765 0)
(0 0.443462 0)
(0 0.220917 0)
(0 0.456977 0)
(0 0.125084 0)
(0 0.389423 0)
(0 0.198601 0)
(0 0.17558 0)
(0 0.203493 0)
(0 0.0951417 0)
(0 0.450207 0)
(0 -0.103772 0)
(0 0.513038 0)
(0 0.337079 0)
(0 0.465632 0)
(0 0.248266 0)
(0 0.0161791 0)
(0 0.406274 0)
(0 0.433198 0)
(0 -0.0166382 0)
(0 0.520177 0)
(0 -0.186551 0)
(0 0.409723 0)
(0 -0.117231 0)
(0 0.520177 0)
(0 0.533728 0)
(0 0.0982291 0)
(0 0.278995 0)
(0 0.400895 0)
(0 -0.0375898 0)
(0 0.493671 0)
(0 0.29626 0)
(0 0.320759 0)
(0 0.0663155 0)
(0 0.375649 0)
(0 0.476464 0)
(0 0.340553 0)
(0 0.0243323 0)
(0 0.308899 0)
(0 0.302079 0)
(0 0.171481 0)
(0 0.0147186 0)
(0 0.473123 0)
(0 0.269657 0)
(0 0.203573 0)
(0 0.460861 0)
(0 0.12474 0)
(0 0.0930636 0)
(0 0.237405 0)
(0 0.437987 0)
(0 0.685518 0)
(0 -0.303401 0)
(0 0.698481 0)
(0 -0.123861 0)
(0 0.478272 0)
(0 0.393748 0)
(0 0.301386 0)
(0 0.296817 0)
(0 0.175998 0)
(0 -0.00623935 0)
(0 0.304508 0)
(0 0.468306 0)
(0 0.488167 0)
(0 0.277363 0)
(0 -0.0166689 0)
(0 0.368346 0)
(0 0.394436 0)
(0 0.031841 0)
(0 0.319374 0)
(0 0.0600805 0)
(0 0.433427 0)
(0 0.467388 0)
(0 0.141451 0)
(0 0.195379 0)
(0 0.100417 0)
(0 0.434519 0)
(0 0.265532 0)
(0 0.302314 0)
(0 0.448859 0)
(0 0.0518735 0)
(0 0.380524 0)
(0 0.394863 0)
(0 0.14976 0)
(0 0.140994 0)
(0 0.255679 0)
(0 0.269847 0)
(0 0.385666 0)
(0 0.156369 0)
(0 0.241369 0)
(0 0.449842 0)
(0 0.125766 0)
(0 0.24529 0)
(0 0.0751997 0)
(0 0.241987 0)
(0 0.436793 0)
(0 0.0124797 0)
(0 0.293768 0)
(0 0.445076 0)
(0 0.422001 0)
(0 0.252583 0)
(0 0.0644895 0)
(0 -0.116536 0)
(0 0.461079 0)
(0 0.467018 0)
(0 0.363102 0)
(0 0.335962 0)
(0 0.247621 0)
(0 0.198353 0)
(0 0.248644 0)
(0 0.185986 0)
(0 0.436451 0)
(0 0.423807 0)
(0 0.222816 0)
(0 0.140065 0)
(0 0.238389 0)
(0 0.142642 0)
(0 -0.142199 0)
(0 0.526879 0)
(0 0.369982 0)
(0 -0.00632282 0)
(0 0.298049 0)
(0 0.440834 0)
(0 0.421882 0)
(0 0.183148 0)
(0 0.165113 0)
(0 0.0868194 0)
(0 0.208739 0)
(0 0.456119 0)
(0 0.30533 0)
(0 0.0652197 0)
(0 0.440096 0)
(0 -0.0826929 0)
(0 0.366339 0)
(0 0.455597 0)
(0 -0.0527589 0)
(0 0.371864 0)
(0 0.478008 0)
(0 0.409281 0)
(0 0.113373 0)
(0 0.271532 0)
(0 0.382037 0)
(0 0.197753 0)
(0 0.217002 0)
(0 0.376673 0)
(0 0.395981 0)
(0 0.0222513 0)
(0 0.0910725 0)
(0 0.269687 0)
(0 0.4135 0)
(0 0.350847 0)
(0 0.0607354 0)
(0 0.369867 0)
(0 0.429421 0)
(0 0.213296 0)
(0 0.148662 0)
(0 0.231347 0)
(0 0.153037 0)
(0 0.409559 0)
(0 0.390353 0)
(0 0.213178 0)
(0 0.196443 0)
(0 0.404394 0)
(0 0.0119413 0)
(0 0.357338 0)
(0 0.387078 0)
(0 0.0871158 0)
(0 0.331828 0)
(0 0.346888 0)
(0 0.221281 0)
(0 0.197762 0)
(0 0.467308 0)
(0 0.316276 0)
(0 0.0415976 0)
(0 0.360597 0)
(0 0.167927 0)
(0 0.255564 0)
(0 0.265839 0)
(0 0.177572 0)
(0 0.338365 0)
(0 0.105094 0)
(0 0.247673 0)
(0 0.428942 0)
(0 0.465292 0)
(0 0.370748 0)
(0 -0.00934303 0)
(0 0.481401 0)
(0 0.364079 0)
(0 0.00422994 0)
(0 0.34471 0)
(0 0.068003 0)
(0 0.391685 0)
(0 0.210568 0)
(0 0.133915 0)
(0 0.410083 0)
(0 0.388874 0)
(0 -0.0184663 0)
(0 0.491928 0)
(0 0.395486 0)
(0 0.0667764 0)
(0 0.330896 0)
(0 0.575259 0)
(0 -0.196377 0)
(0 0.472864 0)
(0 0.561769 0)
(0 -0.168634 0)
(0 0.529751 0)
(0 0.319096 0)
(0 0.0557519 0)
(0 0.43989 0)
(0 0.430171 0)
(0 -0.0149143 0)
(0 0.357621 0)
(0 0.41214 0)
(0 0.401443 0)
(0 0.360987 0)
(0 0.0293528 0)
(0 0.362644 0)
(0 0.0461089 0)
(0 0.309697 0)
(0 0.0584516 0)
(0 0.396504 0)
(0 0.468826 0)
(0 0.096296 0)
(0 0.208117 0)
(0 0.31847 0)
(0 0.252629 0)
(0 0.194861 0)
(0 0.277254 0)
(0 0.066228 0)
(0 0.409396 0)
(0 0.419904 0)
(0 0.276318 0)
(0 0.0804363 0)
(0 0.466732 0)
(0 0.294741 0)
(0 0.0618718 0)
(0 0.437489 0)
(0 0.1234 0)
(0 0.220191 0)
(0 0.406986 0)
(0 0.139348 0)
(0 0.232127 0)
(0 0.305603 0)
(0 0.100459 0)
(0 0.38762 0)
(0 0.282008 0)
(0 0.0865817 0)
(0 0.390649 0)
(0 0.348046 0)
(0 0.231896 0)
(0 0.214759 0)
(0 0.400497 0)
(0 0.130486 0)
(0 0.253092 0)
(0 0.481458 0)
(0 0.0120901 0)
(0 0.258122 0)
(0 0.324185 0)
(0 0.475749 0)
(0 -0.0780465 0)
(0 0.315313 0)
(0 0.496229 0)
(0 -0.0808589 0)
(0 0.382947 0)
(0 0.224455 0)
(0 0.172383 0)
(0 -0.0879644 0)
(0 0.495756 0)
(0 0.400073 0)
(0 0.393026 0)
(0 0.327261 0)
(0 0.0720845 0)
(0 0.497035 0)
(0 -0.116104 0)
(0 0.337695 0)
(0 0.28151 0)
(0 0.308849 0)
(0 0.217766 0)
(0 0.340333 0)
(0 0.123931 0)
(0 0.312459 0)
(0 0.156147 0)
(0 0.210924 0)
(0 0.421731 0)
(0 0.466664 0)
(0 -0.0341688 0)
(0 0.276316 0)
(0 0.0809649 0)
(0 0.244963 0)
(0 0.414928 0)
(0 0.325184 0)
(0 0.453517 0)
(0 0.0323629 0)
(0 0.346077 0)
(0 0.124368 0)
(0 0.337902 0)
(0 0.319943 0)
(0 0.267099 0)
(0 0.2172 0)
(0 -0.0232674 0)
(0 0.312358 0)
(0 0.465752 0)
(0 0.380826 0)
(0 0.0681337 0)
(0 0.361087 0)
(0 0.430948 0)
(0 0.460089 0)
(0 0.385594 0)
(0 0.416865 0)
(0 -0.0176516 0)
(0 -0.0181136 0)
(0 0.268672 0)
(0 0.142303 0)
(0 0.370051 0)
(0 0.109991 0)
(0 0.269675 0)
(0 0.399397 0)
(0 0.27301 0)
(0 0.175338 0)
(0 0.314972 0)
(0 -0.0485987 0)
(0 0.323567 0)
(0 -0.0672207 0)
(0 0.481478 0)
(0 0.288069 0)
(0 0.479793 0)
(0 0.333026 0)
(0 0.0981103 0)
(0 0.344138 0)
(0 0.32007 0)
(0 0.335285 0)
(0 -0.0242427 0)
(0 -0.0462371 0)
(0 0.454233 0)
(0 0.464296 0)
(0 0.2691 0)
(0 0.120785 0)
(0 0.410812 0)
(0 0.300146 0)
(0 0.139692 0)
(0 0.329998 0)
(0 0.459925 0)
(0 0.351048 0)
(0 0.014136 0)
(0 0.286732 0)
(0 0.144353 0)
(0 0.364317 0)
(0 0.288617 0)
(0 0.174771 0)
(0 0.337782 0)
(0 0.458847 0)
(0 0.385461 0)
(0 -0.00383984 0)
(0 0.352875 0)
(0 0.128646 0)
(0 0.329836 0)
(0 0.120434 0)
(0 0.192268 0)
(0 0.466612 0)
(0 0.442316 0)
(0 0.148782 0)
(0 0.210649 0)
(0 0.0585022 0)
(0 0.482322 0)
(0 0.232974 0)
(0 0.538489 0)
(0 -0.190824 0)
(0 0.491075 0)
(0 0.316705 0)
(0 0.137619 0)
(0 0.356972 0)
(0 0.441505 0)
(0 0.36701 0)
(0 0.030291 0)
(0 0.17847 0)
(0 0.151587 0)
(0 0.462115 0)
(0 0.533401 0)
(0 0.465073 0)
(0 -0.0896077 0)
(0 0.364953 0)
(0 0.369194 0)
(0 0.193465 0)
(0 0.237114 0)
(0 0.178647 0)
(0 0.215835 0)
(0 0.266411 0)
(0 0.183018 0)
(0 0.322111 0)
(0 0.364696 0)
(0 0.361886 0)
(0 0.198116 0)
(0 0.208386 0)
(0 0.2074 0)
(0 0.226843 0)
(0 0.299439 0)
(0 0.152771 0)
(0 0.342034 0)
(0 0.283298 0)
(0 0.144492 0)
(0 0.341348 0)
(0 0.503513 0)
(0 -0.0712858 0)
(0 0.312464 0)
(0 0.376001 0)
(0 0.16787 0)
(0 0.236949 0)
(0 0.344141 0)
(0 -0.0124198 0)
(0 0.440917 0)
(0 0.307549 0)
(0 0.321369 0)
(0 0.0858119 0)
(0 0.0816305 0)
(0 0.371745 0)
(0 0.38772 0)
(0 0.370395 0)
(0 0.178069 0)
(0 0.247843 0)
(0 0.422064 0)
(0 0.125606 0)
(0 0.257729 0)
(0 0.308943 0)
(0 0.101363 0)
(0 0.359798 0)
(0 0.305736 0)
(0 0.228686 0)
(0 0.259039 0)
(0 0.29545 0)
(0 0.0790157 0)
(0 0.401875 0)
(0 0.337352 0)
(0 0.253329 0)
(0 0.204737 0)
(0 0.273352 0)
(0 0.113111 0)
(0 0.383851 0)
(0 0.40837 0)
(0 0.125125 0)
(0 0.259464 0)
(0 0.307114 0)
(0 0.328766 0)
(0 0.216618 0)
(0 0.247381 0)
(0 0.231136 0)
(0 0.247761 0)
(0 0.337765 0)
(0 0.219499 0)
(0 0.347675 0)
(0 0.214869 0)
(0 0.214767 0)
(0 0.226321 0)
(0 0.370062 0)
(0 0.358592 0)
(0 0.156841 0)
(0 0.146227 0)
(0 0.264851 0)
(0 0.271881 0)
(0 0.321736 0)
(0 0.060516 0)
(0 0.418979 0)
(0 0.452209 0)
(0 0.185592 0)
(0 0.122209 0)
(0 0.338684 0)
(0 0.339878 0)
(0 0.0586097 0)
(0 0.0489747 0)
(0 0.421144 0)
(0 0.398227 0)
(0 0.432597 0)
(0 0.163902 0)
(0 0.168217 0)
(0 0.275348 0)
(0 0.25402 0)
(0 0.230751 0)
(0 0.301071 0)
(0 0.070177 0)
(0 0.392226 0)
(0 0.362082 0)
(0 0.231661 0)
(0 0.176476 0)
(0 0.40283 0)
(0 0.121857 0)
(0 0.271543 0)
(0 0.422547 0)
(0 0.411566 0)
(0 0.078296 0)
(0 0.297367 0)
(0 0.0811621 0)
(0 0.306703 0)
(0 0.328125 0)
(0 0.0916967 0)
(0 0.358428 0)
(0 0.509036 0)
(0 -0.063349 0)
(0 0.448217 0)
(0 0.172291 0)
(0 0.157032 0)
(0 0.456132 0)
(0 0.449722 0)
(0 0.45047 0)
(0 0.181518 0)
(0 0.143185 0)
(0 0.192196 0)
(0 0.157826 0)
(0 0.253282 0)
(0 0.0808142 0)
(0 0.437141 0)
(0 0.411206 0)
(0 0.125633 0)
(0 0.238034 0)
(0 0.441645 0)
(0 0.182302 0)
(0 0.16919 0)
(0 0.430425 0)
(0 0.421233 0)
(0 0.204998 0)
(0 0.208367 0)
(0 0.166107 0)
(0 0.158016 0)
(0 0.429599 0)
(0 0.191668 0)
(0 0.14876 0)
(0 0.320019 0)
(0 0.0940931 0)
(0 0.366969 0)
(0 0.326893 0)
(0 0.231276 0)
(0 0.203113 0)
(0 0.433148 0)
(0 0.384899 0)
(0 0.00933419 0)
(0 0.441706 0)
(0 0.175018 0)
(0 0.156981 0)
(0 0.38456 0)
(0 0.399327 0)
(0 0.117552 0)
(0 0.117441 0)
(0 0.273229 0)
(0 0.293391 0)
(0 0.36643 0)
(0 0.0140039 0)
(0 0.413891 0)
(0 0.442936 0)
(0 0.358938 0)
(0 0.0118206 0)
(0 0.441745 0)
(0 0.373219 0)
(0 0.0059236 0)
(0 0.413147 0)
(0 0.322032 0)
(0 0.0769711 0)
(0 0.411295 0)
(0 0.139603 0)
(0 0.25216 0)
(0 -0.116424 0)
(0 0.0184247 0)
(0 0.100808 0)
(0 -0.0965914 0)
(0 0.0540136 0)
(0 -0.279677 0)
(0 0.0331829 0)
(0 -0.0152692 0)
(0 -0.0155784 0)
(0 0.0576533 0)
(0 0.060759 0)
(0 -0.0123578 0)
(0 -0.0939858 0)
(0 0.0477233 0)
(0 0.0179055 0)
(0 -0.0339095 0)
(0 -0.0347472 0)
(0 0.0125672 0)
(0 0.0199826 0)
(0 0.0434299 0)
(0 0.0240229 0)
(0 0.0114046 0)
(0 0.0736664 0)
(0 0.321195 0)
(0 0.126854 0)
(0 0.0211236 0)
(0 0.055337 0)
(0 -0.00392893 0)
(0 0.0264078 0)
(0 -0.0796414 0)
(0 -0.00244494 0)
(0 0.0369698 0)
(0 0.0191242 0)
(0 0.0230519 0)
(0 0.00236641 0)
(0 0.0191238 0)
(0 0.115888 0)
(0 0.0686769 0)
(0 -0.0223007 0)
(0 0.0266523 0)
(0 0.00854387 0)
(0 0.510366 0)
(0 0.00492351 0)
(0 0.0527639 0)
(0 0.0861982 0)
(0 0.0110484 0)
(0 0.0122247 0)
(0 0.00583171 0)
(0 -0.012344 0)
(0 0.00482493 0)
(0 0.146903 0)
(0 0.0274939 0)
(0 -0.0362069 0)
(0 0.0074022 0)
(0 -0.00382307 0)
(0 0.143809 0)
(0 0.0423482 0)
(0 0.0191284 0)
(0 0.00434708 0)
(0 0.0476887 0)
(0 0.00398857 0)
(0 0.0048787 0)
(0 0.127969 0)
(0 0.00445786 0)
(0 0.0191183 0)
(0 0.0440098 0)
(0 0.0243821 0)
(0 0.190044 0)
(0 0.0728949 0)
(0 0.0675004 0)
(0 -0.00342604 0)
(0 -0.000641212 0)
(0 0.00600153 0)
(0 0.0515095 0)
(0 -0.00217085 0)
(0 0.0239188 0)
(0 0.0165279 0)
(0 0.00248937 0)
(0 0.0421392 0)
(0 0.102898 0)
(0 0.0132866 0)
(0 0.018946 0)
(0 -0.0202988 0)
(0 -0.022462 0)
(0 0.0114313 0)
(0 0.0466635 0)
(0 0.0125813 0)
(0 -0.0329752 0)
(0 0.0159999 0)
(0 0.130674 0)
(0 -0.016995 0)
(0 0.0470976 0)
(0 0.109813 0)
(0 0.0247123 0)
(0 -0.0523377 0)
(0 -0.189242 0)
(0 0.0013988 0)
(0 0.00554189 0)
(0 -0.0566553 0)
(0 -0.00348135 0)
(0 0.0266596 0)
(0 0.0783288 0)
(0 0.0977733 0)
(0 0.193561 0)
(0 -0.0257658 0)
(0 -0.0591569 0)
(0 -0.00722641 0)
(0 -0.00809259 0)
(0 0.00206521 0)
(0 0.109468 0)
(0 0.0817624 0)
(0 0.0459875 0)
(0 -0.00583192 0)
(0 -9.44916e-05 0)
(0 0.0280906 0)
(0 0.0671004 0)
(0 0.0133016 0)
(0 -0.0353167 0)
(0 -0.00745189 0)
(0 0.0124324 0)
(0 0.0189341 0)
(0 0.135067 0)
(0 0.176472 0)
(0 0.0534164 0)
(0 0.0213439 0)
(0 0.00656143 0)
(0 -0.011529 0)
(0 0.179712 0)
(0 -0.139028 0)
(0 0.052771 0)
(0 -0.00383415 0)
(0 0.129195 0)
(0 -0.0189287 0)
(0 -0.0580677 0)
(0 -0.11065 0)
(0 0.100491 0)
(0 0.0223724 0)
(0 -0.0106072 0)
(0 0.00143752 0)
(0 0.0390012 0)
(0 -0.0430916 0)
(0 0.046719 0)
(0 0.0320242 0)
(0 0.000203682 0)
(0 0.0779798 0)
(0 0.00666542 0)
(0 -0.020397 0)
(0 0.106319 0)
(0 0.0029848 0)
(0 0.0130041 0)
(0 -0.0187074 0)
(0 0.0219336 0)
(0 -0.0255368 0)
(0 0.083824 0)
(0 0.0512734 0)
(0 0.0122431 0)
(0 0.0491582 0)
(0 0.0515875 0)
(0 0.110731 0)
(0 0.0176074 0)
(0 0.00515604 0)
(0 -0.00393409 0)
(0 0.0558367 0)
(0 -0.141059 0)
(0 0.0290434 0)
(0 -0.00768752 0)
(0 0.374343 0)
(0 0.0113434 0)
(0 0.0830667 0)
(0 0.196424 0)
(0 0.0241325 0)
(0 0.182263 0)
(0 0.0869342 0)
(0 0.118785 0)
(0 -0.0356137 0)
(0 -0.00433356 0)
(0 -0.0142969 0)
(0 0.110413 0)
(0 -0.00941057 0)
(0 -0.0248709 0)
(0 -0.100126 0)
(0 -0.0263892 0)
(0 0.0132595 0)
(0 0.00804333 0)
(0 0.0223971 0)
(0 0.189122 0)
(0 0.0521954 0)
(0 0.00926921 0)
(0 0.040638 0)
(0 0.00620877 0)
(0 0.43918 0)
(0 -0.0712625 0)
(0 0.0814277 0)
(0 0.0042366 0)
(0 -0.00557865 0)
(0 0.18809 0)
(0 0.25484 0)
(0 0.00137532 0)
(0 0.00597445 0)
(0 0.341138 0)
(0 0.0266685 0)
(0 -0.0271734 0)
(0 0.00196128 0)
(0 0.05124 0)
(0 0.102535 0)
(0 0.0475118 0)
(0 -0.0116442 0)
(0 0.00378361 0)
(0 0.0567008 0)
(0 0.0220236 0)
(0 0.00263743 0)
(0 0.0330022 0)
(0 -0.102019 0)
(0 -0.000170658 0)
(0 0.0083116 0)
(0 0.0757356 0)
(0 -0.00850356 0)
(0 -0.0101161 0)
(0 0.0788079 0)
(0 0.0113798 0)
(0 -0.00453962 0)
(0 0.0112912 0)
(0 -0.0266565 0)
(0 -0.0102211 0)
(0 0.0326051 0)
(0 0.0372058 0)
(0 -0.0414054 0)
(0 -0.0154858 0)
(0 -0.114014 0)
(0 0.0449571 0)
(0 0.0517894 0)
(0 0.0166988 0)
(0 0.0405214 0)
(0 0.00791837 0)
(0 -0.00923966 0)
(0 0.0319599 0)
(0 0.00971573 0)
(0 -0.00672529 0)
(0 0.0459109 0)
(0 0.112798 0)
(0 0.0278572 0)
(0 0.127157 0)
(0 0.0877924 0)
(0 0.478322 0)
(0 -0.03846 0)
(0 -0.00900123 0)
(0 0.0153409 0)
(0 0.011354 0)
(0 -0.0214999 0)
(0 -0.00671958 0)
(0 0.0298076 0)
(0 0.170542 0)
(0 0.0410497 0)
(0 0.0311807 0)
(0 -0.0107946 0)
(0 0.016516 0)
(0 0.0550699 0)
(0 0.0220736 0)
(0 0.0349328 0)
(0 0.00299344 0)
(0 0.0147905 0)
(0 0.00952819 0)
(0 -0.0924401 0)
(0 -0.0162544 0)
(0 0.00290228 0)
(0 -0.0210782 0)
(0 0.00141354 0)
(0 0.0369893 0)
(0 0.0191729 0)
(0 0.0125894 0)
(0 0.0403716 0)
(0 -0.083641 0)
(0 0.0142306 0)
(0 0.00412314 0)
(0 0.0113418 0)
(0 0.0130595 0)
(0 0.00618545 0)
(0 0.0283407 0)
(0 -0.0135327 0)
(0 -0.0100804 0)
(0 0.0165758 0)
(0 -0.0130975 0)
(0 -0.0111864 0)
(0 0.0317965 0)
(0 -0.109439 0)
(0 -0.0149341 0)
(0 0.0880509 0)
(0 0.0451352 0)
(0 -0.00248134 0)
(0 0.0581116 0)
(0 -0.00155308 0)
(0 0.0369746 0)
(0 0.0483507 0)
(0 -0.0575094 0)
(0 -0.0491233 0)
(0 0.0715163 0)
(0 0.0167374 0)
(0 0.0459833 0)
(0 -0.239017 0)
(0 -0.0435605 0)
(0 0.0795332 0)
(0 0.00780304 0)
(0 -0.113012 0)
(0 -0.00873946 0)
(0 -0.00725735 0)
(0 -0.00353595 0)
(0 -0.012606 0)
(0 0.00725756 0)
(0 0.0401968 0)
(0 -0.00176907 0)
(0 -0.00912305 0)
(0 0.00385705 0)
(0 0.00690629 0)
(0 0.442922 0)
(0 -0.0612094 0)
(0 0.0508614 0)
(0 0.025449 0)
(0 -0.0926456 0)
(0 -0.00444299 0)
(0 -0.0160971 0)
(0 -0.00213938 0)
(0 0.0335172 0)
(0 0.0082746 0)
(0 0.173476 0)
(0 0.0403183 0)
(0 -0.0468388 0)
(0 0.00946614 0)
(0 0.0268456 0)
(0 0.304372 0)
(0 0.0511141 0)
(0 0.116288 0)
(0 0.0556357 0)
(0 0.0096655 0)
(0 0.0229207 0)
(0 0.0132318 0)
(0 0.00200356 0)
(0 -0.011709 0)
(0 0.00663044 0)
(0 -0.0362231 0)
(0 0.0367474 0)
(0 0.00368054 0)
(0 -0.00169345 0)
(0 -0.0559727 0)
(0 -0.0207527 0)
(0 -0.0573106 0)
(0 -0.0540503 0)
(0 0.0726257 0)
(0 -0.0153771 0)
(0 0.0027393 0)
(0 0.119967 0)
(0 0.0714243 0)
(0 -0.0131189 0)
(0 0.00937986 0)
(0 0.101025 0)
(0 0.0112653 0)
(0 -0.0904868 0)
(0 0.00968602 0)
(0 -0.00166376 0)
(0 -0.00997691 0)
(0 0.0878873 0)
(0 0.00264485 0)
(0 0.00969546 0)
(0 0.103348 0)
(0 -0.00310489 0)
(0 0.0224906 0)
(0 -0.00461483 0)
(0 0.0224424 0)
(0 0.0108492 0)
(0 0.00570537 0)
(0 -0.245354 0)
(0 -0.00702479 0)
(0 -0.00292405 0)
(0 0.012985 0)
(0 0.0117707 0)
(0 0.0120613 0)
(0 0.0459475 0)
(0 0.151732 0)
(0 -0.0644003 0)
(0 0.0175085 0)
(0 -0.0206185 0)
(0 -0.0741597 0)
(0 -0.00568366 0)
(0 0.0651963 0)
(0 0.0298038 0)
(0 0.0135364 0)
(0 -0.000990013 0)
(0 0.0276817 0)
(0 -0.0165075 0)
(0 -0.0691985 0)
(0 -0.0410372 0)
(0 -0.00480101 0)
(0 0.0765178 0)
(0 0.107451 0)
(0 0.00914352 0)
(0 0.0477326 0)
(0 0.200847 0)
(0 0.0795983 0)
(0 0.0746861 0)
(0 0.113896 0)
(0 -0.0359622 0)
(0 0.00537259 0)
(0 -0.0129414 0)
(0 0.338387 0)
(0 0.0671027 0)
(0 0.0791931 0)
(0 0.00492072 0)
(0 0.0122151 0)
(0 -0.00580932 0)
(0 0.0543121 0)
(0 -0.00713003 0)
(0 -0.0472518 0)
(0 0.0847185 0)
(0 0.0396551 0)
(0 -0.14149 0)
(0 -0.011681 0)
(0 -0.00936128 0)
(0 -0.0450311 0)
(0 -0.0016796 0)
(0 0.00986687 0)
(0 0.0129922 0)
(0 -0.0341179 0)
(0 0.00623918 0)
(0 -0.00674025 0)
(0 0.00141482 0)
(0 -0.00580303 0)
(0 0.0391271 0)
(0 0.0108943 0)
(0 -0.00541068 0)
(0 0.118134 0)
(0 0.147225 0)
(0 0.0533877 0)
(0 0.00522734 0)
(0 0.0238215 0)
(0 -0.0809217 0)
(0 0.0642894 0)
(0 0.0244752 0)
(0 -0.0224119 0)
(0 0.11083 0)
(0 -0.168201 0)
(0 0.185713 0)
(0 -0.00268682 0)
(0 0.0129264 0)
(0 0.0140949 0)
(0 0.0552076 0)
(0 0.0572739 0)
(0 -0.062428 0)
(0 0.23386 0)
(0 -0.0400793 0)
(0 0.0714596 0)
(0 0.0121805 0)
(0 0.0350023 0)
(0 0.00686289 0)
(0 -0.0901441 0)
(0 0.00689264 0)
(0 0.0712669 0)
(0 0.0123346 0)
(0 0.314494 0)
(0 0.0482137 0)
(0 -0.00901342 0)
(0 -0.0483908 0)
(0 0.0360974 0)
(0 -0.122737 0)
(0 0.00547296 0)
(0 0.0122098 0)
(0 -0.0192554 0)
(0 0.155843 0)
(0 -0.0862564 0)
(0 -0.0931851 0)
(0 0.0585225 0)
(0 0.00546535 0)
(0 0.173465 0)
(0 0.280552 0)
(0 0.0139321 0)
(0 0.301991 0)
(0 0.141949 0)
(0 0.0980041 0)
(0 0.0894801 0)
(0 0.0254975 0)
(0 -0.0102935 0)
(0 0.00477284 0)
(0 0.0109479 0)
(0 0.0730726 0)
(0 0.0107093 0)
(0 -0.120313 0)
(0 0.233891 0)
(0 -0.000269375 0)
(0 0.0174985 0)
(0 0.00301258 0)
(0 0.128972 0)
(0 0.416757 0)
(0 0.00175296 0)
(0 0.0738456 0)
(0 0.0297096 0)
(0 0.140122 0)
(0 -0.0111786 0)
(0 0.0572236 0)
(0 0.0171604 0)
(0 0.208025 0)
(0 0.290745 0)
(0 0.0354179 0)
(0 0.00288971 0)
(0 0.0592508 0)
(0 -0.0201746 0)
(0 0.0223516 0)
(0 0.0198969 0)
(0 0.0118057 0)
(0 0.0279791 0)
(0 -0.050706 0)
(0 -0.189876 0)
(0 -0.0124022 0)
(0 0.0145157 0)
(0 0.0321761 0)
(0 0.0234577 0)
(0 0.0786871 0)
(0 0.00264713 0)
(0 -0.0108542 0)
(0 0.0326112 0)
(0 -0.0151015 0)
(0 0.144266 0)
(0 -0.0883398 0)
(0 0.0172578 0)
(0 0.104539 0)
(0 0.0875009 0)
(0 0.0235574 0)
(0 0.258153 0)
(0 -0.065253 0)
(0 0.0102939 0)
(0 0.0511964 0)
(0 0.00884941 0)
(0 -0.0024098 0)
(0 0.0132158 0)
(0 0.00600358 0)
(0 0.0369536 0)
(0 0.0404058 0)
(0 0.00713131 0)
(0 -0.0139304 0)
(0 0.0256666 0)
(0 -0.0040325 0)
(0 -0.0257952 0)
(0 0.132259 0)
(0 0.177724 0)
(0 0.279518 0)
(0 -0.0110355 0)
(0 0.220874 0)
(0 0.374466 0)
(0 0.169186 0)
(0 -0.0056636 0)
(0 0.0266945 0)
(0 0.0274005 0)
(0 0.262164 0)
(0 0.00646741 0)
(0 -0.0793867 0)
(0 -0.00938181 0)
(0 0.0033411 0)
(0 -0.140756 0)
(0 0.196385 0)
(0 0.0181319 0)
(0 0.0206828 0)
(0 0.0588259 0)
(0 0.0356558 0)
(0 0.00809924 0)
(0 0.015808 0)
(0 0.386847 0)
(0 0.148289 0)
(0 0.124088 0)
(0 0.0373532 0)
(0 0.0118729 0)
(0 0.05126 0)
(0 0.0330651 0)
(0 0.00727689 0)
(0 0.0120048 0)
(0 -1.38752e-05 0)
(0 0.00409426 0)
(0 0.0196532 0)
(0 0.0158301 0)
(0 0.00120156 0)
(0 0.124784 0)
(0 0.162555 0)
(0 -0.0059425 0)
(0 0.0937454 0)
(0 -0.0107414 0)
(0 -0.0180555 0)
(0 0.000780441 0)
(0 0.115819 0)
(0 0.0125622 0)
(0 0.0419621 0)
(0 0.0148258 0)
(0 0.132502 0)
(0 0.00870877 0)
(0 0.0148103 0)
(0 0.257315 0)
(0 -0.00771236 0)
(0 -0.00430459 0)
(0 -0.0487192 0)
(0 -0.0250742 0)
(0 -0.00871229 0)
(0 -0.295646 0)
(0 -0.0143305 0)
(0 -0.00812763 0)
(0 0.0172137 0)
(0 -0.00961905 0)
(0 -2.11559e-05 0)
(0 0.0155993 0)
(0 0.0116505 0)
(0 -0.0184805 0)
(0 0.00281328 0)
(0 -0.00126153 0)
(0 -0.360753 0)
(0 0.14472 0)
(0 0.0890768 0)
(0 0.0108936 0)
(0 -0.00999818 0)
(0 0.0924986 0)
(0 0.0118727 0)
(0 -0.076709 0)
(0 0.286834 0)
(0 -0.0187633 0)
(0 0.254084 0)
(0 0.0113054 0)
(0 0.101365 0)
(0 0.000388573 0)
(0 -0.148768 0)
(0 0.000225812 0)
(0 0.0217921 0)
(0 0.020913 0)
(0 0.0164394 0)
(0 -0.156407 0)
(0 0.00882863 0)
(0 0.000319666 0)
(0 -0.0316602 0)
(0 -0.0509572 0)
(0 -0.00377348 0)
(0 -0.000490462 0)
(0 0.199368 0)
(0 -0.0831984 0)
(0 0.0483974 0)
(0 0.0563511 0)
(0 0.00641844 0)
(0 0.0845123 0)
(0 0.0619232 0)
(0 -0.0150454 0)
(0 -0.261755 0)
(0 0.0132255 0)
(0 -0.00716417 0)
(0 -0.00794314 0)
(0 0.0422092 0)
(0 0.053116 0)
(0 0.0112078 0)
(0 0.0314725 0)
(0 0.00837574 0)
(0 0.238293 0)
(0 0.139865 0)
(0 0.0157306 0)
(0 0.00834487 0)
(0 0.241834 0)
(0 0.101268 0)
(0 0.026945 0)
(0 0.0296549 0)
(0 0.0088821 0)
(0 0.256862 0)
(0 0.0148399 0)
(0 -0.00700997 0)
(0 0.13812 0)
(0 0.0594998 0)
(0 0.153602 0)
(0 0.0211488 0)
(0 0.00430181 0)
(0 -0.000165805 0)
(0 0.0572122 0)
(0 0.0359484 0)
(0 -0.474127 0)
(0 0.561904 0)
(0 0.0132037 0)
(0 -0.0270362 0)
(0 0.0240117 0)
(0 0.0885893 0)
(0 0.213081 0)
(0 0.341913 0)
(0 0.0319431 0)
(0 0.0105297 0)
(0 0.063981 0)
(0 0.097595 0)
(0 0.106805 0)
(0 0.0432625 0)
(0 0.0702506 0)
(0 -0.128578 0)
(0 -0.024097 0)
(0 0.0279685 0)
(0 -0.0154043 0)
(0 -0.168653 0)
(0 -0.0053038 0)
(0 0.0118236 0)
(0 0.068243 0)
(0 -0.00297503 0)
(0 0.0193102 0)
(0 -0.0453391 0)
(0 0.0930349 0)
(0 0.33835 0)
(0 0.0184879 0)
(0 -0.00263635 0)
(0 -0.00664867 0)
(0 0.0701301 0)
(0 0.00643276 0)
(0 0.000932042 0)
(0 -0.00450331 0)
(0 0.120061 0)
(0 0.0241612 0)
(0 0.0293484 0)
(0 -0.0194745 0)
(0 0.0268947 0)
(0 0.00104826 0)
(0 -0.00581153 0)
(0 0.0494777 0)
(0 0.0681923 0)
(0 0.112304 0)
(0 0.426517 0)
(0 -0.0271067 0)
(0 0.0893424 0)
(0 -0.00608416 0)
(0 0.114479 0)
(0 0.154926 0)
(0 0.169718 0)
(0 0.0541293 0)
(0 -0.0183022 0)
(0 -0.0223717 0)
(0 0.0124818 0)
(0 -0.0104293 0)
(0 0.00933409 0)
(0 -0.00380232 0)
(0 0.0272331 0)
(0 -0.0194136 0)
(0 0.0995834 0)
(0 0.00710908 0)
(0 -0.00938205 0)
(0 0.0795786 0)
(0 0.0599022 0)
(0 0.0141921 0)
(0 0.0140307 0)
(0 0.0457458 0)
(0 0.113514 0)
(0 0.0222967 0)
(0 0.0182658 0)
(0 -0.00667841 0)
(0 0.0648897 0)
(0 0.0231194 0)
(0 0.14054 0)
(0 -0.0089281 0)
(0 0.0159021 0)
(0 0.139995 0)
(0 0.0471055 0)
(0 0.256285 0)
(0 0.0418889 0)
(0 0.00951775 0)
(0 -0.00902545 0)
(0 -0.00456483 0)
(0 0.0158188 0)
(0 -0.00380679 0)
(0 0.169603 0)
(0 -0.0109174 0)
(0 -0.0507916 0)
(0 0.0132756 0)
(0 0.00219984 0)
(0 0.0692377 0)
(0 -0.00667821 0)
(0 0.109977 0)
(0 0.0591955 0)
(0 0.0290614 0)
(0 -0.20105 0)
(0 0.0359382 0)
(0 -0.12869 0)
(0 -0.0370231 0)
(0 0.0175828 0)
(0 0.0149467 0)
(0 0.0115527 0)
(0 0.0132371 0)
(0 0.0631575 0)
(0 -0.013786 0)
(0 0.199162 0)
(0 0.00910291 0)
(0 0.00691719 0)
(0 0.0396089 0)
(0 0.0535056 0)
(0 0.175047 0)
(0 0.0122194 0)
(0 0.0186783 0)
(0 -0.0208783 0)
(0 0.0061171 0)
(0 0.0107713 0)
(0 0.203288 0)
(0 0.00351301 0)
(0 0.0188286 0)
(0 0.00797728 0)
(0 0.0664388 0)
(0 0.0109192 0)
(0 0.023385 0)
(0 -0.000658664 0)
(0 0.342081 0)
(0 -0.00859722 0)
(0 -0.0253999 0)
(0 -0.0398246 0)
(0 0.0759773 0)
(0 -0.00901779 0)
(0 -0.00578928 0)
(0 -0.0237509 0)
(0 -0.00165751 0)
(0 0.135366 0)
(0 0.0166616 0)
(0 0.0411423 0)
(0 0.10542 0)
(0 0.0321358 0)
(0 0.0217893 0)
(0 0.353415 0)
(0 0.00135567 0)
(0 0.0613144 0)
(0 0.0341196 0)
(0 0.0200635 0)
(0 -0.00826153 0)
(0 0.0239373 0)
(0 0.0197358 0)
(0 -0.0368502 0)
(0 0.0244265 0)
(0 -0.145594 0)
(0 -0.00770926 0)
(0 0.0244956 0)
(0 -0.0147514 0)
(0 -0.00298222 0)
(0 0.0592846 0)
(0 0.00280221 0)
(0 0.0550259 0)
(0 0.0176676 0)
(0 0.128692 0)
(0 0.0141545 0)
(0 -0.0097691 0)
(0 0.0360547 0)
(0 -0.00163499 0)
(0 0.00199661 0)
(0 0.00882896 0)
(0 0.019542 0)
(0 0.0239101 0)
(0 0.0397287 0)
(0 0.113876 0)
(0 0.0570155 0)
(0 0.0781392 0)
(0 0.0222354 0)
(0 0.0982621 0)
(0 0.190957 0)
(0 0.216517 0)
(0 0.0210267 0)
(0 0.0113145 0)
(0 0.0259647 0)
(0 -0.0210948 0)
(0 0.202566 0)
(0 0.0881537 0)
(0 0.0721418 0)
(0 0.0207268 0)
(0 -0.0144134 0)
(0 -0.00988997 0)
(0 0.0278377 0)