/*--------------------------------*- C++ -*----------------------------------*\
  =========                 |
  \\      /  F ield         | OpenFOAM: The Open Source CFD Toolbox
   \\    /   O peration     | Website:  https://openfoam.org
    \\  /    A nd           | Version:  6
     \\/     M anipulation  |
\*---------------------------------------------------------------------------*/
FoamFile
{
    version     2.0;
    format      ascii;
    class       volScalarField;
    location    "350";
    object      alphat;
}
// * * * * * * * * * * * * * * * * * * * * * * * * * * * * * * * * * * * * * //

dimensions      [1 -1 -1 0 0 0 0];

internalField   nonuniform List<scalar> 
16000
(
5.1683567e-06
2.4159053e-05
2.7554679e-05
3.7989781e-05
3.2197178e-05
4.1028174e-05
3.93474e-05
4.4471779e-05
4.4907833e-05
4.5301876e-05
4.5544294e-05
4.4291745e-05
4.4278107e-05
4.3201777e-05
4.3209732e-05
4.2773696e-05
4.3009306e-05
4.3131056e-05
4.3652357e-05
4.4224917e-05
4.5071109e-05
4.6054145e-05
4.7269821e-05
4.8676869e-05
5.0325808e-05
5.2220505e-05
5.4402073e-05
5.6900488e-05
5.976499e-05
6.3049166e-05
6.6824123e-05
7.1175275e-05
7.6208092e-05
8.2051055e-05
8.8856021e-05
9.6813011e-05
0.00010615662
0.00011718081
0.00013024936
0.00014580131
0.00016437595
0.00018664454
0.0002134354
0.00024576709
0.00028489411
0.00033236233
0.00039006758
0.00046032877
0.0005459713
0.00065041558
0.00077777273
0.00093294556
0.0011217913
0.0012207376
0.0012219464
0.0012220932
0.0012215108
0.0012205379
0.0012193544
0.0012179004
0.0012160863
0.0012138659
0.0012111787
0.0012079987
0.0012043677
0.0012004719
0.001196607
0.0011930804
0.0011898986
0.0011871644
0.0011846272
0.0011827318
0.0011805821
0.0011796166
0.0011774382
0.0011786746
0.0011757051
0.0011818026
0.0011729088
0.0011808764
4.3386245e-06
2.3909672e-05
2.5212229e-05
3.4722609e-05
2.9674753e-05
3.7034995e-05
3.6205025e-05
3.9911612e-05
4.1091686e-05
4.0609897e-05
4.1304676e-05
3.9665602e-05
3.9837897e-05
3.8661571e-05
3.8759024e-05
3.8302255e-05
3.8542798e-05
3.8630304e-05
3.9105815e-05
3.9612745e-05
4.0372839e-05
4.1252383e-05
4.2341835e-05
4.3602189e-05
4.5078942e-05
4.6775473e-05
4.8728107e-05
5.0963828e-05
5.3526287e-05
5.6463374e-05
5.9837104e-05
6.3721496e-05
6.8210111e-05
7.3416953e-05
7.9482075e-05
8.6575952e-05
9.4903541e-05
0.00010471714
0.00011633379
0.00013014951
0.00014664016
0.00016639137
0.00019012945
0.00021874855
0.00025334455
0.00029526675
0.00034617023
0.00040807742
0.00048345503
0.00057529662
0.00068721501
0.00082354421
0.00098947544
0.0011912448
0.0012210219
0.0012213025
0.0012207604
0.0012197798
0.0012186029
0.0012172652
0.0012156755
0.0012136571
0.0012111474
0.0012081083
0.0012045626
0.0012006743
0.0011967703
0.0011931803
0.001189973
0.001187171
0.0011846543
0.0011826341
0.0011806251
0.0011794901
0.0011775066
0.001178138
0.0011756274
0.0011810064
0.0011729999
0.0011806445
3.7246183e-06
2.3670469e-05
2.3298804e-05
3.1926606e-05
2.7657285e-05
3.3610364e-05
3.3811779e-05
3.5829826e-05
3.7837421e-05
3.6251364e-05
3.7394165e-05
3.5323561e-05
3.5707052e-05
3.4477984e-05
3.4657204e-05
3.419733e-05
3.4445749e-05
3.4516571e-05
3.495738e-05
3.5417653e-05
3.6109483e-05
3.690824e-05
3.7896011e-05
3.9038424e-05
4.0375351e-05
4.1910942e-05
4.3677151e-05
4.5698864e-05
4.8014995e-05
5.0668788e-05
5.371586e-05
5.7223425e-05
6.1274671e-05
6.5969955e-05
7.1434998e-05
7.7824039e-05
8.5326896e-05
9.4170637e-05
0.00010463021
0.00011705486
0.00013187793
0.00014962289
0.0001709314
0.00019659856
0.00022759737
0.00026511996
0.000310629
0.00036590939
0.00043313551
0.00051494836
0.00061453951
0.00073574919
0.00088318241
0.001062382
0.0012201231
0.0012205526
0.0012200556
0.0012190574
0.0012178544
0.0012165124
0.0012149963
0.0012132223
0.0012109281
0.0012080676
0.0012046426
0.0012007925
0.0011968633
0.0011932275
0.0011899935
0.001187151
0.001184635
0.0011825484
0.0011806118
0.0011793516
0.0011775499
0.0011777761
0.0011755976
0.0011802502
0.0011729921
0.0011799254
3.3112392e-06
2.33701e-05
2.1652994e-05
2.9313424e-05
2.5771738e-05
3.0482359e-05
3.1517609e-05
3.2159013e-05
3.4698319e-05
3.2332384e-05
3.3709663e-05
3.1455616e-05
3.194284e-05
3.0747028e-05
3.095535e-05
3.0527934e-05
3.0767767e-05
3.0839005e-05
3.1245505e-05
3.167187e-05
3.2304497e-05
3.3036683e-05
3.3937817e-05
3.4980611e-05
3.6198659e-05
3.7597639e-05
3.9205493e-05
4.1045662e-05
4.3153143e-05
4.5567473e-05
4.8338983e-05
5.1528697e-05
5.5212028e-05
5.9481052e-05
6.4448733e-05
7.0253199e-05
7.7065941e-05
8.5099594e-05
9.4608169e-05
0.00010589763
0.00011935687
0.00013546772
0.00015480981
0.00017809682
0.00020620865
0.00024021896
0.00028144235
0.00033148467
0.00039229955
0.00046626134
0.00055624365
0.00066571211
0.00079883268
0.00096061759
0.0011571211
0.001219839
0.0012193955
0.0012183755
0.0012171352
0.001215765
0.0012142402
0.0012125146
0.0012104801
0.0012078414
0.0012045797
0.0012008034
0.0011968701
0.0011932049
0.0011899539
0.0011870891
0.0011845723
0.0011824463
0.0011805599
0.00117919
0.0011775712
0.0011775148
0.0011755829
0.001179451
0.001173013
0.0011794995
2.967424e-06
2.2968925e-05
2.0289275e-05
2.6900034e-05
2.404866e-05
2.7629973e-05
2.9382179e-05
2.8822792e-05
3.1690892e-05
2.8749417e-05
3.0214448e-05
2.7973367e-05
2.8483649e-05
2.7372956e-05
2.7580375e-05
2.7205588e-05
2.7430014e-05
2.7511893e-05
2.7887582e-05
2.8289198e-05
2.8871533e-05
2.9548459e-05
3.0375951e-05
3.1334139e-05
3.2450643e-05
3.3732785e-05
3.5205047e-05
3.6889685e-05
3.8818439e-05
4.1027785e-05
4.3563641e-05
4.6481946e-05
4.9851776e-05
5.3757279e-05
5.8301921e-05
6.3612946e-05
6.9845607e-05
7.7191966e-05
8.5891367e-05
9.6228631e-05
0.00010854905
0.00012329125
0.00014099355
0.00016230428
0.00018802458
0.00021913636
0.00025683565
0.00030258555
0.00035816586
0.00042573926
0.00050792767
0.00060789852
0.00072947012
0.00087723902
0.0010567649
0.0012191434
0.0012187674
0.0012177247
0.0012164407
0.0012150337
0.0012134835
0.0012117562
0.0012097869
0.0012074171
0.0012043662
0.0012007036
0.0011967899
0.0011931112
0.0011898546
0.0011869827
0.0011844687
0.0011823245
0.0011804727
0.0011790339
0.0011775597
0.0011772508
0.0011755792
0.0011787215
0.0011730732
0.0011789085
2.6812466e-06
2.2171589e-05
1.9152032e-05
2.4637914e-05
2.2462038e-05
2.4989765e-05
2.7353481e-05
2.5759852e-05
2.8783177e-05
2.5534189e-05
2.6961106e-05
2.4846067e-05
2.5323533e-05
2.4334762e-05
2.4523073e-05
2.4213586e-05
2.4420642e-05
2.451992e-05
2.4869802e-05
2.5254055e-05
2.5795031e-05
2.6426928e-05
2.7193153e-05
2.8080712e-05
2.9112099e-05
3.0296076e-05
3.1654302e-05
3.3208053e-05
3.4986449e-05
3.7023438e-05
3.9361335e-05
4.205189e-05
4.5158968e-05
4.8760428e-05
5.295193e-05
5.7850941e-05
6.3601998e-05
7.0381628e-05
7.840833e-05
8.7953123e-05
9.9335623e-05
0.00011295526
0.00012930977
0.0001490039
0.00017277214
0.00020152288
0.00023635948
0.00027862978
0.00032997606
0.0003923919
0.00046829752
0.00056062054
0.0006728973
0.00080939123
0.00097525943
0.0011767415
0.0012181611
0.0012170977
0.0012157648
0.0012143154
0.0012127316
0.0012109858
0.0012090318
0.0012067768
0.0012039901
0.0012004876
0.0011966207
0.0011929445
0.0011896956
0.0011868306
0.0011843261
0.0011821799
0.0011803547
0.0011788786
0.0011775175
0.0011769839
0.0011755802
0.001178124
0.0011731422
0.001178515
2.4354136e-06
1.8759962e-05
1.8101532e-05
2.2494964e-05
2.1025188e-05
2.2534367e-05
2.5437389e-05
2.2947764e-05
2.5987479e-05
2.266968e-05
2.3969482e-05
2.2046368e-05
2.245628e-05
2.1605826e-05
2.1764916e-05
2.1523437e-05
2.1713003e-05
2.1831332e-05
2.2159531e-05
2.2530589e-05
2.3037129e-05
2.3631409e-05
2.4346138e-05
2.5174045e-05
2.6133524e-05
2.7234393e-05
2.849609e-05
2.9939021e-05
3.1590158e-05
3.3481383e-05
3.5652022e-05
3.8150315e-05
4.1035883e-05
4.438132e-05
4.8275856e-05
5.2829222e-05
5.8176225e-05
6.4482231e-05
7.194991e-05
8.0832762e-05
9.1433634e-05
0.00010412356
0.00011936262
0.00013772071
0.00015988134
0.00018669024
0.00021917827
0.00025859996
0.00030648694
0.0003646973
0.00043548824
0.00052159368
0.00062632063
0.00075366359
0.00090845387
0.0010965492
0.001217563
0.0012164846
0.0012150993
0.0012136037
0.0012119814
0.0012102088
0.0012082485
0.0012060355
0.0012034391
0.0012001503
0.0011963612
0.0011927039
0.0011894767
0.0011866322
0.0011841463
0.0011820112
0.0011802092
0.0011787211
0.0011774479
0.0011767388
0.0011755775
0.0011775577
0.0011732197
0.0011781295
2.2006236e-06
1.821107e-05
1.6794481e-05
2.0458788e-05
1.9721027e-05
2.0261465e-05
2.3593172e-05
2.045264e-05
2.3291847e-05
2.0121696e-05
2.1234887e-05
1.9543384e-05
1.9867494e-05
1.9158549e-05
1.9285497e-05
1.9109398e-05
1.928369e-05
1.942068e-05
1.9731624e-05
2.0092581e-05
2.0571094e-05
2.1134239e-05
2.1806279e-05
2.2584377e-05
2.348376e-05
2.4515044e-05
2.56959e-05
2.7045952e-05
2.8590468e-05
3.0359592e-05
3.2390281e-05
3.4727795e-05
3.7428331e-05
4.0560192e-05
4.420732e-05
4.8473125e-05
5.348464e-05
5.9397628e-05
6.6403741e-05
7.4740736e-05
8.4695256e-05
9.6618253e-05
0.00011094362
0.00012820466
0.00014904921
0.00017427087
0.00020484206
0.00024194259
0.00028701429
0.00034180597
0.00040844255
0.00048950025
0.00058809864
0.00070801161
0.00085380511
0.0010310199
0.0012169589
0.001215876
0.0012144361
0.0012128919
0.0012112284
0.0012094244
0.0012074482
0.0012052484
0.0012027301
0.001199688
0.0011960124
0.0011923904
0.0011891991
0.0011863882
0.0011839312
0.0011818188
0.0011800403
0.0011785598
0.0011773544
0.0011765244
0.0011755688
0.0011770231
0.001173297
0.0011778152
2.0012793e-06
1.7612297e-05
1.5647675e-05
1.8549829e-05
1.8510425e-05
1.814585e-05
2.174893e-05
1.8217788e-05
2.0735199e-05
1.7835468e-05
1.8733991e-05
1.7293007e-05
1.7529191e-05
1.6957128e-05
1.7055715e-05
1.6940248e-05
1.7103815e-05
1.7258585e-05
1.7557179e-05
1.7910865e-05
1.8367331e-05
1.8905223e-05
1.9542425e-05
2.0279453e-05
2.1129182e-05
2.2102684e-05
2.3216371e-05
2.4489119e-05
2.5944858e-05
2.7612311e-05
2.9526495e-05
3.1730235e-05
3.4276915e-05
3.723136e-05
4.0673245e-05
4.470077e-05
4.9434722e-05
5.5023447e-05
6.1648491e-05
6.9536275e-05
7.8960063e-05
9.0254553e-05
0.00010383087
0.00012019586
0.00013996642
0.00016389551
0.00019290732
0.00022812188
0.00027090831
0.00032292726
0.00038619642
0.00046316375
0.00055679599
0.00067068627
0.00080918548
0.00097757502
0.0011822549
0.0012152621
0.0012137668
0.0012121729
0.001210467
0.0012086295
0.0012066332
0.0012044356
0.0012019659
0.001199096
0.0011955767
0.0011920058
0.0011888647
0.0011861004
0.0011836835
0.0011816041
0.0011798522
0.0011783942
0.0011772404
0.0011763379
0.0011755539
0.0011765251
0.0011733867
0.0011775156
1.8272957e-06
1.6966629e-05
1.4557758e-05
1.6717039e-05
1.7376278e-05
1.6229327e-05
1.9875555e-05
1.6199238e-05
1.8331889e-05
1.577417e-05
1.6457498e-05
1.5265315e-05
1.5422404e-05
1.4976053e-05
1.5053597e-05
1.4992434e-05
1.5150552e-05
1.5321939e-05
1.561286e-05
1.5961841e-05
1.6401753e-05
1.6919744e-05
1.7529217e-05
1.8233025e-05
1.9042448e-05
1.9968758e-05
2.1027441e-05
2.2236724e-05
2.3619475e-05
2.5203288e-05
2.7021627e-05
2.9115301e-05
3.1535453e-05
3.4344124e-05
3.761755e-05
4.1449683e-05
4.5956455e-05
5.1280314e-05
5.7593735e-05
6.5116757e-05
7.4110158e-05
8.4894655e-05
9.7862932e-05
0.00011350494
0.00013240883
0.00015529625
0.00018305243
0.00021674929
0.00025769784
0.00030748761
0.00036804983
0.00044172853
0.00053136624
0.00064040848
0.00077303159
0.00093430611
0.0011303855
0.0012146332
0.001213083
0.00121144
0.0012096917
0.0012078204
0.0012058019
0.0012036004
0.0012011581
0.0011983742
0.0011950584
0.0011915541
0.0011884767
0.0011857715
0.0011834062
0.0011813693
0.0011796495
0.001178225
0.0011771106
0.0011761776
0.0011755337
0.0011760768
0.0011734934
0.0011772411
1.6761754e-06
1.623043e-05
1.3545441e-05
1.4955566e-05
1.6296686e-05
1.4493143e-05
1.7957244e-05
1.4373057e-05
1.6096701e-05
1.3913966e-05
1.4398869e-05
1.3438466e-05
1.3530915e-05
1.3195153e-05
1.3260084e-05
1.3246246e-05
1.3403929e-05
1.3590684e-05
1.3822019e-05
1.4159498e-05
1.458075e-05
1.5077943e-05
1.5660779e-05
1.6333196e-05
1.7105022e-05
1.798733e-05
1.8994679e-05
2.0144515e-05
2.1458623e-05
2.2963505e-05
2.4691219e-05
2.6680586e-05
2.8980745e-05
3.1651185e-05
3.4765057e-05
3.8412521e-05
4.2705154e-05
4.7780628e-05
5.4160358e-05
6.1391062e-05
7.0040262e-05
8.0417086e-05
9.2900203e-05
0.00010796719
0.00012618217
0.00014824201
0.0001750018
0.00020749439
0.00024698526
0.00029500701
0.00035342185
0.00042449044
0.00051095538
0.00061614305
0.00074408861
0.00089969257
0.0010889068
0.0012139802
0.0012123769
0.0012106866
0.0012088974
0.0012069933
0.0012049527
0.0012027452
0.001200324
0.0011976107
0.0011944633
0.0011910401
0.0011880394
0.0011854051
0.0011831025
0.0011811174
0.0011794369
0.0011780536
0.0011769704
0.0011760416
0.0011755093
0.0011756986
0.0011736208
0.001176945
1.5445082e-06
1.5384607e-05
1.25965e-05
1.3263586e-05
1.5232012e-05
1.2914408e-05
1.6024018e-05
1.271369e-05
1.4037611e-05
1.2231558e-05
1.2546757e-05
1.1792518e-05
1.1837809e-05
1.1596666e-05
1.1604175e-05
1.1611439e-05
1.176191e-05
1.1956896e-05
1.2239267e-05
1.2583311e-05
1.3002067e-05
1.349219e-05
1.4061797e-05
1.4716105e-05
1.5464361e-05
1.6317755e-05
1.7290402e-05
1.8399338e-05
1.9665683e-05
2.1115268e-05
2.2779341e-05
2.4695217e-05
2.691074e-05
2.9483698e-05
3.2485113e-05
3.6002445e-05
4.0144121e-05
4.5045573e-05
5.0868805e-05
5.7815554e-05
6.6132535e-05
7.6119283e-05
8.8826718e-05
0.00010344698
0.00012112738
0.00014254484
0.00016853259
0.00020009131
0.00023845198
0.00028510236
0.00034185035
0.00041089089
0.0004948876
0.00059707235
0.00072136817
0.00087254079
0.0010563818
0.0012132948
0.0012116417
0.0012099068
0.0012080795
0.0012061448
0.0012040835
0.0012018696
0.0011994651
0.0011968098
0.0011937994
0.0011904705
0.0011875581
0.0011850057
0.0011827764
0.0011808518
0.0011792191
0.0011778819
0.001176826
0.0011759272
0.0011754803
0.0011753923
0.0011737695
0.0011767104
1.4303661e-06
1.4416236e-05
1.171279e-05
1.1729782e-05
1.4149037e-05
1.147269e-05
1.4134161e-05
1.1202056e-05
1.2162313e-05
1.070967e-05
1.0889984e-05
1.0312218e-05
1.0249771e-05
1.0063453e-05
1.0114608e-05
1.0173346e-05
1.0343161e-05
1.0560481e-05
1.0851938e-05
1.1202251e-05
1.16204e-05
1.2105975e-05
1.2666212e-05
1.3307199e-05
1.4037762e-05
1.4869165e-05
1.5815201e-05
1.6892551e-05
1.8121799e-05
1.9528261e-05
2.1142744e-05
2.3001199e-05
2.5150599e-05
2.7647492e-05
3.0561379e-05
3.3977673e-05
3.8001923e-05
4.2768144e-05
4.8434536e-05
5.5198909e-05
6.3303073e-05
7.3041096e-05
8.4777336e-05
9.895463e-05
0.00011611278
0.00013804471
0.00016345605
0.00019431585
0.00023183035
0.0002774531
0.00033295034
0.00040046662
0.00048260475
0.00058252378
0.00070406026
0.00085187626
0.0010316407
0.0012125698
0.0012108712
0.001209096
0.0012072343
0.0012052723
0.0012031928
0.0012009735
0.0011985834
0.001195976
0.0011930759
0.001189853
0.0011870392
0.0011845783
0.0011824317
0.0011805763
0.0011789999
0.0011777122
0.0011766826
0.0011758312
0.0011754457
0.0011751518
0.0011739239
0.0011765234
1.3315587e-06
1.3320463e-05
1.0886816e-05
1.0339359e-05
1.3008484e-05
1.0154965e-05
1.2318703e-05
9.8253794e-06
1.0474471e-05
9.3353141e-06
9.3283585e-06
8.855319e-06
8.8367455e-06
8.7395722e-06
8.8158731e-06
8.9161193e-06
9.1041841e-06
9.3404873e-06
9.6412584e-06
9.9980542e-06
1.0417525e-05
1.0901098e-05
1.1455573e-05
1.2087684e-05
1.2805913e-05
1.3621578e-05
1.4548255e-05
1.5602336e-05
1.6803947e-05
1.8177991e-05
1.9680971e-05
2.148159e-05
2.3564258e-05
2.5984289e-05
2.8809769e-05
3.2124299e-05
3.6235606e-05
4.0901797e-05
4.6452783e-05
5.3083833e-05
6.1033694e-05
7.0590423e-05
8.2115263e-05
9.6043305e-05
0.0001129077
0.00013335951
0.00015818648
0.00018997789
0.00022689396
0.00027178877
0.00032639788
0.00039282887
0.00047363978
0.000571936
0.00069149017
0.00083688878
0.0010137121
0.0012117996
0.0012100611
0.0012082504
0.0012063591
0.0012043743
0.0012022803
0.0012000579
0.0011976813
0.0011951147
0.0011923035
0.0011891965
0.0011864898
0.0011841285
0.0011820723
0.001180294
0.0011787824
0.0011775465
0.0011765452
0.0011757503
0.0011754039
0.0011749656
0.0011740808
0.0011763799
1.2468034e-06
1.2105155e-05
1.011005e-05
9.0774096e-06
1.1770661e-05
8.94806e-06
1.0608462e-05
8.5712564e-06
8.9707467e-06
7.9588666e-06
7.9276232e-06
7.6104798e-06
7.6138859e-06
7.5870703e-06
7.6878208e-06
7.822006e-06
8.0275108e-06
8.2805221e-06
8.5910011e-06
8.954857e-06
9.3775573e-06
9.8616321e-06
1.0413679e-05
1.1015925e-05
1.1720104e-05
1.2518659e-05
1.3424722e-05
1.4454177e-05
1.5626487e-05
1.6965722e-05
1.8501253e-05
2.0269183e-05
2.2313955e-05
2.4690379e-05
2.7466033e-05
3.0724297e-05
3.4568179e-05
3.9124578e-05
4.4549325e-05
5.103572e-05
5.8820045e-05
6.869998e-05
8.0086204e-05
9.3852247e-05
0.00011052446
0.00013074944
0.00015530589
0.00018514762
0.00022344365
0.00026787197
0.0003219093
0.00038763813
0.00046758593
0.00056482139
0.00068307334
0.00082687794
0.0010017574
0.0012109802
0.0012092082
0.001207368
0.0012054527
0.0012034502
0.0012013463
0.0011991241
0.0011967621
0.0011942319
0.0011914936
0.0011885106
0.0011859175
0.0011836618
0.0011817021
0.001180008
0.0011785685
0.0011773864
0.0011764177
0.001175682
0.001175353
0.0011748227
0.0011742303
0.0011762657
1.1756415e-06
1.0783443e-05
9.3744445e-06
7.9307172e-06
1.0487798e-05
7.8411958e-06
9.0313834e-06
7.3702801e-06
7.4539151e-06
6.7602877e-06
6.7282625e-06
6.5322145e-06
6.5599624e-06
6.5888461e-06
6.7132597e-06
6.8757426e-06
7.0980078e-06
7.3662585e-06
7.6869501e-06
8.0586573e-06
8.4680035e-06
8.9498082e-06
9.4974783e-06
1.0117818e-05
1.081955e-05
1.1613268e-05
1.251209e-05
1.3531809e-05
1.4691634e-05
1.6015488e-05
1.7532535e-05
1.927865e-05
2.1298061e-05
2.3645348e-05
2.6387845e-05
2.9608701e-05
3.3410642e-05
3.7919881e-05
4.3291575e-05
4.9719422e-05
5.7440451e-05
6.6734795e-05
7.7952776e-05
9.1526764e-05
0.00010886955
0.00012897682
0.00015339098
0.00018306457
0.00021914349
0.00026548791
0.00031922809
0.00038458758
0.00046407613
0.00056074071
0.00067828413
0.00082121446
0.00099502347
0.001206393
0.0012083115
0.0012064482
0.001204515
0.0012025007
0.0012003924
0.0011981748
0.0011958297
0.0011933343
0.0011906584
0.0011878053
0.0011853305
0.0011831841
0.0011813247
0.0011797201
0.0011783585
0.0011772328
0.0011763028
0.0011756241
0.0011752919
0.0011747127
0.0011743636
0.0011761631
1.1186173e-06
9.3699628e-06
8.6657666e-06
6.8875682e-06
9.1594107e-06
6.8249579e-06
7.6141315e-06
6.1804053e-06
6.2026816e-06
5.7284632e-06
5.7053256e-06
5.6027409e-06
5.6564645e-06
5.7299114e-06
5.8770772e-06
6.0637948e-06
6.3022813e-06
6.5848994e-06
6.8995304e-06
7.2758482e-06
7.7062155e-06
8.1946018e-06
8.7468048e-06
9.3698794e-06
1.0072618e-05
1.0865602e-05
1.1761956e-05
1.2777488e-05
1.393113e-05
1.52468e-05
1.6753581e-05
1.8487305e-05
2.0492214e-05
2.282294e-05
2.554693e-05
2.8747589e-05
3.2527841e-05
3.7013706e-05
4.2360518e-05
4.8762676e-05
5.6457383e-05
6.5722313e-05
7.6911778e-05
9.0460209e-05
0.00010688456
0.00012681537
0.00015231935
0.00018195693
0.00021799422
0.00026181801
0.00031810994
0.00038338514
0.00046276094
0.00055927638
0.00067662309
0.00081930085
0.00099279435
0.0012037818
0.0012073716
0.0012054919
0.0012035476
0.0012015279
0.0011994211
0.0011972133
0.0011948889
0.0011924289
0.0011898097
0.0011870905
0.0011847364
0.0011827009
0.0011809432
0.0011794315
0.0011781513
0.0011770848
0.0011762008
0.0011755752
0.0011752256
0.0011746282
0.0011744812
0.0011760599
1.0783338e-06
7.8793044e-06
7.9538557e-06
5.9412887e-06
7.828599e-06
5.8797971e-06
6.6545574e-06
5.1761184e-06
5.1454322e-06
4.842601e-06
4.8377822e-06
4.8068693e-06
4.8873586e-06
4.9972985e-06
5.1662009e-06
5.3742902e-06
5.6140967e-06
5.9069472e-06
6.2465897e-06
6.6344261e-06
7.0742478e-06
7.570549e-06
8.1292836e-06
8.7576555e-06
9.4645349e-06
1.0260411e-05
1.1158438e-05
1.2149096e-05
1.3294465e-05
1.4598996e-05
1.6091488e-05
1.7807521e-05
1.979114e-05
2.2096807e-05
2.4791921e-05
2.795998e-05
3.1703873e-05
3.6149419e-05
4.1452362e-05
4.8120435e-05
5.5820777e-05
6.5094018e-05
7.6301988e-05
8.9879023e-05
0.00010634058
0.0001263206
0.0001505902
0.00018167967
0.00021780784
0.00026174267
0.00031516426
0.00038373629
0.0004632876
0.00056000716
0.00067758675
0.00082053496
0.00099434979
0.0012057303
0.0012063911
0.0012045022
0.0012025535
0.0012005351
0.0011984362
0.0011962442
0.0011939452
0.0011915231
0.0011889589
0.0011863754
0.0011841429
0.0011822176
0.0011805607
0.0011791422
0.0011779442
0.0011769395
0.0011761085
0.0011755312
0.0011751596
0.0011745764
0.0011745864
0.0011759439
1.0598188e-06
6.4586111e-06
7.2180075e-06
5.2287199e-06
7.1395274e-06
5.1279322e-06
4.966997e-06
4.3008667e-06
4.268218e-06
4.0859372e-06
4.1073516e-06
4.1326869e-06
4.2395391e-06
4.3801583e-06
4.5586583e-06
4.7818105e-06
5.0485498e-06
5.357097e-06
5.709849e-06
6.1092244e-06
6.5592621e-06
7.0648008e-06
7.6319081e-06
8.2678442e-06
8.9689281e-06
9.7666221e-06
1.0664631e-05
1.1678444e-05
1.2827068e-05
1.4133911e-05
1.5627901e-05
1.7344852e-05
1.9329144e-05
2.163571e-05
2.433267e-05
2.7504465e-05
3.1254839e-05
3.5710945e-05
4.1031571e-05
4.7412283e-05
5.5082038e-05
6.4790946e-05
7.6055398e-05
8.9705216e-05
0.00010625685
0.00012634842
0.00015075429
0.00018041638
0.00021840388
0.00026257832
0.00031628311
0.00038157903
0.00046528373
0.00056248795
0.00068064256
0.00082427937
0.00099892736
0.001207219
0.0012053747
0.0012034835
0.0012015374
0.0011995271
0.0011974425
0.0011952725
0.0011930044
0.0011906243
0.0011881163
0.0011856685
0.0011835565
0.001181739
0.00118018
0.0011788519
0.0011777336
0.0011767923
0.0011760193
0.0011754849
0.0011750908
0.0011745404
0.0011746583
0.0011758007
1.064592e-06
6.6355835e-06
6.4743325e-06
6.0144151e-06
6.423776e-06
3.9534014e-06
4.0252206e-06
3.5607263e-06
3.5410026e-06
3.4523804e-06
3.5005414e-06
3.5709649e-06
3.7024974e-06
3.8579208e-06
4.062816e-06
4.3060061e-06
4.5889384e-06
4.9117925e-06
5.2772393e-06
5.6883542e-06
6.1493819e-06
6.6653726e-06
7.2350678e-06
7.8778047e-06
8.5971534e-06
9.4035124e-06
1.0309535e-05
1.1330709e-05
1.2486082e-05
1.3799178e-05
1.5299147e-05
1.7022151e-05
1.9013027e-05
2.1327357e-05
2.4034226e-05
2.7219123e-05
3.0986613e-05
3.5465657e-05
4.0818367e-05
4.7241037e-05
5.4961963e-05
6.4268975e-05
7.6097388e-05
8.9852795e-05
0.00010653391
0.00012678334
0.00015137968
0.00018127023
0.00021958466
0.00026409088
0.00031818929
0.00038395223
0.00046833888
0.0005662269
0.00068520119
0.00082982721
0.0010056783
0.0012061725
0.0012043286
0.001202442
0.001200505
0.0011985093
0.0011964456
0.0011943037
0.0011920724
0.0011897393
0.0011872906
0.0011849761
0.001182982
0.0011812689
0.0011798034
0.0011785604
0.0011775162
0.001176637
0.0011759233
0.0011754267
0.0011750197
0.0011745117
0.0011746819
0.0011756217
1.0121684e-06
6.7904331e-06
5.6874696e-06
4.7692813e-06
4.335041e-06
3.2602067e-06
3.2260317e-06
2.9564349e-06
2.9465015e-06
2.929539e-06
3.0044489e-06
3.1105455e-06
3.2551864e-06
3.4406088e-06
3.6650658e-06
3.9253032e-06
4.2228829e-06
4.5592001e-06
4.9372082e-06
5.3603849e-06
5.8331096e-06
6.3553904e-06
6.9416702e-06
7.5956036e-06
8.3257599e-06
9.1424979e-06
1.0058442e-05
1.1089091e-05
1.2253574e-05
1.3575591e-05
1.5084585e-05
1.6817139e-05
1.8818647e-05
2.1145524e-05
2.3867956e-05
2.7072315e-05
3.0864142e-05
3.537539e-05
4.0771665e-05
4.7247111e-05
5.502904e-05
6.4891795e-05
7.634708e-05
9.0228144e-05
0.00010706199
0.00012749635
0.00015231542
0.00018247297
0.00022112547
0.00026601328
0.00032056626
0.00038687114
0.00047198377
0.00057066171
0.00069058776
0.00083636776
0.0010136275
0.0012050975
0.0012032605
0.0012013847
0.001199463
0.001197488
0.0011954512
0.0011933435
0.0011911547
0.0011888738
0.0011864886
0.0011843029
0.0011824224
0.0011808094
0.0011794325
0.0011782681
0.0011772906
0.0011764693
0.001175812
0.0011753481
0.0011749317
0.0011744538
0.0011746545
0.0011753901
7.8538548e-07
7.1109401e-06
4.5793431e-06
3.1695058e-06
3.274993e-06
2.6491524e-06
2.598707e-06
2.4516707e-06
2.4673546e-06
2.5025554e-06
2.6044226e-06
2.7327321e-06
2.904677e-06
3.1110174e-06
3.3522666e-06
3.627544e-06
3.938744e-06
4.288011e-06
4.6785126e-06
5.1139498e-06
5.5958234e-06
6.1339071e-06
6.732275e-06
7.3980472e-06
8.1397383e-06
8.9676617e-06
9.8944251e-06
1.0935559e-05
1.2110303e-05
1.3442579e-05
1.4962169e-05
1.6706109e-05
1.8720442e-05
2.1062552e-05
2.3803599e-05
2.7030551e-05
3.0850556e-05
3.5399631e-05
4.0845186e-05
4.7375834e-05
5.5603721e-05
6.5154508e-05
7.6718525e-05
9.0728624e-05
0.00010771944
0.00012834282
0.00015338966
0.00018381976
0.000222773
0.00026804307
0.0003230523
0.00038990261
0.00047568499
0.00057515229
0.00069603308
0.0008429753
0.0010216591
0.0012040036
0.0012021796
0.0012003202
0.0011984193
0.0011964701
0.0011944654
0.001192397
0.0011902559
0.0011880323
0.0011857151
0.0011836512
0.0011818784
0.0011803602
0.0011790671
0.0011779753
0.0011770576
0.0011762888
0.0011756803
0.0011752384
0.0011748177
0.0011743846
0.0011745794
0.0011750972
6.0945534e-07
3.6516612e-06
3.6321011e-06
2.5869857e-06
2.526626e-06
2.1440804e-06
2.105875e-06
2.0432918e-06
2.0879902e-06
2.1635927e-06
2.2900083e-06
2.4428385e-06
2.6347025e-06
2.858219e-06
3.1141076e-06
3.4029518e-06
3.7269525e-06
4.088683e-06
4.4914243e-06
4.9389591e-06
5.4357152e-06
5.9841447e-06
6.5944769e-06
7.2719686e-06
8.0250827e-06
8.8640972e-06
9.8016204e-06
1.0853236e-05
1.2038316e-05
1.3381014e-05
1.4911449e-05
1.6667124e-05
1.8694806e-05
2.1052827e-05
2.3812974e-05
2.7062799e-05
3.0911897e-05
3.5691969e-05
4.1224873e-05
4.7854514e-05
5.5825779e-05
6.545818e-05
7.711967e-05
9.1245664e-05
0.00010837715
0.00012916869
0.00015441799
0.00018671409
0.0002242482
0.00026984478
0.00032524357
0.00039256041
0.00047883859
0.00057897092
0.0007006594
0.0008485897
0.0010284911
0.0012029022
0.0012010965
0.0011992585
0.0011973829
0.0011954637
0.0011934947
0.0011914691
0.0011893795
0.0011872176
0.0011849739
0.0011830219
0.0011813483
0.0011799181
0.0011787029
0.001177678
0.0011768162
0.0011760971
0.0011755311
0.0011751055
0.0011746932
0.0011743184
0.0011744793
0.0011748216
4.8974234e-07
2.5601415e-06
2.794825e-06
2.0414818e-06
1.9647622e-06
1.7427867e-06
1.7254732e-06
1.723023e-06
1.7955533e-06
1.9028142e-06
2.050623e-06
2.2253309e-06
2.4335617e-06
2.6715815e-06
2.9404852e-06
3.2416927e-06
3.5775955e-06
3.950975e-06
4.3651487e-06
4.8239085e-06
5.3316328e-06
5.8933993e-06
6.5151698e-06
7.2040293e-06
7.9685052e-06
8.8189842e-06
9.7682389e-06
1.0832094e-05
1.2030258e-05
1.3387323e-05
1.493394e-05
1.6708326e-05
1.8758266e-05
2.1143093e-05
2.3935249e-05
2.7224023e-05
3.1123155e-05
3.5773091e-05
4.1332487e-05
4.7990736e-05
5.600557e-05
6.5697015e-05
7.7427736e-05
9.1636412e-05
0.00010886548
0.00013086645
0.00015643647
0.00018748187
0.00022518485
0.00027098094
0.00032661619
0.00039793772
0.00048067056
0.00058119155
0.00070335785
0.00085188148
0.0010325269
0.0012018048
0.0012000224
0.0011982104
0.0011963638
0.0011944777
0.0011925466
0.0011905649
0.0011885268
0.001186426
0.0011842671
0.0011824146
0.0011808294
0.0011794778
0.0011783321
0.0011773672
0.0011765565
0.0011758838
0.0011753548
0.0011749433
0.0011745485
0.001174231
0.0011743485
0.0011745416
3.8343444e-07
1.9999042e-06
2.0957444e-06
1.621418e-06
1.5402456e-06
1.4250192e-06
1.43154e-06
1.473512e-06
1.5710977e-06
1.703027e-06
1.8684269e-06
2.0608411e-06
2.2820167e-06
2.5317253e-06
2.8113716e-06
3.1228149e-06
3.4685337e-06
3.8513953e-06
4.274723e-06
4.742305e-06
5.2584833e-06
5.8282869e-06
6.4576208e-06
7.1535095e-06
7.9244226e-06
8.7806924e-06
9.7350534e-06
1.0803324e-05
1.2005244e-05
1.3365453e-05
1.4914696e-05
1.6691459e-05
1.8743867e-05
2.1131154e-05
2.3925712e-05
2.7218915e-05
3.112675e-05
3.5785356e-05
4.1346969e-05
4.8010571e-05
5.6043859e-05
6.6240201e-05
7.8080497e-05
9.2416963e-05
0.00010979351
0.00013087029
0.00015644885
0.00018750261
0.0002252143
0.00027101746
0.00032963583
0.00039771162
0.00048040961
0.00058089504
0.00070303016
0.00085153542
0.0010321874
0.0012007259
0.0011989715
0.0011971896
0.0011953758
0.0011935254
0.0011916337
0.0011896957
0.0011877063
0.0011856601
0.0011835967
0.001181829
0.0011803191
0.0011790346
0.0011779482
0.0011770343
0.0011762681
0.0011756363
0.0011751382
0.0011747402
0.0011743692
0.0011740987
0.0011741687
0.0011742391
2.6157949e-07
1.5638804e-06
1.5408758e-06
1.3041091e-06
1.2278609e-06
1.1840265e-06
1.2168546e-06
1.293918e-06
1.4147888e-06
1.5674852e-06
1.7487685e-06
1.9561377e-06
2.1898891e-06
2.4509791e-06
2.7411791e-06
3.0621651e-06
3.4173117e-06
3.8091936e-06
4.2411744e-06
4.7170663e-06
5.2411718e-06
5.8184844e-06
6.454867e-06
7.1572831e-06
7.9341433e-06
8.7957111e-06
9.754662e-06
1.0826768e-05
1.2031723e-05
1.3394121e-05
1.4944747e-05
1.672225e-05
1.8774608e-05
2.1160322e-05
2.4041217e-05
2.7354892e-05
3.1287538e-05
3.5967785e-05
4.1549177e-05
4.8245087e-05
5.6322641e-05
6.6079181e-05
7.7874396e-05
9.2155758e-05
0.00010946195
0.00013044981
0.00015591532
0.00018849324
0.00022629875
0.00027219592
0.00032792864
0.00039561916
0.00047785241
0.00057778006
0.00069924948
0.00084696418
0.0010266822
0.0011996744
0.0011979527
0.0011962053
0.0011944283
0.0011926175
0.0011907685
0.001188877
0.0011869383
0.0011849476
0.0011829609
0.0011812612
0.0011798117
0.0011785809
0.0011775415
0.0011766683
0.0011759383
0.0011753393
0.0011748646
0.0011744788
0.0011741328
0.0011738973
0.0011739173
0.0011738895
2.8728654e-07
1.2650383e-06
1.1271237e-06
1.0537197e-06
1.0093513e-06
1.0088587e-06
1.0634843e-06
1.1629143e-06
1.2981456e-06
1.4618588e-06
1.650708e-06
1.8638523e-06
2.1018878e-06
2.3661941e-06
2.6586514e-06
2.9815341e-06
3.3374849e-06
3.7295249e-06
4.1610346e-06
4.6357083e-06
5.1573462e-06
5.7310486e-06
6.3626604e-06
7.0591285e-06
7.8288069e-06
8.6818899e-06
9.6309618e-06
1.0691677e-05
1.1883562e-05
1.3231029e-05
1.4764748e-05
1.6523094e-05
1.8553164e-05
2.0912651e-05
2.3675206e-05
2.6934599e-05
3.0799111e-05
3.538975e-05
4.0868017e-05
4.745269e-05
5.5394553e-05
6.498063e-05
7.7162635e-05
9.1301297e-05
0.00010843103
0.00012920088
0.00015439865
0.00018498144
0.00022211225
0.00026720528
0.00032198118
0.00038853534
0.00046942144
0.00056775485
0.00068734055
0.00083283243
0.0010099304
0.0011986597
0.0011969769
0.0011952695
0.0011935342
0.0011917674
0.0011899651
0.0011881235
0.0011862386
0.0011843063
0.0011823727
0.0011807201
0.0011793126
0.0011781188
0.0011771116
0.0011762659
0.0011755605
0.0011749829
0.0011745213