/*--------------------------------*- C++ -*----------------------------------*\
  =========                 |
  \\      /  F ield         | OpenFOAM: The Open Source CFD Toolbox
   \\    /   O peration     | Website:  https://openfoam.org
    \\  /    A nd           | Version:  6
     \\/     M anipulation  |
\*---------------------------------------------------------------------------*/
FoamFile
{
    version     2.0;
    format      ascii;
    class       volScalarField;
    location    "350";
    object      k;
}
// * * * * * * * * * * * * * * * * * * * * * * * * * * * * * * * * * * * * * //

dimensions      [0 2 -2 0 0 0 0];

internalField   nonuniform List<scalar> 
16000
(
0.11779091
0.031662785
0.022000606
0.017566434
0.015260163
0.01424879
0.013280161
0.012909146
0.012456641
0.012225205
0.011976478
0.011804329
0.011645054
0.011515184
0.011405992
0.01131642
0.011241542
0.011178557
0.011124934
0.011078971
0.011039249
0.011004707
0.010974474
0.010947873
0.010924345
0.010903443
0.010884792
0.010868083
0.010853055
0.010839488
0.010827194
0.010816011
0.010805789
0.010796414
0.010787767
0.010779751
0.010772276
0.010765251
0.010758591
0.010752214
0.010746042
0.010739997
0.010734007
0.010728
0.010721906
0.010715656
0.010709178
0.0107024
0.01069525
0.010687653
0.010679535
0.010670815
0.010661411
0.010651233
0.010640176
0.010628099
0.010614807
0.01060001
0.010583131
0.010562395
0.010536426
0.010504514
0.010465762
0.010419783
0.010367313
0.010311178
0.010256096
0.010206456
0.01016291
0.010126012
0.010093811
0.010069794
0.010046278
0.010034686
0.01001741
0.010032773
0.010019882
0.010090967
0.010021777
0.010091788
0.10069774
0.032184011
0.021433838
0.017426067
0.015055847
0.014157887
0.013169573
0.012831139
0.012375699
0.012151256
0.01190551
0.011734191
0.011578844
0.011454348
0.011352363
0.011268732
0.011198815
0.011140021
0.011089974
0.011047085
0.011010024
0.0109778
0.010949596
0.010924775
0.010902815
0.010883294
0.010865861
0.010850224
0.010836138
0.010823396
0.010811819
0.010801257
0.010791576
0.010782656
0.010774383
0.010766668
0.010759419
0.010752562
0.010746016
0.010739704
0.010733551
0.010727486
0.010721439
0.010715344
0.010709136
0.010702748
0.010696116
0.01068917
0.010681842
0.010674062
0.010665758
0.010656851
0.010647263
0.010636906
0.010625682
0.010613466
0.010600093
0.010585344
0.01056893
0.010550337
0.010528154
0.010499659
0.010463908
0.010420343
0.01036938
0.010313568
0.010258006
0.010207621
0.010163672
0.010126101
0.010093904
0.01006878
0.010046407
0.010034129
0.010017178
0.010027221
0.010016254
0.010082733
0.010021351
0.010091216
0.087756623
0.032681042
0.02084471
0.017262558
0.014845289
0.014052153
0.013055358
0.012743844
0.01229217
0.012071202
0.011832171
0.011659848
0.011513067
0.011397107
0.011302079
0.011224175
0.011159051
0.011104304
0.011057712
0.011017791
0.0109833
0.010953311
0.010927062
0.010903955
0.010883499
0.0108653
0.010849028
0.01083441
0.010821213
0.010809243
0.010798332
0.010788337
0.010779132
0.010770606
0.010762659
0.010755196
0.01074813
0.010741383
0.010734893
0.010728588
0.010722397
0.010716253
0.01071009
0.010703848
0.010697464
0.01069088
0.010684033
0.010676859
0.010669294
0.010661271
0.010652721
0.01064357
0.01063374
0.010623148
0.010611698
0.010599277
0.010585735
0.010570874
0.010554459
0.010536176
0.010515485
0.01049109
0.010458965
0.010418425
0.010369556
0.010314551
0.010258778
0.010207897
0.010163641
0.010125697
0.010093446
0.010067776
0.010045986
0.010032999
0.010017163
0.010023774
0.010014231
0.010074727
0.010019578
0.010083502
0.078866445
0.032980762
0.020252854
0.017076183
0.01463347
0.01392985
0.012940432
0.012645543
0.012206936
0.011983847
0.011756438
0.01158763
0.011451193
0.011343414
0.01125509
0.011182694
0.011122189
0.011071337
0.011028073
0.010991008
0.010958988
0.010931146
0.010906769
0.010885299
0.010866277
0.010849333
0.010834158
0.010820494
0.010808125
0.010796866
0.01078656
0.010777073
0.010768285
0.010760092
0.010752401
0.010745126
0.010738187
0.010731504
0.01072501
0.010718653
0.010712367
0.010706087
0.010699752
0.010693306
0.010686694
0.010679859
0.010672744
0.010665291
0.010657437
0.010649121
0.010640277
0.010630833
0.010620716
0.010609842
0.010598121
0.010585446
0.01057168
0.010556638
0.010540103
0.010521812
0.010501382
0.010478105
0.010450322
0.010413508
0.010367422
0.010313794
0.010258166
0.010207036
0.010162662
0.010124569
0.010092344
0.010066368
0.010045103
0.010031188
0.010017084
0.010021431
0.010012702
0.010065284
0.01001823
0.010078616
0.071057413
0.03297345
0.01967031
0.016865448
0.014421977
0.013790337
0.012825363
0.012535861
0.012120094
0.011889012
0.011677387
0.011519816
0.011393323
0.011293378
0.011211502
0.011144397
0.011088336
0.011041231
0.011001166
0.010966846
0.010937196
0.01091141
0.010888823
0.010868912
0.010851249
0.010835488
0.010821339
0.010808562
0.010796952
0.010786338
0.010776569
0.010767521
0.010759082
0.010751155
0.010743651
0.010736493
0.010729606
0.010722921
0.010716369
0.010709893
0.010703446
0.010696967
0.010690398
0.010683689
0.010676788
0.010669646
0.010662209
0.010654421
0.010646227
0.010637567
0.010628379
0.010618595
0.010608144
0.010596944
0.010584909
0.010571935
0.010557895
0.010542619
0.0105259
0.010507502
0.010487106
0.010464198
0.010437785
0.010405443
0.010362895
0.010311276
0.010256178
0.010205051
0.010160761
0.010122732
0.010090642
0.010064594
0.010043766
0.010029288
0.010016661
0.010018682
0.010011595
0.010056453
0.010017552
0.010070732
0.064196892
0.032519317
0.019110086
0.016629151
0.014212653
0.013632709
0.012710869
0.012414129
0.012031634
0.011797788
0.011602237
0.011456462
0.011339503
0.011247051
0.011171365
0.011109334
0.01105754
0.011014028
0.010977031
0.010945337
0.010917953
0.010894126
0.010873237
0.0108548
0.010838414
0.010823756
0.010810555
0.010798587
0.010787659
0.010777612
0.010768305
0.010759619
0.010751452
0.010743714
0.010736321
0.010729203
0.010722292
0.010715526
0.010708845
0.010702188
0.01069551
0.010688768
0.010681904
0.010674872
0.010667626
0.010660121
0.010652309
0.010644138
0.010635556
0.010626506
0.010616931
0.010606765
0.010595939
0.010584376
0.010571989
0.010558679
0.010544326
0.010528773
0.010511824
0.010493258
0.010472795
0.010450018
0.010424221
0.010393996
0.010355825
0.010306939
0.010252801
0.010201928
0.010157936
0.010120176
0.010088347
0.010062419
0.010041988
0.010027257
0.010015859
0.010015579
0.01001064
0.010049238
0.010016887
0.010065235
0.058170874
0.031528552
0.018581353
0.016365541
0.01400715
0.013456028
0.012597435
0.012280929
0.011940183
0.011712448
0.011532241
0.011397669
0.011289828
0.011204532
0.011134773
0.011077599
0.011029891
0.010989814
0.010955748
0.010926559
0.010901329
0.010879357
0.010860069
0.010843012
0.010827811
0.010814167
0.010801826
0.010790578
0.010780245
0.010770677
0.010761742
0.010753332
0.01074535
0.010737714
0.010730348
0.010723186
0.010716169
0.01070924
0.010702347
0.01069544
0.010688464
0.010681392
0.01067417
0.010666754
0.010659107
0.010651187
0.010642949
0.010634348
0.010625333
0.010615854
0.010605852
0.010595267
0.010584032
0.010572071
0.010559301
0.010545625
0.010530927
0.010515064
0.010497847
0.01047907
0.010458479
0.010435713
0.010410211
0.01038099
0.010346064
0.010300745
0.010248047
0.010197682
0.010154204
0.010116914
0.010085489
0.010059851
0.010039807
0.010025089
0.010014691
0.010012566
0.01000964
0.010042181
0.010016193
0.010059403
0.052879818
0.030275158
0.018084487
0.016072402
0.01380737
0.013259538
0.012485459
0.01215524
0.011844057
0.011633062
0.011467459
0.011343523
0.011244381
0.01116591
0.011101811
0.011049274
0.011005464
0.010968663
0.010937384
0.010910569
0.010887373
0.010867144
0.01084935
0.010833567
0.01081945
0.010806718
0.010795135
0.010784507
0.010774668
0.010765477
0.010756816
0.010748581
0.010740687
0.010733056
0.010725622
0.010718325
0.010711114
0.010703938
0.010696752
0.010689513
0.010682177
0.010674703
0.010667061
0.010659204
0.010651103
0.010642719
0.010634012
0.010624939
0.010615455
0.010605509
0.010595049
0.010584015
0.010572342
0.010559958
0.01054678
0.010532714
0.01051765
0.01050145
0.010483939
0.010464919
0.010444159
0.01042134
0.010395986
0.010367323
0.010333921
0.010292671
0.010241963
0.010192352
0.010149604
0.010112976
0.010082109
0.01005691
0.010037272
0.010022774
0.010013182
0.010009791
0.010008533
0.010035272
0.010015235
0.010054126
0.048232854
0.029134542
0.017599028
0.015748889
0.013615074
0.013048738
0.012373449
0.012038148
0.011753637
0.011559707
0.011407959
0.011294114
0.011203249
0.011131277
0.011072568
0.011024448
0.010984344
0.01095065
0.010922007
0.01089743
0.010876139
0.010857528
0.010841106
0.010826481
0.010813331
0.010801394
0.010790454
0.010780329
0.010770867
0.01076194
0.010753437
0.010745266
0.010737349
0.010729618
0.010722013
0.010714484
0.010706985
0.010699474
0.010691912
0.010684264
0.010676493
0.010668557
0.010660437
0.010652088
0.010643485
0.010634594
0.010625379
0.0106158
0.010605815
0.010595376
0.010584432
0.010572926
0.010560796
0.010547969
0.010534366
0.010519895
0.010504448
0.010487895
0.010470072
0.01045079
0.010429836
0.010406923
0.010381643
0.010353363
0.010321022
0.010282692
0.01023462
0.010186
0.010144189
0.010108408
0.010078258
0.010053633
0.010034448
0.010020326
0.010011369
0.010007231
0.0100073
0.010028618
0.010014125
0.010048668
0.044143139
0.028081015
0.01713185
0.015394986
0.013430941
0.012851225
0.012259119
0.011929765
0.011670328
0.011492449
0.011353805
0.011249531
0.01116652
0.011100727
0.011047135
0.011003206
0.010966612
0.01093585
0.010909681
0.010887191
0.010867661
0.01085053
0.010835345
0.010821742
0.010809423
0.010798148
0.010787716
0.010777961
0.010768744
0.010759949
0.010751477
0.010743245
0.010735185
0.010727237
0.010719353
0.010711488
0.010703606
0.010695671
0.010687652
0.01067952
0.010671244
0.010662792
0.010654142
0.010645254
0.010636109
0.010626677
0.010616924
0.010606814
0.010596306
0.010585354
0.010573911
0.01056192
0.010549319
0.010536039
0.010522002
0.010507117
0.010491281
0.010474368
0.010456224
0.01043667
0.010415507
0.010392478
0.010367226
0.010339218
0.010307596
0.010270851
0.010226121
0.010178715
0.010138036
0.010103277
0.010073998
0.010050073
0.010031408
0.010017773
0.010009316
0.01000487
0.010005962
0.010022421
0.010012846
0.01004342
0.040536584
0.027092851
0.01668295
0.015009348
0.013253639
0.012667399
0.012139592
0.011830062
0.011594122
0.011431356
0.011305073
0.011209871
0.011134294
0.011074359
0.011025608
0.010985638
0.010952345
0.01092433
0.010900459
0.01087989
0.010861959
0.010846148
0.010832043
0.010819305
0.010807662
0.010796892
0.010786813
0.010777275
0.010768152
0.010759342
0.010750759
0.010742329
0.010733997
0.010725713
0.010717436
0.010709131
0.010700771
0.010692327
0.010683776
0.010675093
0.010666254
0.010657236
0.010648011
0.010638549
0.010628832
0.010618835
0.010608524
0.010597867
0.010586823
0.010575351
0.0105634
0.010550918
0.010537844
0.010524109
0.010509637
0.010494339
0.010478114
0.010460842
0.010442378
0.010422551
0.010401177
0.010378022
0.010352773
0.010324984
0.010293962
0.010258544
0.010216601
0.01017061
0.01013124
0.010097665
0.010069405
0.010046296
0.010028236
0.010015159
0.010007107
0.0100027
0.010004556
0.010016998
0.010011551
0.010037712
0.037348723
0.026146685
0.016254403
0.014597423
0.013081428
0.01249793
0.012021593
0.011739014
0.011525026
0.011376503
0.011261854
0.011175238
0.011106675
0.011052278
0.011008082
0.01097183
0.010941618
0.010916144
0.010894375
0.010875536
0.010859018
0.010844344
0.010831133
0.010819078
0.010807927
0.010797483
0.010787579
0.010778083
0.010768886
0.0107599
0.010751051
0.01074228
0.010733542
0.010724798
0.010716016
0.010707173
0.010698245
0.010689216
0.010680065
0.010670776
0.010661328
0.010651705
0.010641875
0.010631815
0.01062151
0.010610934
0.010600059
0.01058885
0.01057727
0.010565277
0.010552822
0.010539854
0.010526312
0.010512129
0.01049723
0.010481527
0.010464923
0.010447303
0.010428527
0.010408436
0.010386857
0.010363577
0.010338322
0.010310714
0.010280198
0.010245883
0.010206221
0.010161823
0.010123915
0.010091666
0.010064561
0.010042378
0.010025014
0.010012538
0.010004834
0.010000711
0.010003103
0.010012396
0.010010431
0.010033008
0.034523374
0.025218062
0.015847486
0.014221614
0.012911509
0.012343026
0.011914102
0.011656581
0.01146306
0.011327966
0.011224241
0.011145739
0.011083773
0.011034586
0.010994649
0.010961854
0.010934478
0.010911317
0.010891429
0.010874102
0.010858779
0.010845024
0.010832491
0.010820903
0.010810033
0.010799706
0.010789777
0.010780131
0.010770675
0.01076134
0.010752065
0.010742806
0.010733529
0.010724206
0.010714817
0.010705344
0.010695774
0.010686095
0.010676293
0.010666356
0.010656268
0.010646015
0.010635567
0.010624902
0.010614004
0.010602853
0.010591418
0.010579665
0.010567559
0.010555057
0.010542112
0.010528671
0.010514676
0.01050006
0.010484749
0.010468659
0.010451694
0.010433742
0.010414673
0.010394335
0.010372566
0.010349174
0.010323913
0.010296466
0.010266383
0.010232987
0.010195167
0.010152511
0.010116194
0.010085391
0.010059554
0.010038399
0.010021825
0.010009972
0.010002588
0.0099988887
0.010001607
0.010008536
0.010009367
0.010028998
0.032012357
0.024281684
0.015461349
0.013879774
0.012739941
0.012202277
0.011816921
0.011582757
0.01140828
0.011285845
0.011192352
0.011121493
0.011065696
0.011021378
0.01098539
0.010955767
0.010930952
0.010909838
0.010891567
0.01087549
0.010861103
0.01084801
0.010835901
0.01082453
0.0108137
0.010803257
0.010793081
0.010783076
0.01077317
0.010763309
0.01075345
0.010743562
0.010733623
0.010723617
0.010713533
0.010703359
0.01069309
0.010682717
0.010672234
0.010661628
0.010650886
0.010639999
0.010628937
0.010617673
0.010606196
0.010594484
0.010582507
0.010570231
0.01055762
0.010544631
0.010531217
0.010517328
0.010502903
0.010487878
0.010472179
0.010455725
0.010438423
0.010420166
0.010400829
0.010380269
0.010358336
0.010334851
0.010309599
0.010282306
0.010252608
0.010219985
0.010183643
0.010142849
0.010108222
0.010078956
0.010054478
0.010034441
0.010018744
0.010007526
0.010000454
0.0099972238
0.010000066
0.010005268
0.010008353
0.010025648
0.029773689
0.023309618
0.015094906
0.01357021
0.012561085
0.012075268
0.011729881
0.011517538
0.011360755
0.01125024
0.011166299
0.01110261
0.01105256
0.011012743
0.010980354
0.010953571
0.010930995
0.010911609
0.010894641
0.010879503
0.010865744
0.01085301
0.010841031
0.010829594
0.010818534
0.010807724
0.010797067
0.010786492
0.010775945
0.010765391
0.010754802
0.010744163
0.010733462
0.010722692
0.010711849
0.010700929
0.01068993
0.010678847
0.010667673
0.010656401
0.010645017
0.010633511
0.010621854
0.010610015
0.010597987
0.010585743
0.010573255
0.010560487
0.010547402
0.010533958
0.010520108
0.0105058
0.010490976
0.010475573
0.010459518
0.010442731
0.010425124
0.010406593
0.010387021
0.010366273
0.010344207
0.010320661
0.010295441
0.01026831
0.010238968
0.010207014
0.01017187
0.010133023
0.010100153
0.010072484
0.010049426
0.010030583
0.010015835
0.010005261
0.0099985136
0.0099957253
0.0099984837
0.010002451
0.010007235
0.010022833
0.0277715
0.022271633
0.014746374
0.013292155
0.012400121
0.011961618
0.011652872
0.01146094
0.011320577
0.011221255
0.011146223
0.011089212
0.011044441
0.011008706
0.010979508
0.010955175
0.010934448
0.010916409
0.010900367
0.010885798
0.010872306
0.010859585
0.010847407
0.010835597
0.010824022
0.010812586
0.01080122
0.010789874
0.010778516
0.010767125
0.010755692
0.01074421
0.010732678
0.010721097
0.010709466
0.010697786
0.010686056
0.010674272
0.010662429
0.010650516
0.010638521
0.010626435
0.010614221
0.010601847
0.010589307
0.010576574
0.010563616
0.010550398
0.010536881
0.010523021
0.010508773
0.010494085
0.0104789
0.010463155
0.01044678
0.010429699
0.010411823
0.010393057
0.010373289
0.010352392
0.010330234
0.010306665
0.01028151
0.010254562
0.010225571
0.010194216
0.010160072
0.010123225
0.010092147
0.010066101
0.010044492
0.010026891
0.010013147
0.010003233
0.0099968407
0.0099944247
0.0099968993
0.0099999862
0.010005878
0.010020366
0.025975643
0.021135555
0.014412846
0.013043433
0.012256221
0.011860985
0.011585833
0.011412994
0.011287843
0.011199034
0.011132236
0.011081355
0.011041331
0.011009186
0.010982693
0.010960334
0.010940991
0.01092384
0.010908278
0.010893849
0.010880216
0.01086713
0.010854404
0.010841905
0.010829538
0.010817235
0.010804954
0.010792669
0.010780366
0.010768038
0.010755687
0.010743316
0.010730929
0.010718529
0.010706121
0.010693704
0.010681275
0.010668832
0.010656364
0.01064386
0.010631308
0.010618694
0.010605975
0.010593121
0.010580123
0.010566952
0.010553575
0.010539956
0.010526054
0.010511826
0.010497226
0.010482202
0.010466698
0.010450654
0.010434001
0.010416666
0.010398565
0.010379607
0.010359686
0.010338684
0.01031648
0.010292933
0.010267886
0.010241155
0.010212527
0.01018174
0.010148469
0.010113645
0.010084362
0.010059929
0.010039763
0.010023424
0.010010711
0.010001477
0.0099954849
0.0099933661
0.0099954187
0.0099978458
0.010004444
0.010018077
0.02436167
0.019868598
0.014089491
0.012822286
0.012128703
0.011773181
0.011528789
0.011373725
0.011262698
0.011183665
0.011124366
0.011078985
0.011043081
0.011013927
0.01098955
0.01096859
0.010950068
0.010933268
0.010917674
0.010902911
0.010888706
0.010874863
0.010861248
0.010847768
0.010834363
0.010820996
0.010807649
0.010794314
0.01078099
0.010767683
0.010754398
0.010741144
0.010727927
0.010714749
0.010701614
0.010688517
0.010675455
0.01066242
0.010649398
0.010636374
0.010623334
0.010610261
0.0105971
0.01058383
0.010570437
0.010556889
0.01054315
0.010529185
0.010514952
0.010500407
0.010485504
0.010470192
0.010454417
0.010438119
0.010421234
0.010403691
0.010385411
0.010366307
0.010346282
0.010325225
0.010303024
0.010279551
0.010254661
0.010228191
0.010199955
0.010169735
0.010137271
0.010104462
0.010076951
0.010054092
0.010035326
0.010020227
0.01000854
0.010000005
0.009994458
0.0099925632
0.0099941504
0.0099962097
0.010003128
0.010015835
0.022911379
0.018660168
0.013766801
0.01262738
0.012017068
0.011697898
0.011481808
0.011343332
0.011245265
0.011175171
0.011122516
0.011081859
0.011049309
0.011022404
0.010999422
0.010979173
0.01096082
0.010943769
0.010927598
0.010912014
0.010896812
0.010881856
0.010867059
0.010852367
0.010837753
0.010823203
0.010808716
0.010794296
0.010779952
0.01076569
0.01075152
0.010737447
0.010723474
0.010709602
0.010695826
0.010682141
0.010668537
0.010655
0.010641512
0.010628054
0.01061461
0.010601152
0.010587624
0.01057401
0.01056029
0.010546429
0.010532392
0.01051814
0.010503632
0.010488825
0.010473672
0.010458123
0.010442127
0.010425625
0.010408556
0.010390853
0.010372442
0.010353242
0.010333162
0.010312102
0.010289958
0.010266613
0.010241935
0.010215777
0.010187976
0.010158346
0.010126671
0.010095839
0.010070052
0.010048701
0.010031265
0.010017342
0.010006633
0.0099988004
0.0099937349
0.0099920002
0.0099930982
0.0099949013
0.010001805
0.010013515
0.021607257
0.017631142
0.013460292
0.012457888
0.011921072
0.011635029
0.011444572
0.011321936
0.011235529
0.011173333
0.01112628
0.011089373
0.011059228
0.011033676
0.011011241
0.010990926
0.010972045
0.010954124
0.010936846
0.01092
0.010903449
0.010887111
0.01087094
0.010854913
0.010839025
0.010823276
0.010807674
0.010792226
0.01077694
0.010761822
0.010746873
0.010732096
0.010717486
0.010703036
0.010688738
0.010674577
0.010660539
0.010646605
0.010632749
0.010618951
0.010605194
0.010591435
0.010577618
0.010563735
0.010549758
0.010535651
0.010521379
0.010506901
0.010492177
0.010477164
0.010461815
0.010446084
0.010429917
0.010413262
0.01039606
0.010378246
0.010359754
0.010340508
0.010320424
0.010299413
0.01027738
0.010254217
0.010229808
0.01020402
0.010176706
0.010147704
0.010116833
0.010087911
0.010063779
0.010043858
0.010027662
0.010014815
0.010004994
0.0099978319
0.00999325
0.0099916346
0.0099923156
0.0099939315
0.010000343
0.010010987
0.02043154
0.016761869
0.013190045
0.01231203
0.011839566
0.0115842
0.011417551
0.011309277
0.011233028
0.011177424
0.011134695
0.011100352
0.011071494
0.011046271
0.011023475
0.011002299
0.010982216
0.010962879
0.010944067
0.010925646
0.010907536
0.010889694
0.010872102
0.010854755
0.010837656
0.010820807
0.010804215
0.01078788
0.010771804
0.010755984
0.010740414
0.010725085
0.010709986
0.010695101
0.010680414
0.010665905
0.010651552
0.01063733
0.01062321
0.010609172
0.010595192
0.010581213
0.010567188
0.010553109
0.010538945
0.010524661
0.010510217
0.010495575
0.010480694
0.010465531
0.010450043
0.010434181
0.010417898
0.010401141
0.010383856
0.010365983
0.010347459
0.010328217
0.01030818
0.010287268
0.010265396
0.01024247
0.010218384
0.010193021
0.010166251
0.010137927
0.010107893
0.010080784
0.010058218
0.01003964
0.01002459
0.010012708
0.010003658
0.0099970904
0.0099929527
0.0099914292
0.0099917014
0.0099929228
0.0099986991
0.010008015
0.019365357
0.016005125
0.012951116
0.012183646
0.011771128
0.011545654
0.011400214
0.011304543
0.011236632
0.011186015
0.011146085
0.011112935
0.01108414
0.011058204
0.011034176
0.011011449
0.010989643
0.010968524
0.010947953
0.010927849
0.010908167
0.010888885
0.010869993
0.010851487
0.010833363
0.010815617
0.010798242
0.010781229
0.010764566
0.01074824
0.010732233
0.010716528
0.010701103
0.010685934
0.010670999
0.010656271
0.010641723
0.010627323
0.010613043
0.010598862
0.010584746
0.010570623
0.010556466
0.010542265
0.010527984
0.010513587
0.010499035
0.010484289
0.010469309
0.010454054
0.010438481
0.010422544
0.010406197
0.010389391
0.010372075
0.010354193
0.010335689
0.010316499
0.010296557
0.01027579
0.010254126
0.010231482
0.010207766
0.010182878
0.010156703
0.010129112
0.01009996
0.010074535
0.010053425
0.010036093
0.010022098
0.010011083
0.0100027
0.009996635
0.0099928511
0.009991352
0.0099912698
0.009992177
0.0099970847
0.010004666
0.018396922
0.01533475
0.012743177
0.012072405
0.011716717
0.011518713
0.011391488
0.011306134
0.011244344
0.011196785
0.011157945
0.01112455
0.011094661
0.011067117
0.01104121
0.011016505
0.010992743
0.010969767
0.010947483
0.010925835
0.010904788
0.010884315
0.010864396
0.010845013
0.010826146
0.010807776
0.01078988
0.010772434
0.010755414
0.010738793
0.010722545
0.010706641
0.010691052
0.010675748
0.0106607
0.010645877
0.010631246
0.010616773
0.010602432
0.010588199
0.010574018
0.010559828
0.010545617
0.010531364
0.010517032
0.010502585
0.010487986
0.010473196
0.010458176
0.010442885
0.010427282
0.010411325
0.010394968
0.010378166
0.010360871
0.010343032
0.010324596
0.010305507
0.010285705
0.010265126
0.010243707
0.010221379
0.010198065
0.010173683
0.010148138
0.010121325
0.010093122
0.010069219
0.010049424
0.01003322
0.010020181
0.010009947
0.010002164
0.0099965517
0.0099930586
0.009991548
0.0099912365
0.0099920384
0.0099961771
0.010002332
0.017517725
0.014709395
0.012564696
0.011981096
0.011675336
0.011501371
0.011388763
0.011310943
0.011252783
0.011206264
0.011166901
0.011132066
0.011100264
0.011070618
0.011042607
0.011015915
0.010990346
0.010965773
0.01094211
0.010919292
0.010897268
0.010875991
0.01085542
0.010835516
0.010816238
0.010797549
0.01077941
0.010761784
0.010744635
0.010727926
0.010711621
0.010695686
0.010680084
0.010664782
0.010649747
0.010634942
0.010620332
0.010605881
0.010591571
0.010577364
0.01056319
0.010549008
0.010534812
0.010520573
0.010506254
0.01049182
0.010477234
0.010462457
0.010447454
0.010432184
0.010416608
0.010400685
0.010384374
0.010367631
0.010350411
0.010332667
0.010314351
0.010295411
0.010275793
0.010255442
0.010234301
0.010212312
0.010189411
0.010165532
0.010140602
0.010114546
0.010087454
0.010064876
0.010046226
0.010031005
0.010018798
0.010009239
0.010001983
0.0099967773
0.0099935342
0.0099920186
0.009991581
0.0099923472
0.0099958416
0.010000776
0.01672901
0.014164352
0.012414499
0.011907353
0.011644011
0.011489695
0.011387633
0.011314324
0.011257411
0.011210247
0.01116926
0.011132387
0.011098474
0.011066828
0.011037027
0.011008794
0.01098194
0.010956323
0.010931834
0.010908379
0.010885877
0.010864257
0.010843453
0.010823403
0.010804051
0.010785342
0.010767228
0.010749659
0.010732591
0.010715981
0.010699788
0.01068397
0.01066849
0.010653312
0.010638399
0.010623712
0.010609214
0.010594877
0.010580678
0.010566564
0.010552463
0.01053836
0.010524247
0.010510085
0.010495841
0.010481479
0.010466964
0.010452259
0.010437329
0.010422137
0.010406643
0.010390811
0.010374601
0.010357972
0.010340881
0.010323286
0.010305142
0.010286402
0.010267017
0.010246936
0.010226109
0.010204484
0.010182005
0.010158613
0.010134248
0.010108843
0.010083019
0.010061542
0.010043843
0.010029438
0.010017917
0.010008913
0.010002094
0.0099972252
0.0099941773
0.0099926637
0.0099921818
0.0099929446
0.0099959112
0.0099998583
0.016032932
0.013715795
0.012290302
0.011847506
0.011617828
0.01147799
0.011382395
0.011310963
0.011253665
0.011205083
0.011162325
0.011123708
0.011088254
0.011055333
0.01102453
0.010995546
0.010968158
0.010942191
0.010917503
0.010893969
0.010871484
0.010849953
0.010829293
0.010809426
0.010790285
0.010771807
0.010753934
0.010736613
0.010719793
0.010703429
0.010687477
0.010671894
0.010656641
0.010641682
0.010626977
0.010612487
0.010598179
0.010584031
0.010570007
0.010556035
0.010542072
0.010528117
0.010514143
0.010500117
0.010486004
0.010471771
0.010457383
0.010442806
0.010428005
0.010412945
0.01039759
0.010381903
0.010365849
0.010349387
0.010332481
0.010315089
0.010297171
0.010278683
0.010259581
0.010239819
0.010219353
0.010198135
0.010176116
0.010153245
0.010129466
0.010104722
0.010079877
0.010059247
0.010042279
0.010028497
0.010017496
0.010008911
0.010002423
0.0099978039
0.0099948849
0.0099933619
0.0099928599
0.0099935874
0.0099960768
0.0099992084
0.015383469
0.01332876
0.012180166
0.011792702
0.011588267
0.011458263
0.011366249
0.011295401
0.0112374
0.011187845
0.0111442
0.011104932
0.011069081
0.011035996
0.011005217
0.010976404
0.010949294
0.010923683
0.010899403
0.010876316
0.010854303
0.010833259
0.010813087
0.010793705
0.010775039
0.010757022
0.010739594
0.0107227
0.01070629
0.010690318
0.010674739
0.010659511
0.010644597
0.01062996
0.010615559
0.010601356
0.010587329
0.010573452
0.010559671
0.010545915
0.010532172
0.010518437
0.010504676
0.010490857
0.010476945
0.01046291
0.010448718
0.010434335
0.01041973
0.010404868
0.010389716
0.010374239
0.010358403
0.010342171
0.010325508
0.010308377
0.010290738
0.010272554
0.010253784
0.010234387
0.010214322
0.01019355
0.010172026
0.010149707
0.010126547
0.010102498
0.010078275
0.010058181
0.010041673
0.01002828
0.010017596
0.010009259
0.010002963
0.009998478
0.0099956015
0.0099940378
0.0099935244
0.0099942411
0.0099963993
0.0099990023
0.014469858
0.012794318
0.011952267
0.011646751
0.011483653
0.011378165
0.011301223
0.011240521
0.011189935
0.011145979
0.011106757
0.011071102
0.011038262
0.011007718
0.010979097
0.010952121
0.010926574
0.010902284
0.010879112
0.010856943
0.010835797
0.010815576
0.010796183
0.010777534
0.010759554
0.010742179
0.01072535
0.010709015
0.010693126
0.010677638
0.010662511
0.010647706
0.010633189
0.010618923
0.010604871
0.010591006
0.010577308
0.010563739
0.010550224
0.010536732
0.010523263
0.010509792
0.010496288
0.01048272
0.010469055
0.010455264
0.010441314
0.010427174
0.010412812
0.010398198
0.010383297
0.010368078
0.010352507
0.010336551
0.010320176
0.010303345
0.010286024
0.010268177
0.010249764
0.010230748
0.010211093
0.010190759
0.010169709
0.010147901
0.010125296
0.010101851
0.01007799
0.010058167
0.010041887
0.010028675
0.010018122
0.01000987
0.010003617
0.0099991221
0.0099961589
0.009994467
0.0099938683
0.009994423
0.0099960738
0.0099981246
0.014024864
0.012596092
0.011835145
0.011559775
0.011410997
0.011313945
0.011242787
0.011186359
0.011139073
0.011097938
0.011061261
0.011028
0.010997472
0.010969202
0.010942839
0.010918114
0.010894814
0.010872762
0.010851812
0.010831838
0.010812621
0.010794083
0.010776164
0.010758814
0.010741984
0.010725631
0.010709714
0.010694195
0.010679038
0.010664211
0.010649679
0.010635415
0.010621387
0.010607564
0.010593927
0.010580477
0.010567184
0.010553989
0.010540836
0.010527715
0.010514617
0.010501509
0.010488362
0.010475146
0.010461829
0.010448383
0.010434776
0.01042098
0.010406963
0.010392694
0.010378144
0.010363279
0.01034807
0.010332483
0.010316486
0.010300045
0.010283126
0.010265694
0.010247714
0.010229148
0.010209962
0.010190119
0.010169583
0.010148317
0.01012628
0.010103434
0.010079738
0.010059655
0.010043178
0.010029815
0.010019139
0.010010784
0.010004437
0.0099998381
0.0099967464
0.0099949329
0.0099942445
0.0099946255
0.0099959202
0.0099977484
0.013631259
0.012406529
0.011685895
0.011441921
0.011311012
0.011227525
0.011166516
0.011118226
0.011077572
0.011041976
0.011009975
0.010980701
0.010953594
0.010928267
0.010904444
0.010881917
0.010860522
0.01084013
0.010820634
0.010801944
0.010783981
0.010766685
0.01075
0.010733876
0.010718263
0.010703119
0.010688401
0.010674071
0.01066009
0.010646423
0.010633036
0.010619897
0.010606972
0.010594227
0.010581628
0.010569137
0.010556718
0.010544311
0.0105319
0.010519491
0.010507059
0.010494579
0.010482026
0.010469375
0.010456599
0.010443672
0.010430567
0.010417257
0.010403715
0.010389912
0.01037582
0.010361409
0.01034665
0.010331513
0.010315966
0.010299978
0.010283517
0.010266549
0.01024904
0.010230955
0.010212259
0.010192917
0.010172895
0.010152155
0.010130659
0.010108371
0.010085248
0.010064362
0.010047196
0.010033241
0.010022052
0.010013251
0.010006513
0.010001558
0.0099981374
0.0099960372
0.0099950925
0.0099951712
0.0099961097
0.0099977319
57.779392
105.34204
61.55176
41.225555
28.386826
19.737202
13.918136
9.9536052
7.1832354
5.2040046
3.7673792
2.7252248
1.9627183
1.4108418
1.0048698
0.71225803
0.49992254
0.34865432
0.24226443
0.16788806
0.11632396
0.080946624
0.056962989
0.04090555
0.030300861
0.023390374
0.018951299
0.016136119
0.014371729
0.01327618
0.012599072
0.012179366
0.011915575
0.011745021
0.011629798
0.01154744
0.011484885
0.011434647
0.01139244
0.011355968
0.011323734
0.011294832
0.011268863
0.011245231
0.01122357
0.011203608
0.011184979
0.011166679
0.011143068
0.011106344
0.011056703
0.010999298
0.010938956
0.010879864
0.010825761
0.010778754
0.010737827
0.010701598
0.010668052
0.010636515