/*--------------------------------*- C++ -*----------------------------------*\
  =========                 |
  \\      /  F ield         | OpenFOAM: The Open Source CFD Toolbox
   \\    /   O peration     | Website:  https://openfoam.org
    \\  /    A nd           | Version:  6
     \\/     M anipulation  |
\*---------------------------------------------------------------------------*/
FoamFile
{
    version     2.0;
    format      ascii;
    class       volScalarField;
    location    "350";
    object      nut;
}
// * * * * * * * * * * * * * * * * * * * * * * * * * * * * * * * * * * * * * //

dimensions      [0 2 -1 0 0 0 0];

internalField   nonuniform List<scalar> 
16000
(
4.4758561e-06
2.0813425e-05
2.3776476e-05
3.2740122e-05
2.7760562e-05
3.5351691e-05
3.3905944e-05
3.83049e-05
3.8676627e-05
3.9002367e-05
3.9203548e-05
3.8113402e-05
3.8092274e-05
3.7154935e-05
3.7151333e-05
3.6764999e-05
3.6956243e-05
3.7048963e-05
3.7484663e-05
3.7963713e-05
3.8677112e-05
3.9507171e-05
4.0536013e-05
4.1728031e-05
4.3126396e-05
4.473422e-05
4.6586532e-05
4.8708775e-05
5.1142861e-05
5.3934369e-05
5.7143815e-05
6.0843893e-05
6.5124352e-05
7.0094523e-05
7.5883877e-05
8.2653848e-05
9.0604029e-05
9.9984528e-05
0.00011110489
0.00012433864
0.00014014453
0.00015909362
0.00018189061
0.00020940197
0.00024269494
0.00028308474
0.00033218431
0.00039196677
0.00046483633
0.00055370381
0.00066206823
0.00079410301
0.00095479472
0.0010389734
0.0010399803
0.0010400985
0.0010396111
0.0010388058
0.0010378352
0.0010366477
0.0010351667
0.0010333518
0.0010311516
0.0010285422
0.0010255608
0.0010223611
0.0010192039
0.0010163344
0.0010137904
0.001011603
0.0010096624
0.0010081632
0.0010066721
0.0010058275
0.0010046351
0.0010052419
0.001004215
0.0010078332
0.0010034828
0.0010067491
3.7563019e-06
2.0592693e-05
2.1750562e-05
2.9916084e-05
2.5579063e-05
3.1901175e-05
3.1188556e-05
3.4365312e-05
3.537752e-05
3.4949544e-05
3.554006e-05
3.4118191e-05
3.4257261e-05
3.3234796e-05
3.3308506e-05
3.2905029e-05
3.3100889e-05
3.3164706e-05
3.3561439e-05
3.3984544e-05
3.4624361e-05
3.536594e-05
3.6286777e-05
3.7353251e-05
3.8604219e-05
4.0042396e-05
4.1698715e-05
4.3596071e-05
4.5771597e-05
4.8266011e-05
5.1132066e-05
5.4432716e-05
5.8247552e-05
6.2673556e-05
6.7829834e-05
7.3861478e-05
8.0942922e-05
8.9288527e-05
9.916793e-05
0.000110918
0.00012494344
0.0001417423
0.00016193233
0.00018627402
0.00021569946
0.0002513564
0.00029465276
0.00034730911
0.0004114242
0.0004895453
0.00058474705
0.00070071837
0.00084187853
0.0010135372
0.0010388734
0.0010391277
0.0010386958
0.0010379039
0.0010369578
0.0010358869
0.0010346131
0.0010329854
0.0010309501
0.0010284737
0.0010255759
0.0010223945
0.001019211
0.0010163002
0.0010137337
0.0010115085
0.0010095681
0.0010080066
0.0010065793
0.0010056956
0.0010045209
0.0010048276
0.0010039073
0.0010072647
0.0010033482
0.0010065956
3.2234057e-06
2.0378127e-05
2.0092421e-05
2.7495312e-05
2.3830018e-05
2.8937909e-05
2.9113261e-05
3.0835345e-05
3.2559004e-05
3.1181649e-05
3.2157266e-05
3.0365667e-05
3.0686486e-05
2.9619849e-05
2.9764173e-05
2.9358843e-05
2.9561857e-05
2.9611923e-05
2.997923e-05
3.0362714e-05
3.0944276e-05
3.1616872e-05
3.2450769e-05
3.3416363e-05
3.454768e-05
3.5848114e-05
3.7344857e-05
3.9059018e-05
4.1023682e-05
4.32756e-05
4.5862056e-05
4.8840195e-05
5.2280747e-05
5.6269031e-05
6.0911947e-05
6.6340628e-05
7.2716432e-05
8.0232698e-05
8.9122911e-05
9.968395e-05
0.00011228431
0.00012736909
0.00014548386
0.0001673047
0.00019365904
0.00022556072
0.00026425377
0.00031125647
0.00036841859
0.00043798717
0.00052267809
0.00062575971
0.00075115197
0.00090357401
0.0010377627
0.0010381682
0.0010377981
0.0010370136
0.0010360661
0.0010350109
0.0010338178
0.0010324148
0.0010305783
0.0010282682
0.0010254859
0.0010223493
0.001019154
0.0010162154
0.0010136315
0.0010113852
0.0010094413
0.0010078486
0.0010064536
0.0010055294
0.0010044166
0.0010045293
0.0010036877
0.0010067077
0.0010031382
0.0010060474
2.8640229e-06
2.0108056e-05
1.866309e-05
2.5229742e-05
2.2192281e-05
2.6228113e-05
2.7120437e-05
2.7657508e-05
2.9837086e-05
2.7790662e-05
2.8967188e-05
2.7019815e-05
2.7429766e-05
2.6393029e-05
2.6562614e-05
2.6185997e-05
2.638197e-05
2.6432927e-05
2.6771094e-05
2.7125837e-05
2.7656858e-05
2.8272597e-05
2.9032385e-05
2.9912733e-05
3.0942274e-05
3.2125729e-05
3.3486855e-05
3.5045532e-05
3.6831496e-05
3.8878333e-05
4.1228808e-05
4.3934777e-05
4.7060325e-05
5.0683699e-05
5.4900893e-05
5.9829291e-05
6.5614636e-05
7.2437596e-05
8.0514317e-05
9.0104614e-05
0.00010153894
0.00011522692
0.00013166128
0.00015144871
0.00017533727
0.00020423988
0.00023927447
0.00028180677
0.00033349856
0.00039636979
0.00047286552
0.00056593506
0.00067912436
0.00081670049
0.00098381863
0.001037212
0.0010369144
0.0010361367
0.0010351812
0.0010341241
0.0010329438
0.0010316007
0.0010300022
0.0010278967
0.0010252676
0.0010222068
0.0010190191
0.0010160661
0.001013475
0.0010112197
0.0010092767
0.0010076662
0.0010062999
0.0010053229
0.0010043066
0.001004291
0.0010034941
0.0010060693
0.0010029531
0.0010056663
2.5647806e-06
1.9748833e-05
1.747546e-05
2.3134954e-05
2.069282e-05
2.3754735e-05
2.5262292e-05
2.4767197e-05
2.722722e-05
2.4688718e-05
2.5939625e-05
2.4005709e-05
2.4435334e-05
2.3473128e-05
2.3642169e-05
2.3311571e-05
2.3494637e-05
2.355523e-05
2.3867248e-05
2.4201079e-05
2.4689188e-05
2.5257745e-05
2.5954547e-05
2.6762495e-05
2.7705098e-05
2.8788497e-05
3.0033487e-05
3.145894e-05
3.309181e-05
3.4963063e-05
3.7111694e-05
3.9585213e-05
4.2442287e-05
4.575439e-05
4.96094e-05
5.4115399e-05
5.9404259e-05
6.5639133e-05
7.3023307e-05
8.1799077e-05
9.2259495e-05
0.00010477728
0.00011980998
0.00013790856
0.00015975398
0.00018618099
0.00021820648
0.00025707461
0.0003042991
0.0003617196
0.00043156682
0.00051653604
0.00061987707
0.00074550282
0.00089814697
0.0010362526
0.0010360416
0.0010352721
0.0010343049
0.0010332402
0.0010320602
0.0010307356
0.001029211
0.0010273508
0.0010249161
0.0010219658
0.0010188067
0.001015853
0.0010132658
0.0010110132
0.0010090769
0.0010074615
0.0010061189
0.0010051094
0.0010041753
0.0010040282
0.0010033228
0.0010054648
0.0010028074
0.0010051259
2.3153738e-06
1.9046929e-05
1.6481622e-05
2.1169714e-05
1.9309538e-05
2.146375e-05
2.3494544e-05
2.2112307e-05
2.4702784e-05
2.1903649e-05
2.3120581e-05
2.1297425e-05
2.1698705e-05
2.0842581e-05
2.099545e-05
2.0721669e-05
2.0890136e-05
2.09661e-05
2.1256237e-05
2.1575441e-05
2.2028266e-05
2.255837e-05
2.320276e-05
2.3950248e-05
2.4819951e-05
2.5819253e-05
2.6966531e-05
2.8279825e-05
2.9783844e-05
3.1507397e-05
3.3486397e-05
3.576477e-05
3.8396729e-05
4.1448366e-05
4.5000891e-05
4.9154027e-05
5.4030489e-05
5.9780156e-05
6.6588568e-05
7.468589e-05
8.4343841e-05
9.5901362e-05
0.00010978145
0.00012649791
0.0001466749
0.00017108453
0.00020066472
0.00023656145
0.00028017129
0.00033318988
0.00039767609
0.00047612095
0.00057153405
0.00068754446
0.00082854285
0.00099984256
0.0010351752
0.0010344173
0.0010334357
0.00103236
0.0010311744
0.0010298551
0.0010283625
0.0010266173
0.0010244232
0.001021623
0.0010185161
0.0010155754
0.0010130036
0.001010765
0.0010088422
0.0010072326
0.0010059114
0.0010048867
0.001004021
0.0010037441
0.0010031592
0.0010049511
0.0010026648
0.0010047266
2.1008509e-06
1.6099539e-05
1.5561198e-05
1.9306814e-05
1.8053999e-05
1.9332086e-05
2.1822612e-05
1.9674083e-05
2.2275185e-05
1.9421182e-05
2.0527744e-05
1.8871869e-05
1.9215067e-05
1.8478957e-05
1.8607021e-05
1.8392276e-05
1.8546045e-05
1.8638731e-05
1.891051e-05
1.9218618e-05
1.9642073e-05
2.0140048e-05
2.0740377e-05
2.1436786e-05
2.2244885e-05
2.3172965e-05
2.4237505e-05
2.5455802e-05
2.6850727e-05
2.8449322e-05
3.0284945e-05
3.2398515e-05
3.4840615e-05
3.7672834e-05
4.097088e-05
4.4827861e-05
4.9358174e-05
5.470216e-05
6.1031838e-05
6.8562405e-05
7.7551102e-05
8.8312977e-05
0.0001012387
0.00011681241
0.00013561479
0.00015836453
0.0001859378
0.00021940107
0.00026005665
0.00030948475
0.0003696054
0.00044274461
0.00053171655
0.00063992118
0.00077147152
0.00093135534
0.0010343105
0.0010335701
0.001032572
0.0010314826
0.0010302879
0.0010289673
0.0010274888
0.0010257969
0.0010237804
0.0010211762
0.0010181479
0.0010152339
0.0010126895
0.0010104758
0.0010085745
0.00100698
0.0010056796
0.0010046548
0.0010038447
0.0010034641
0.0010029927
0.0010044469
0.0010025234
0.0010043156
1.8959404e-06
1.5608983e-05
1.4419541e-05
1.7536113e-05
1.6911635e-05
1.7358226e-05
2.0211998e-05
1.7509562e-05
1.9935055e-05
1.7212197e-05
1.8157583e-05
1.6702797e-05
1.6972421e-05
1.6358851e-05
1.6459666e-05
1.6301577e-05
1.6442554e-05
1.6551554e-05
1.6808751e-05
1.7108368e-05
1.7507918e-05
1.7979285e-05
1.8543072e-05
1.9196809e-05
1.9953397e-05
2.0821813e-05
2.1817026e-05
2.2955664e-05
2.4259141e-05
2.5753009e-05
2.7468596e-05
2.9444276e-05
3.1727694e-05
3.4376767e-05
3.7462677e-05
4.1073123e-05
4.5315851e-05
5.0322991e-05
5.6257146e-05
6.3320055e-05
7.1754984e-05
8.1860148e-05
9.4003655e-05
0.00010863848
0.00012631489
0.00014770715
0.00017364161
0.00020512107
0.00024337136
0.00028987956
0.00034645302
0.00041528341
0.00049902521
0.00060089033
0.00072476567
0.0008753688
0.0010334416
0.0010327281
0.0010317118
0.001030607
0.0010294009
0.0010280751
0.0010266025
0.0010249392
0.0010230046
0.0010206241
0.0010177045
0.0010148309
0.0010123256
0.0010101475
0.0010082762
0.0010067051
0.0010054265
0.0010044134
0.0010036482
0.0010031967
0.0010028202
0.0010039523
0.0010023706
0.0010039422
1.7217271e-06
1.5074113e-05
1.3415483e-05
1.5875754e-05
1.5849108e-05
1.5521065e-05
1.8601805e-05
1.5570327e-05
1.771658e-05
1.5229947e-05
1.5990525e-05
1.4752624e-05
1.4947059e-05
1.4451799e-05
1.4528669e-05
1.4423024e-05
1.4555104e-05
1.4679588e-05
1.4926377e-05
1.5219883e-05
1.5600623e-05
1.6050387e-05
1.6584332e-05
1.7202854e-05
1.7916852e-05
1.8735689e-05
1.9673263e-05
2.0745557e-05
2.1972842e-05
2.337945e-05
2.4995048e-05
2.6855924e-05
2.9007311e-05
3.1504145e-05
3.4413954e-05
3.7819975e-05
4.1824605e-05
4.6553628e-05
5.2161005e-05
5.8838784e-05
6.6818813e-05
7.638527e-05
8.7887073e-05
0.00010175452
0.00011851149
0.0001387976
0.0001633981
0.00019326484
0.00022956169
0.00027370063
0.00032739766
0.00039273513
0.00047223733
0.0005689621
0.00068661304
0.00082968666
0.001003633
0.0010318892
0.0010308537
0.0010297323
0.0010285132
0.0010271799
0.0010257089
0.0010240644
0.0010221861
0.0010199653
0.0010171902
0.0010143698
0.0010119151
0.0010097829
0.0010079502
0.0010064102
0.001005156
0.0010041635
0.0010034339
0.0010029411
0.0010026411
0.0010034738
0.0010022129
0.0010035647
1.5694945e-06
1.4497559e-05
1.2460385e-05
1.4282415e-05
1.4851867e-05
1.3856594e-05
1.6967956e-05
1.3818801e-05
1.5632626e-05
1.3442997e-05
1.4018845e-05
1.2995846e-05
1.3122868e-05
1.2736073e-05
1.279531e-05
1.2736553e-05
1.2864234e-05
1.3003132e-05
1.3243484e-05
1.3533029e-05
1.3899628e-05
1.4332339e-05
1.48425e-05
1.5432504e-05
1.6111891e-05
1.6890195e-05
1.7780523e-05
1.8798302e-05
1.9962892e-05
2.1297654e-05
2.2830927e-05
2.4597265e-05
2.6639983e-05
2.9011625e-05
3.177677e-05
3.5015014e-05
3.8824593e-05
4.3326234e-05
4.8666154e-05
5.5030908e-05
6.2641699e-05
7.1770639e-05
8.2751113e-05
9.5998858e-05
0.0001120133
0.0001314073
0.00015493292
0.00018350101
0.00021822592
0.00026045902
0.00031184263
0.00037437059
0.00045046128
0.00054304679
0.00065568186
0.00079268325
0.00095929068
0.0010310516
0.0010299963
0.0010288575
0.0010276246
0.0010262824
0.0010248105
0.0010231785
0.0010213375
0.0010192021
0.0010166106
0.0010138557
0.0010114623
0.0010093856
0.0010076003
0.0010060984
0.0010048726
0.0010039071
0.0010032058
0.001002697
0.0010024572
0.0010030232
0.0010020498
0.0010032045
1.4370604e-06
1.3842627e-05
1.1572128e-05
1.2752444e-05
1.3901325e-05
1.2348824e-05
1.5297997e-05
1.223457e-05
1.3696254e-05
1.1831016e-05
1.2237051e-05
1.141383e-05
1.1485999e-05
1.1194458e-05
1.1243297e-05
1.1225325e-05
1.1352866e-05
1.1505038e-05
1.1695027e-05
1.1974862e-05
1.2325579e-05
1.2740524e-05
1.3227891e-05
1.3791001e-05
1.4438163e-05
1.5178742e-05
1.6025055e-05
1.6991861e-05
1.8097594e-05
1.9364681e-05
2.0820249e-05
2.2497157e-05
2.4436995e-05
2.6690121e-05
2.9318466e-05
3.2398379e-05
3.6024358e-05
4.0313035e-05
4.5705009e-05
5.1818618e-05
5.9133756e-05
6.7912577e-05
7.8476641e-05
9.1230992e-05
0.0001066546
0.0001253392
0.00014801113
0.00017554796
0.0002090252
0.00024974575
0.00029929309
0.00035959001
0.00043296975
0.00052226281
0.00063090359
0.00076306385
0.00092381138
0.0010302138
0.0010291387
0.0010279825
0.0010267354
0.0010253837
0.0010239094
0.0010222869
0.0010204765
0.0010184121
0.0010159732
0.001013295
0.0010109728
0.0010089606
0.001007231
0.0010057738
0.0010045813
0.001003647
0.0010029691
0.0010024643
0.001002271
0.0010026186
0.0010018898
0.0010028239
1.3214656e-06
1.309378e-05
1.0738665e-05
1.1284797e-05
1.2963908e-05
1.0978211e-05
1.3618635e-05
1.0795826e-05
1.1914508e-05
1.0374106e-05
1.0635414e-05
9.9895278e-06
1.002193e-05
9.8117455e-06
9.8123662e-06
9.8128615e-06
9.93457e-06
1.0093952e-05
1.032721e-05
1.0612587e-05
1.0961082e-05
1.1369862e-05
1.1845777e-05
1.2393241e-05
1.3020069e-05
1.3735726e-05
1.4552147e-05
1.5483742e-05
1.6548371e-05
1.7767879e-05
1.9168697e-05
2.0782394e-05
2.2649438e-05
2.4818723e-05
2.7350351e-05
3.0318351e-05
3.3814513e-05
3.795352e-05
4.2872611e-05
4.8742732e-05
5.5773017e-05
6.4217395e-05
7.4964696e-05
8.7335211e-05
0.00010229976
0.00012043306
0.00014244278
0.00016917911
0.00020168811
0.00024123449
0.00028935544
0.00034791775
0.00041918732
0.0005059141
0.00061143688
0.00073981244
0.00089597183
0.001029375
0.0010282805
0.0010271072
0.0010258462
0.001024485
0.0010230077
0.0010213925
0.0010196075
0.0010176018
0.0010152873
0.0010126956
0.0010104531
0.0010085134
0.0010068472
0.0010054409
0.0010042871
0.0010033867
0.0010027294
0.001002243
0.0010020843
0.0010022633
0.0010017441
0.0010025042
1.2209871e-06
1.2240807e-05
9.9615387e-06
9.9551364e-06
1.2011697e-05
9.7272845e-06
1.1980366e-05
9.4862735e-06
1.0293975e-05
9.0574848e-06
9.2042496e-06
8.7098539e-06
8.6516118e-06
8.4888825e-06
8.52686e-06
8.5713461e-06
8.7096169e-06
8.8880148e-06
9.1289653e-06
9.4195811e-06
9.7674246e-06
1.0172161e-05
1.0639899e-05
1.117579e-05
1.1787297e-05
1.2483944e-05
1.3277391e-05
1.418174e-05
1.5214391e-05
1.6396744e-05
1.7754839e-05
1.9319081e-05
2.1129179e-05
2.3232957e-05
2.5689202e-05
2.857018e-05
3.1965217e-05
3.5987746e-05
4.0771748e-05
4.6484798e-05
5.333182e-05
6.1562071e-05
7.1484802e-05
8.3475593e-05
9.7992543e-05
0.00011655251
0.00013806709
0.00016420352
0.00019598678
0.00023465238
0.00028170204
0.00033895958
0.00040863908
0.00049342842
0.0005965926
0.0007221
0.00087477694
0.0010285347
0.0010274219
0.0010262324
0.0010249583
0.0010235882
0.0010221079
0.0010204988
0.0010187351
0.0010167778
0.0010145633
0.0010120665
0.0010099109
0.0010080505
0.0010064542
0.0010051048
0.0010039951
0.0010031302
0.0010024924
0.0010020328
0.0010018978
0.0010019532
0.0010016061
0.001002228
1.1337196e-06
1.1280706e-05
9.2343678e-06
8.75077e-06
1.101204e-05
8.5849311e-06
1.0410239e-05
8.2950113e-06
8.8376429e-06
7.8700175e-06
7.8588132e-06
7.454812e-06
7.4341868e-06
7.3475558e-06
7.4071221e-06
7.4869689e-06
7.6407821e-06
7.8352642e-06
8.0840444e-06
8.3800371e-06
8.7288419e-06
9.1316863e-06
9.5943121e-06
1.0122418e-05
1.072318e-05
1.1406163e-05
1.2182843e-05
1.3067069e-05
1.407585e-05
1.5230224e-05
1.6493943e-05
1.8008628e-05
1.9761542e-05
2.1799444e-05
2.41799e-05
2.6973619e-05
3.0439723e-05
3.4375903e-05
3.9060276e-05
4.4658225e-05
5.1372038e-05
5.9445843e-05
6.9186186e-05
8.0962067e-05
9.5225879e-05
0.00011253028
0.00013354427
0.00016045944
0.00019172858
0.00022976937
0.00027605739
0.00033238494
0.00040092796
0.00048432855
0.00058579719
0.00070923779
0.00085940098
0.0010276932
0.0010265636
0.0010253593
0.0010240734
0.0010226956
0.001021213
0.0010196098
0.0010178647
0.0010159477
0.001013813
0.0010114177
0.0010093547
0.0010075789
0.0010060576
0.0010047704
0.0010037099
0.0010028816
0.0010022634
0.0010018338
0.0010017118
0.00100168
0.0010014752
0.001001993
1.0585147e-06
1.0221451e-05
8.5498809e-06
7.6588972e-06
9.9324024e-06
7.5399122e-06
8.9348134e-06
7.2114465e-06
7.5423922e-06
6.6857804e-06
6.6546546e-06
6.3835362e-06
6.3819498e-06
6.3552073e-06
6.4356579e-06
6.5443099e-06
6.7128964e-06
6.9214631e-06
7.1783614e-06
7.4801907e-06
7.8315609e-06
8.2346357e-06
8.6949907e-06
9.1978662e-06
9.7865497e-06
1.0454843e-05
1.1213843e-05
1.2076968e-05
1.3060662e-05
1.418525e-05
1.547554e-05
1.6962025e-05
1.868225e-05
2.068253e-05
2.3019979e-05
2.5765095e-05
2.9004998e-05
3.2847055e-05
3.7423168e-05
4.2897022e-05
4.9468776e-05
5.7811352e-05
6.7431624e-05
7.9067271e-05
9.3164888e-05
0.00011027331
0.00013105382
0.00015631658
0.00018874426
0.00022638376
0.00027218052
0.00032790547
0.00039570847
0.00047820034
0.00057855422
0.000700631
0.00084913174
0.0010268515
0.0010257073
0.00102449
0.0010231941
0.0010218102
0.0010203267
0.0010187297
0.0010170017
0.0010151193
0.0010130489
0.0010107601
0.0010087935
0.0010071058
0.0010056633
0.0010044427
0.0010034359
0.001002645
0.0010020475
0.001001647
0.0010015269
0.0010014364
0.0010013432
0.0010017919
9.9491143e-07
9.0756032e-06
7.9012486e-06
6.668185e-06
8.8182173e-06
6.5830643e-06
7.5778927e-06
6.1772432e-06
6.2425742e-06
5.6564654e-06
5.6252928e-06
5.4570958e-06
5.4764305e-06
5.4969437e-06
5.5975007e-06
5.7300708e-06
5.9127833e-06
6.1341374e-06
6.399548e-06
6.7078686e-06
7.0480266e-06
7.4490736e-06
7.9056062e-06
8.4233869e-06
9.0097926e-06
9.6737784e-06
1.0426424e-05
1.1281068e-05
1.225393e-05
1.3365207e-05
1.4639518e-05
1.6107154e-05
1.7805466e-05
1.9780556e-05
2.208932e-05
2.4802041e-05
2.8005582e-05
3.1806713e-05
3.6336748e-05
4.1759686e-05
4.8276276e-05
5.6123906e-05
6.5599887e-05
7.7070786e-05
9.1730062e-05
0.00010873598
0.00012939288
0.0001545098
0.00018506043
0.00022431328
0.00026985378
0.00032526083
0.0003926692
0.00047467119
0.00057441775
0.00069574578
0.00084333028
0.0010228604
0.0010248555
0.0010236273
0.0010223237
0.0010209357
0.0010194532
0.0010178637
0.0010161526
0.001014301
0.0010122839
0.0010101048
0.0010082369
0.0010066388
0.0010052768
0.001004126
0.0010031762
0.001002424
0.0010018495
0.0010014746
0.0010013459
0.0010012169
0.0010012023
0.0010016139
9.4328017e-07
7.8571299e-06
7.2765172e-06
5.7686277e-06
7.6703936e-06
5.7064206e-06
6.3618202e-06
5.15781e-06
5.1720739e-06
4.7721142e-06
4.7490238e-06
4.6600036e-06
4.7015025e-06
4.7596806e-06
4.8794674e-06
5.0324329e-06
5.2287573e-06
5.4621259e-06
5.7225434e-06
6.034683e-06
6.3922871e-06
6.7987378e-06
7.258949e-06
7.7788939e-06
8.3660066e-06
9.0292291e-06
9.7796433e-06
1.0630594e-05
1.1598064e-05
1.2702236e-05
1.3967655e-05
1.5424564e-05
1.7110315e-05
1.9071043e-05
2.1363727e-05
2.4058853e-05
2.7243443e-05
3.102409e-05
3.5532256e-05
4.0932514e-05
4.7425733e-05
5.5247251e-05
6.4697789e-05
7.6145557e-05
9.0029254e-05
0.00010688412
0.00012845759
0.00015354207
0.0001840554
0.00022117629
0.00026887011
0.00032420351
0.00039151403
0.00047338724
0.00057296456
0.00069407582
0.0008413899
0.0010205926
0.0010240113
0.0010227747
0.0010214659
0.0010200766
0.0010185973
0.0010170174
0.0010153239
0.0010135015
0.0010115309
0.001009463
0.001007694
0.0010061854
0.0010049039
0.001003824
0.0010029332
0.0010022213
0.0010016726
0.0010013196
0.0010011749
0.0010010202
0.0010010615
0.0010014493
9.0568636e-07
6.5800953e-06
6.6505094e-06
4.9543844e-06
6.52628e-06
4.8935027e-06
5.533876e-06
4.2991638e-06
4.2698347e-06
4.0146878e-06
4.007502e-06
3.978978e-06
4.043158e-06
4.1320497e-06
4.2701168e-06
4.440998e-06
4.6385758e-06
4.8805195e-06
5.161734e-06
5.4834586e-06
5.8489223e-06
6.2619479e-06
6.7275814e-06
7.2519198e-06
7.8424604e-06
8.5080664e-06
9.2598399e-06
1.0090086e-05
1.1050595e-05
1.2145385e-05
1.3398754e-05
1.4840726e-05
1.6508477e-05
1.8447991e-05
2.0716195e-05
2.3383645e-05
2.6537322e-05
3.0283651e-05
3.4754434e-05
4.0377146e-05
4.6874543e-05
5.4702503e-05
6.4168092e-05
7.5639397e-05
8.955393e-05
0.00010644982
0.00012698192
0.00015329052
0.00018388053
0.00022109538
0.00026636358
0.00032448417
0.00039194433
0.00047399187
0.00057376842
0.00069511131
0.00084270076
0.0010222403
0.0010231789
0.0010219367
0.0010206256
0.0010192378
0.0010177648
0.0010161969
0.0010145229
0.0010127298
0.0010108022
0.0010088452
0.0010071742
0.001005753
0.0010045499
0.0010035402
0.0010027083
0.001002038
0.0010015182
0.0010011833
0.0010010205
0.0010008565
0.0010009319
0.0010012906
8.8612104e-07
5.3687296e-06
6.0061789e-06
4.3386643e-06
5.9215246e-06
4.2458329e-06
4.1087918e-06
3.553313e-06
3.5231047e-06
3.3695415e-06
3.3847284e-06
3.4034905e-06
3.4898787e-06
3.6044836e-06
3.7507531e-06
3.9342827e-06
4.1542631e-06
4.4093011e-06
4.7014589e-06
5.0328264e-06
5.4068418e-06
5.8276161e-06
6.3002897e-06
6.831006e-06
7.4168814e-06
8.0841077e-06
8.8359738e-06
9.6855498e-06
1.0648869e-05
1.1745678e-05
1.3000379e-05
1.4443186e-05
1.6111556e-05
1.8051863e-05
2.0321643e-05
2.2992244e-05
2.615137e-05
2.9906579e-05
3.4392247e-05
3.9773925e-05
4.6245559e-05
5.4439623e-05
6.3953081e-05
7.5486156e-05
8.9477243e-05
0.00010646807
0.00012711631
0.00015222215
0.00018438308
0.00022180289
0.00026731358
0.00032266778
0.00039364499
0.00047610843
0.00057637864
0.00069831281
0.00084661761
0.0010235489
0.0010223636
0.0010211188
0.0010198083
0.0010184252
0.0010169616
0.0010154087
0.0010137568
0.0010119945
0.0010101091
0.0010082612
0.0010066858
0.0010053487
0.0010042203
0.0010032774
0.0010025021
0.001001874
0.0010013853
0.0010010652
0.0010008832
0.0010007161
0.0010008061
0.0010011306
8.8548028e-07
5.4868853e-06
5.3579228e-06
4.9631041e-06
5.2973648e-06
3.2543907e-06
3.3102762e-06
2.9246963e-06
2.9059644e-06
2.8309642e-06
2.8688015e-06
2.9252967e-06
3.0323736e-06
3.1595227e-06
3.3277631e-06
3.5279968e-06
3.7614952e-06
4.0284968e-06
4.331296e-06
4.6725297e-06
5.0558079e-06
5.4854172e-06
5.9604629e-06
6.4970279e-06
7.0982431e-06
7.772891e-06
8.5316521e-06
9.3875928e-06
1.035678e-05
1.1459052e-05
1.2718999e-05
1.4167128e-05
1.5841275e-05
1.7788366e-05
2.006675e-05
2.2748665e-05
2.592252e-05
2.9697413e-05
3.4210539e-05
3.9628073e-05
4.6143458e-05
5.4000897e-05
6.3989516e-05
7.5612986e-05
8.9714983e-05
0.00010684112
0.00012765274
0.0001529547
0.00018539582
0.00022310078
0.00026895
0.00032470604
0.0003962688
0.0004793208
0.00058029659
0.00070308218
0.00085242221
0.0010227592
0.0010215714
0.0010203269
0.0010190202
0.0010176449
0.001016194
0.0010146596
0.0010130327
0.0010113037
0.0010094616
0.0010077193
0.0010062359
0.0010049788
0.0010039204
0.001003039
0.0010023155
0.001001728
0.0010012708
0.0010009635
0.0010007662
0.0010005997
0.0010006771
0.0010009619
8.369399e-07
5.5820738e-06
4.6779561e-06
3.9110809e-06
3.5519031e-06
2.6664904e-06
2.6359895e-06
2.4130676e-06
2.4032374e-06
2.3880521e-06
2.4483779e-06
2.5346043e-06
2.6528145e-06
2.8048564e-06
2.9893942e-06
3.2038566e-06
3.4496192e-06
3.7279272e-06
4.0413107e-06
4.3927395e-06
4.7859352e-06
5.221043e-06
5.7100761e-06
6.2562173e-06
6.8667107e-06
7.5503053e-06
8.3176564e-06
9.1818409e-06
1.0158992e-05
1.1269098e-05
1.2536992e-05
1.3993539e-05
1.5677048e-05
1.7635152e-05
1.9927133e-05
2.2625987e-05
2.5820966e-05
2.9623716e-05
3.4174393e-05
3.9637381e-05
4.6205401e-05
5.4531666e-05
6.4208927e-05
7.5940651e-05
9.0174256e-05
0.00010745981
0.0001284635
0.0001539958
0.00018672864
0.00022476312
0.00027100501
0.00032722932
0.00039941864
0.00048315313
0.0005849511
0.0007087332
0.00085928898
0.0010219964
0.0010208089
0.0010195677
0.0010182678
0.0010169035
0.0010154685
0.0010139558
0.0010123575
0.0010106648
0.0010088681
0.0010072264
0.0010058302
0.0010046485
0.001003655
0.0010028291
0.0010021511
0.0010016002
0.0010011724
0.0010008763
0.0010006642
0.0010004863
0.0010005421
0.001000771
6.4507193e-07
5.8063544e-06
3.7399094e-06
2.5808157e-06
2.6643144e-06
2.1516373e-06
2.1088372e-06
1.98789e-06
1.9997839e-06
2.0279549e-06
2.1107629e-06
2.2155661e-06
2.3563957e-06
2.5258272e-06
2.7243802e-06
2.9514396e-06
3.2086575e-06
3.4978957e-06
3.8218612e-06
4.1837075e-06
4.5847984e-06
5.0332863e-06
5.53268e-06
6.0890053e-06
6.7094613e-06
7.4027596e-06
8.179543e-06
9.0529148e-06
1.0039103e-05
1.1158283e-05
1.2435578e-05
1.3902237e-05
1.5597122e-05
1.7568692e-05
1.9877062e-05
2.2595752e-05
2.5815399e-05
2.9651097e-05
3.4244534e-05
3.9755505e-05
4.6700092e-05
5.4766998e-05
6.4538553e-05
7.6382277e-05
9.0752105e-05
0.00010820173
0.00012940315
0.00015517212
0.00018816717
0.00022653393
0.00027317243
0.00032987091
0.00040264291
0.00048706343
0.00058969077
0.00071448186
0.00086627305
0.0010212683
0.0010200839
0.0010188488
0.0010175584
0.0010162079
0.0010147917
0.0010133038
0.0010117371
0.001010084
0.0010083356
0.0010067874
0.0010054727
0.0010043611
0.0010034278
0.0010026521
0.0010020139
0.0010014945
0.0010010911
0.0010008024
0.0010005782
0.0010003929
0.0010004131
0.0010005617
4.9665932e-07
2.9587773e-06
2.9426285e-06
2.0900488e-06
2.0395047e-06
1.7284751e-06
1.6967843e-06
1.6458084e-06
1.6819921e-06
1.7435847e-06
1.8467656e-06
1.9718949e-06
2.1292644e-06
2.3130122e-06
2.5238337e-06
2.762312e-06
3.0303507e-06
3.3301626e-06
3.6645479e-06
4.0367274e-06
4.4504637e-06
4.9079135e-06
5.4176259e-06
5.9841015e-06
6.6144973e-06
7.3174971e-06
8.1037455e-06
8.9863925e-06
9.9817801e-06
1.1110284e-05
1.2397314e-05
1.3874519e-05
1.5581383e-05
1.7567175e-05
1.9892559e-05
2.2631576e-05
2.5876958e-05
2.9907809e-05
3.4576468e-05
4.0172845e-05
4.6904798e-05
5.5043319e-05
6.4900442e-05
7.6845933e-05
9.1339235e-05
0.00010893648
0.0001303156
0.00015766834
0.00018947515
0.00022812911
0.00027511028
0.00033221898
0.00040542996
0.0004904351
0.00059377183
0.00071942974
0.00087228756
0.0010205843
0.0010194058
0.0010181792
0.0010169007
0.0010155661
0.0010141707
0.0010127095
0.0010111768
0.001009566
0.0010078699
0.0010064066
0.0010051656
0.0010041178
0.0010032392
0.001002509
0.001001907
0.0010014165
0.0010010338
0.0010007502
0.0010005207
0.0010003389
0.001000328
0.0010004119
3.9544045e-07
2.0565373e-06
2.244491e-06
1.635616e-06
1.5732867e-06
1.3945854e-06
1.3808527e-06
1.3794248e-06
1.4386834e-06
1.5263424e-06
1.6472157e-06
1.7904278e-06
1.9614257e-06
2.1573163e-06
2.3791006e-06
2.6280419e-06
2.9061984e-06
3.2159525e-06
3.5601341e-06
3.9419718e-06
4.3651878e-06
4.8340926e-06
5.3537405e-06
5.9301304e-06
6.5704748e-06
7.2835499e-06
8.0801407e-06
8.9736028e-06
9.9805657e-06
1.1121779e-05
1.2423111e-05
1.3916824e-05
1.5643275e-05
1.7652592e-05
2.0006025e-05
2.2779114e-05
2.6068119e-05
2.9991918e-05
3.4684927e-05
4.0307865e-05
4.7079558e-05
5.5271259e-05
6.5190825e-05
7.7210859e-05
9.1792193e-05
0.00011041665
0.00013207511
0.00015838188
0.0001903425
0.0002291782
0.00027637474
0.00033689176
0.00040712377
0.00049248309
0.00059625405
0.00072244934
0.00087597847
0.0010199546
0.0010187847
0.0010175691
0.0010163046
0.0010149874
0.0010136137
0.0010121794
0.00101068
0.0010091108
0.0010074763
0.001006087
0.0010049105
0.0010039186
0.0010030879
0.0010023974
0.0010018275
0.0010013631
0.0010009987
0.0010007204
0.0010004907
0.0010003156
0.0010002793
0.0010003082
3.065316e-07
1.5917655e-06
1.6678087e-06
1.2883225e-06
1.2239659e-06
1.132698e-06
1.1390046e-06
1.1739499e-06
1.2538215e-06
1.3617339e-06
1.4971525e-06
1.6550205e-06
1.8368631e-06
2.0426115e-06
2.2735149e-06
2.5311919e-06
2.8177704e-06
3.1357027e-06
3.4878229e-06
3.8773568e-06
4.3079967e-06
4.7840132e-06
5.3104143e-06
5.8931498e-06
6.5393854e-06
7.2578544e-06
8.059313e-06
8.957116e-06
9.9679252e-06
1.1112539e-05
1.2416914e-05
1.3913553e-05
1.5643115e-05
1.7655669e-05
2.0012452e-05
2.2790797e-05
2.608888e-05
3.0021985e-05
3.4719229e-05
4.0349569e-05
4.7140217e-05
5.5760858e-05
6.5777679e-05
7.7911252e-05
9.2623831e-05
0.00011047662
0.00013215121
0.00015847558
0.00019045596
0.00022931227
0.00027905135
0.00033684218
0.00040706859
0.00049242592
0.0005962036
0.00072242235
0.00087600307
0.0010193908
0.0010182324
0.0010170305
0.0010157822
0.0010144841
0.0010131328
0.0010117248
0.0010102562
0.0010087229
0.0010071592
0.0010058318
0.0010047091
0.0010037639
0.0010029729
0.0010023155
0.0010017725
0.0010013302
0.0010009809
0.0010007077
0.0010004817
0.0010003141
0.0010002577
0.0010002427
2.069931e-07
1.233172e-06
1.2154312e-06
1.0285007e-06
9.6953518e-07
9.3634815e-07
9.6430888e-07
1.0277695e-06
1.1266481e-06
1.2515657e-06
1.400104e-06
1.5703849e-06
1.7627661e-06
1.9781272e-06
2.2180093e-06
2.4838797e-06
2.7785901e-06
3.1043553e-06
3.4640412e-06
3.8608928e-06
4.2985698e-06
4.7813136e-06
5.314098e-06
5.9028233e-06
6.554608e-06
7.278131e-06
8.0841032e-06
8.985846e-06
9.9999907e-06
1.1147306e-05
1.2453797e-05
1.3952118e-05
1.5682823e-05
1.7695396e-05
2.0125978e-05
2.2923306e-05
2.6244288e-05
3.0197949e-05
3.491467e-05
4.0575676e-05
4.7407472e-05
5.5662531e-05
6.5646499e-05
7.7739669e-05
9.2400025e-05
0.00011018615
0.00013177518
0.00015940021
0.00019147462
0.00023042771
0.00027774425
0.00033523142
0.00040509076
0.00049000685
0.00059325727
0.00071884944
0.00087168972
0.0010189048
0.001017761
0.0010165759
0.0010153466
0.0010140703
0.001012744
0.0010113644
0.0010099282
0.0010084317
0.0010069229
0.0010056435
0.0010045625
0.0010036533
0.0010028929
0.0010022608
0.0010017387
0.0010013134
0.001000975
0.0010007057
0.0010004841
0.0010003211
0.0010002459
0.0010001948
2.2502922e-07
9.8989389e-07
8.8320818e-07
8.2715485e-07
7.9435068e-07
7.9620622e-07
8.4190131e-07
9.2351934e-07
1.034192e-06
1.1682739e-06
1.3232444e-06
1.4985459e-06
1.6947667e-06
1.9131214e-06
2.1552341e-06
2.4230538e-06
2.7188371e-06
3.0451585e-06
3.4048971e-06
3.8012009e-06
4.2373169e-06
4.7175724e-06
5.2469254e-06
5.8312625e-06
6.4776566e-06
7.1947318e-06
7.9931274e-06
8.8860733e-06
9.8900689e-06
1.1025745e-05
1.2319021e-05
1.3802345e-05
1.5515551e-05
1.750748e-05
1.9840499e-05
2.2594014e-05
2.5859764e-05
2.9740454e-05
3.4373305e-05
3.9944082e-05
4.6665465e-05
5.4781454e-05
6.5097216e-05
7.7076753e-05
9.1596123e-05
0.00010920751
0.00013058135
0.0001565323
0.00018805054
0.00022634032
0.00027286712
0.00032941586
0.0003981622
0.00048176066
0.00058345375
0.00070720785
0.00085788123
0.00101852
0.0010173943
0.0010162286
0.0010150211
0.001013769
0.0010124697
0.0010111205
0.0010097185
0.0010082607
0.0010067866
0.0010055373
0.0010044824
0.0010035958
0.0010028543
0.0010022376
0.0010017281
0.0010013126
0.0010009795