/*--------------------------------*- C++ -*----------------------------------*\
  =========                 |
  \\      /  F ield         | OpenFOAM: The Open Source CFD Toolbox
   \\    /   O peration     | Website:  https://openfoam.org
    \\  /    A nd           | Version:  6
     \\/     M anipulation  |
\*---------------------------------------------------------------------------*/
FoamFile
{
    version     2.0;
    format      ascii;
    class       volScalarField;
    location    "350";
    object      omega;
}
// * * * * * * * * * * * * * * * * * * * * * * * * * * * * * * * * * * * * * //

dimensions      [0 0 -1 0 0 0 0];

internalField   nonuniform List<scalar> 
16000
(
1381.8396
1521.2674
795.03044
500.23769
338.8912
258.17534
193.69367
159.83798
129.28856
110.34166
93.434276
81.240749
70.675971
62.323103
55.225188
49.391665
44.424379
40.228508
36.619053
33.512383
30.812021
28.457134
26.390337
24.569602
22.95858
21.528555
20.25518
19.118472
18.101577
17.190405
16.373077
15.639567
14.981279
14.390795
13.861663
13.388218
12.96542
12.588733
12.254029
11.957506
11.695646
11.46524
11.263289
11.086974
10.933666
10.800926
10.686477
10.588223
10.504269
10.432938
10.372806
10.322771
10.282242
10.251689
10.231132
10.218358
10.210363
10.204034
10.197313
10.188992
10.178482
10.165477
10.149586
10.130633
10.108921
10.085652
10.062851
10.042418
10.024666
10.009868
9.9972135
9.9882577
9.9796927
9.9765482
9.9711924
9.980457
9.9778252
10.012536
9.9869938
10.024134
1296.6921
1562.885
796.94869
507.41065
340.65878
261.79931
195.14976
161.77559
130.33253
111.34326
94.052017
81.700392
70.951839
62.520037
55.369758
49.505818
44.509971
40.294602
36.66926
33.550834
30.841473
28.479983
26.408367
24.584179
22.970756
21.539133
20.264772
19.127526
18.110405
17.199193
16.381919
15.648499
14.990306
14.399877
13.870732
13.397202
12.974241
12.597333
12.262369
11.96555
11.703343
11.472556
11.270199
11.093464
10.939723
10.80655
10.691672
10.592988
10.508598
10.436801
10.376132
10.325397
10.283758
10.250981
10.228081
10.213823
10.205195
10.198771
10.192247
10.184835
10.175933
10.164382
10.149772
10.131852
10.110787
10.08766
10.064654
10.043903
10.025978
10.01089
9.9982397
9.9888041
9.9807407
9.9773025
9.972095
9.9790464
9.9772699
10.010013
9.9879101
10.025095
1090.4398
1603.7314
796.48376
513.73314
341.68191
264.9093
196.23383
163.37016
131.138
112.07891
94.470005
81.932631
71.075179
62.613131
55.423424
49.536987
44.521383
40.293173
36.658497
33.533763
30.820447
28.456772
26.384378
24.560362
22.947831
21.517606
20.245
19.109729
18.094699
17.185593
16.370355
15.638853
14.982442
14.393637
13.865956
13.393716
12.971874
12.595914
12.26176
11.965639
11.704001
11.473666
11.271664
11.095195
10.94164
10.808587
10.693773
10.595102
10.510671
10.438771
10.377913
10.326858
10.284654
10.250786
10.225554
10.209596
10.200187
10.193573
10.187052
10.179773
10.171506
10.161701
10.148637
10.132012
10.111846
10.089068
10.065975
10.045013
10.026958
10.011712
9.9990423
9.9893729
9.9815691
9.9778281
9.9731155
9.9785783
9.9774376
10.007599
9.9882328
10.022889
1116.8526
1640.1765
794.08989
519.1515
342.07287
267.4264
197.00949
164.54947
131.71419
112.48886
94.669504
81.994242
71.081015
62.595824
55.381735
49.480766
44.455172
40.221158
36.584239
33.459025
30.747159
28.386029
26.317151
24.497162
22.889022
21.463362
20.195397
19.064738
18.054223
17.149457
16.338313
15.610626
14.957748
14.372182
13.847446
13.377873
12.958432
12.584607
12.25234
11.957905
11.69774
11.468679
11.267775
11.092245
10.939477
10.807081
10.692811
10.594577
10.510487
10.438824
10.378095
10.327031
10.28462
10.250184
10.223567
10.205673
10.195325
10.188461
10.181892
10.174613
10.16646
10.157132
10.145922
10.13089
10.111918
10.089734
10.066706
10.045642
10.02754
10.012234
9.9995807
9.9897839
9.9822153
9.9780763
9.9741297
9.9786127
9.9778389
10.004563
9.9887316
10.021829
1141.0285
1669.6404
790.14226
523.55913
341.86083
269.27213
197.48486
165.25466
132.0514
112.52622
94.614557
81.912579
70.969226
62.468154
55.244373
49.337061
44.311073
40.078431
36.446325
33.326543
30.62154
28.26772
26.206688
24.394618
22.794386
21.376486
20.116069
18.992681
17.989121
17.090943
16.285965
15.564001
14.916419
14.335717
13.815423
13.34989
12.934113
12.563597
12.234299
11.942537
11.68474
11.457768
11.258696
11.084768
10.933378
10.802164
10.688903
10.591519
10.508134
10.437037
10.37673
10.325936
10.28361
10.248987
10.221696
10.202083
10.190609
10.183428
10.176786
10.169467
10.161332
10.152165
10.141541
10.128423
10.110969
10.089649
10.066853
10.045794
10.027735
10.012463
9.9998743
9.9900533
9.9826825
9.9783053
9.9750125
9.9784864
9.9784382
10.001795
9.9895072
10.019374
1162.9448
1688.7455
785.14983
526.84229
341.09283
270.35042
197.67745
165.40831
132.13544
112.3342
94.397794
81.685444
70.737583
62.22822
55.009428
49.104388
44.087687
39.863872
36.243764
33.135505
30.442903
28.101298
26.052541
24.252374
22.663655
21.256781
20.006885
18.893475
17.899356
17.010053
16.213347
15.499038
14.858533
14.284337
13.769997
13.309894
12.899055
12.533007
12.207744
11.919649
11.665112
11.441034
11.244521
11.072852
10.923422
10.793906
10.682112
10.585981
10.503658
10.433441
10.37384
10.323573
10.281583
10.247055
10.219488
10.198859
10.18603
10.178458
10.171725
10.16434
10.156183
10.147076
10.136719
10.124508
10.108933
10.088789
10.06641
10.045466
10.027542
10.012393
9.9999251
9.9901641
9.9829751
9.9784945
9.9757466
9.978219
9.9791134
9.9997286
9.9902648
10.017885
1182.6228
1694.3268
779.56928
528.84442
339.81878
270.5416
197.60135
164.94093
131.92123
111.94661
94.035628
81.312909
70.3852
61.875971
54.676451
48.782738
43.784889
39.577541
35.976641
32.886125
30.211498
27.887077
25.855062
24.070836
22.497264
21.104713
19.868331
18.767628
17.785443
16.907309
16.120984
15.41626
14.784607
14.218548
13.711656
13.258352
12.853708
12.493275
12.173069
11.889599
11.639194
11.418786
11.225529
11.056746
10.909832
10.782503
10.672607
10.578108
10.49718
10.428139
10.369504
10.320001
10.278567
10.244365
10.216821
10.195739
10.181592
10.173537
10.166698
10.159231
10.151025
10.141929
10.131703
10.119927
10.105746
10.087137
10.065382
10.044662
10.026967
10.012029
9.999746
9.9901194
9.9831073
9.9786397
9.976335
9.9780016
9.9797739
9.997722
9.9909811
10.016177
1200.1327
1684.7768
773.51377
529.34129
338.10818
269.69946
197.27276
164.18197
131.34318
111.36673
93.528416
80.79664
69.912016
61.412167
54.245475
48.372547
43.402874
39.21978
35.645267
32.578776
29.92773
27.625498
25.614731
23.850516
22.295754
20.92085
19.700998
18.615742
17.64799
16.783323
16.009491
15.316275
14.695235
14.13893
13.640961
13.1958
12.798579
12.44488
12.130719
11.852791
11.607356
11.391362
11.202019
11.036718
10.892844
10.76816
10.660569
10.568052
10.48883
10.421237
10.363809
10.315284
10.274604
10.24092
10.213615
10.192367
10.177304
10.16865
10.161693
10.154131
10.145862
10.13675
10.126594
10.115061
10.101538
10.084683
10.063788
10.043399
10.026027
10.011385
9.9993524
9.9899257
9.9830988
9.9787337
9.9767849
9.9778952
9.980387
9.9957655
9.991549
10.014647
1215.6204
1676.7196
766.13124
528.14429
336.06066
267.82878
196.67219
163.16911
130.58566
110.6038
92.878804
80.141073
69.319643
60.839191
53.717758
47.875268
42.942733
38.791648
35.250625
32.214437
29.592555
27.31752
25.3325
23.592384
22.060105
20.706175
19.505868
18.438793
17.487965
16.639047
15.879804
15.199992
14.591299
14.046326
13.558717
13.122997
12.734376
12.388491
12.081303
11.809785
11.570099
11.359216
11.174393
11.013126
10.872774
10.751152
10.646231
10.556015
10.478776
10.412874
10.356868
10.309514
10.26976
10.236759
10.20987
10.188703
10.173195
10.16378
10.1567
10.149036
10.140693
10.131549
10.121432
10.11007
10.097008
10.081414
10.061658
10.041702
10.024743
10.010477
9.9987653
9.9895975
9.9829752
9.9787793
9.977109
9.977885
9.9809393
9.9939012
9.9920131
10.012975
1229.2606
1669.7748
757.81384
525.06413
333.75315
265.57548
195.7398
161.92371
129.67847
109.6663
92.088002
79.35027
68.609302
60.159136
53.09446
47.292315
42.40561
38.294305
34.793847
31.794272
29.207149
26.964336
25.009577
23.297662
21.791547
20.461925
19.284179
18.238012
17.306572
16.47566
15.733077
15.068528
14.473868
13.941759
13.465892
13.040849
12.661942
12.324904
12.025533
11.761224
11.528006
11.322875
11.143113
10.986377
10.849978
10.731785
10.62986
10.542218
10.467205
10.403207
10.34881
10.302791
10.264114
10.231935
10.205605
10.184693
10.169046
10.158917
10.15171
10.14394
10.135518
10.126334
10.116237
10.104999
10.092253
10.077345
10.059035
10.039609
10.023147
10.009334
9.9980098
9.989155
9.9827659
9.9787853
9.977331
9.97796
9.9814357
9.9922131
9.9923643
10.011338
1241.2646
1663.5212
748.60886
519.76243
331.20734
262.98687
194.36768
160.46296
128.62227
108.56226
91.156779
78.42803
67.782213
59.374079
52.376918
46.625243
41.792919
37.729134
34.276383
31.319771
28.773033
26.567487
24.647522
22.967945
21.49168
20.189698
19.037523
18.014968
17.105343
16.294642
15.570755
14.923266
14.344261
13.826477
13.363662
12.950453
12.582276
12.255068
11.964245
11.707867
11.481759
11.282952
11.108706
10.956937
10.824866
10.710406
10.611754
10.526915
10.454327
10.39241
10.339777
10.295232
10.257756
10.226515
10.200857
10.180324
10.164687
10.15405
10.146716
10.138841
10.130339
10.121111
10.111025
10.099889
10.087408
10.073077
10.055975
10.037166
10.021278
10.007987
9.9971156
9.9886237
9.9825032
9.9787669
9.9774833
9.9781113
9.9818866
9.9908357
9.992666
10.009447
1251.8983
1657.3629
738.70568
512.03462
328.42728
260.12841
192.67982
158.80683
127.41742
107.30041
90.08633
77.378219
66.83986
58.486083
51.566584
45.875697
41.106304
37.09771
33.693569
30.786076
28.28556
26.122678
24.242466
22.599833
21.157555
19.886959
18.763737
17.767826
16.882715
16.094657
15.391732
14.763278
14.2017
13.699834
13.251501
12.851379
12.494995
12.178739
11.898391
11.650562
11.432114
11.240133
11.071755
10.925315
10.797886
10.687397
10.592242
10.51038
10.440371
10.38067
10.329924
10.286962
10.250788
10.220578
10.195684
10.175631
10.160134
10.149171
10.141715
10.133739
10.12516
10.115889
10.10581
10.094762
10.082505
10.068657
10.052545
10.03443
10.019184
10.006477
9.9961154
9.9880333
9.9822198
9.9787436
9.9776013
9.9783299
9.9822963
9.989786
9.9930014
10.007945
1261.4039
1650.4462
728.25612
503.81964
325.35143
257.05126
190.90567
156.97048
126.06033
105.88651
88.876078
76.202766
65.782708
57.496171
50.653034
45.030629
40.332395
36.388739
33.046617
30.196141
27.748758
25.634514
23.79929
22.198351
20.794172
19.558598
18.467556
17.50113
16.642995
15.879732
15.19982
14.592115
14.049471
13.564854
13.132188
12.746179
12.402316
12.097534
11.827494
11.588913
11.378738
11.194191
11.032888
10.89206
10.769527
10.663161
10.571677
10.492906
10.425578
10.368188
10.319413
10.278114
10.243315
10.214208
10.19015
10.170656
10.155406
10.144278
10.136706
10.128637
10.119989
10.110681
10.10061
10.08964
10.077578
10.064133
10.048823
10.031466
10.016918
10.004847
9.9950443
9.9874151
9.981947
9.9787373
9.9777193
9.9786038
9.9826619
9.9890258
9.9933174
10.006702
1270.0943
1641.6695
717.3904
495.17857
321.83973
253.79408
189.03907
154.97076
124.54856
104.32652
87.52645
74.903608
64.586527
56.377128
49.629923
44.091257
39.476454
35.608701
32.337936
29.552572
27.165463
25.105928
23.320923
21.766494
20.404506
19.207535
18.151829
17.217644
16.388814
15.652271
14.997343
14.411943
13.889577
13.423375
13.007414
12.636473
12.305717
12.013013
11.753783
11.524869
11.323291
11.146258
10.991749
10.856878
10.739596
10.63812
10.550434
10.474802
10.410204
10.355171
10.308414
10.268824
10.235448
10.207492
10.18432
10.16545
10.150531
10.139374
10.131695
10.123543
10.114837
10.105501
10.095445
10.08455
10.072663
10.059559
10.044894
10.028348
10.014539
10.003144
9.9939386
9.9868001
9.9817127
9.9787712
9.9778697
9.9789241
9.9829771
9.9884865
9.9936098
10.005706
1278.2737
1629.4006
706.23037
486.16616
317.60178
250.39135
187.06477
152.82132
122.87795
102.62346
85.994121
73.425301
63.240667
55.131773
48.497596
43.058816
38.540523
34.760117
31.570532
28.858582
26.539204
24.540574
22.810933
21.307917
19.992149
18.837249
17.819905
16.920598
16.123257
15.414968
14.784647
14.222987
13.722135
13.275416
12.877117
12.522305
12.206687
11.926504
11.678431
11.459472
11.266778
11.097332
10.94978
10.820967
10.70887
10.611992
10.528329
10.456396
10.394514
10.341836
10.2971
10.259232
10.227301
10.200522
10.178269
10.160062
10.145541
10.134467
10.126691
10.118471
10.109721
10.100371
10.090338
10.079523
10.067798
10.05499
10.040849
10.025151
10.012111
10.001416
9.9928343
9.9862171
9.9815398
9.9788672
9.978083
9.9792894
9.9832398
9.9881039
9.9938114
10.004906
1286.2212
1611.2071
694.86543
476.841
313.56726
246.87234
184.95726
150.53123
121.04271
100.68321
84.248192
71.770217
61.741697
53.758921
47.256591
41.935
37.52739
33.846332
30.748424
28.118317
25.874532
23.943146
22.273697
20.82337
19.55753
18.447923
17.471809
16.609972
15.846398
15.168663
14.565959
14.029232
13.550862
13.124386
12.744284
12.405793
12.104768
11.837573
11.601016
11.3923
11.208934
11.048186
10.907665
10.784995
10.678013
10.585709
10.505935
10.437484
10.378785
10.328405
10.285649
10.24948
10.218986
10.193392
10.172069
10.15455
10.140472
10.129573
10.121709
10.113439
10.104661
10.095312
10.085319
10.074593
10.063027
10.050484
10.036781
10.021955
10.009698
9.9997146
9.9917667
9.9856907
9.9814442
9.9790435
9.9783856
9.9797085
9.9834627
9.9878319
9.993863
10.00422
1294.1626
1583.3744
683.33586
467.16599
309.70632
243.26445
182.68122
148.03331
118.87617
98.485918
82.276444
69.931536
60.086094
52.257817
45.908525
40.722739
36.441397
32.872119
29.87727
27.337195
25.171496
23.313464
21.710221
20.319615
19.107708
18.046566
17.114313
16.292261
15.5642
14.918419
14.344443
13.833522
13.378308
12.972593
12.611082
12.289213
12.003007
11.748959
11.523961
11.325329
11.151017
10.998267
10.864913
10.748656
10.647531
10.559766
10.483697
10.418546
10.362809
10.315116
10.274246
10.23971
10.210616
10.186193
10.165796
10.148971
10.135356
10.12468
10.116769
10.108467
10.099681
10.090354
10.080417
10.069794
10.058393
10.046102
10.032781
10.018837
10.007365
9.9980873
9.990769
9.9852399
9.9814337
9.9793103
9.978794
9.9801959
9.9836886
9.9876565
9.9938354
10.003579
1302.2587
1540.0224
671.56201
457.05613
305.92816
239.59221
180.2107
145.14529
116.3671
96.012917
80.064273
67.901256
58.270852
50.628877
44.456948
39.426878
35.289295
31.844081
28.955535
26.515371
24.439264
22.661398
21.129823
19.803264
18.648908
17.638833
16.75241
15.972131
15.280859
14.667988
14.123438
13.638811
13.207081
12.822326
12.479511
12.174306
11.902938
11.662054
11.448604
11.259748
11.094307
10.949275
10.822854
10.712725
10.616963
10.533911
10.462043
10.399952
10.346974
10.301775
10.263095
10.230073
10.202303
10.17902
10.159529
10.14339
10.130246
10.119815
10.111899
10.103585
10.094813
10.085528
10.075669
10.065167
10.053943
10.041904
10.028937
10.01587
10.005172
9.9965813
9.9898726
9.9848786
9.9815072
9.9796661
9.9793077
9.9807528
9.9839618
9.9876552
9.9938157
10.002925
1310.4196
1486.3002
659.03587
446.34375
302.08019
235.84341
178.06536
141.84772
113.46271
93.236426
77.594268
65.6699
56.293784
48.874356
42.908469
38.054644
34.066643
30.760648
27.99606
25.665886
23.687313
21.995863
20.540812
19.281766
18.18818
17.231069
16.391271
15.651562
14.997798
14.418326
13.903511
13.445351
13.037171
12.673366
12.349185
12.06056
11.803956
11.57625
11.374636
11.19658
11.039766
10.901959
10.782158
10.677931
10.587301
10.508708
10.440724
10.38206
10.331557
10.288701
10.252025
10.220739
10.194153
10.171965
10.153347
10.137876
10.125203
10.115043
10.10713
10.098827
10.09009
10.080871
10.071113
10.060754
10.049725
10.037945
10.025324
10.013119
10.003173
9.9952398
9.9891078
9.9846182
9.981658
9.9800977
9.9799102
9.9813676
9.9842806
9.987749
9.9937482
10.002207
1318.2925
1427.3056
646.98341
435.8731
299.50369
232.29713
174.49046
138.03709
110.1208
90.119681
74.85003
63.232192
54.158223
47.00192
41.25706
36.603135
32.79195
29.640991
27.012301
24.801206
22.927071
21.327272
19.952878
18.76306
17.729262
16.826614
16.034934
15.337767
14.721642
14.175487
13.690173
13.258142
12.873105
12.529796
12.223765
11.951212
11.708841
11.493732
11.303258
11.135047
10.986975
10.85704
10.743359
10.644741
10.558975
10.484584
10.420218
10.364652
10.31679
10.276128
10.241305
10.21157
10.186272
10.165116
10.147324
10.132491
10.120277
10.110403
10.1025
10.094229
10.085551
10.07642
10.066786
10.056595
10.045782
10.034279
10.022008
10.010635
10.001411
9.9940994
9.9885028
9.9844722
9.9818812
9.9805851
9.980567
9.9820173
9.9846656
9.9879414
9.9935766
10.001367
1325.4263
1392.8672
637.50897
434.85093
298.69864
226.80276
170.24972
133.62
106.29101
86.641691
71.825776
60.595407
51.879123
45.009838
39.526991
35.10015
31.48525
28.503433
26.020767
23.936028
22.171514
20.66677
19.372151
18.253893
17.282615
16.434681
15.690965
15.035908
14.456805
13.94324
13.486643
13.079935
12.717239
12.39364
12.104999
11.847787
11.618953
11.415795
11.235873
11.076898
10.936864
10.813929
10.706922
10.61356
10.532346
10.461888
10.40091
10.348249
10.302868
10.264247
10.231148
10.202859
10.178761
10.158562
10.141537
10.127299
10.115519
10.105923
10.098051
10.089834
10.081235
10.072214
10.062728
10.052727
10.042155
10.030949
10.019043
10.008459
9.9999163
9.9931867
9.9880827
9.9844604
9.9821855
9.9811183
9.9812509
9.9826814
9.9850696
9.9880656
9.9932816
10.000305
1330.5567
1382.5605
629.35102
433.09079
294.51591
220.53188
165.08664
128.60029
101.94418
82.803095
68.535022
57.782837
49.458376
42.935375
37.749396
33.573882
30.171765
27.370201
25.040765
23.086919
21.435083
20.024279
18.812472
17.765721
16.856348
16.062144
15.365175
14.750891
14.207427
13.725077
13.295869
12.913226
12.571694
12.266715
11.994448
11.751623
11.535418
11.343378
11.173388
11.023097
10.890511
10.77468
10.673258
10.584737
10.507705
10.440859
10.382999
10.333012
10.289959
10.253202
10.221679
10.194716
10.171719
10.152391
10.136065
10.122369
10.110987
10.101654
10.093833
10.085688
10.077187
10.068296
10.058976
10.049186
10.038875
10.02799
10.016467
10.006616
9.9987051
9.992514
9.9878615
9.9846028
9.9825969
9.9817169
9.98196
9.9833417
9.9854961
9.9882528
9.9929566
9.9990497
1331.3561
1407.2014
619.5248
422.10609
288.20342
213.12946
158.90953
122.8948
97.073758
78.615775
65.003881
54.80653
46.952336
40.822206
35.963003
32.058212
28.880971
26.266688
24.093709
22.270929
20.729179
19.415327
18.284916
17.307798
16.458193
15.715462
15.062969
14.487234
13.977285
13.524156
13.120492
12.760232
12.438348
12.150634
11.893534
11.663991
11.459321
11.277149
11.116384
10.974314
10.849114
10.739102
10.642754
10.558607
10.485331
10.421715
10.36667
10.319023
10.278227
10.243129
10.213011
10.187238
10.165252
10.146696
10.13099
10.117776
10.106751
10.097654
10.089902
10.081846
10.073459
10.064711
10.055571
10.046003
10.035969
10.025422
10.014311
10.00512
9.9977793
9.9920742
9.9878284
9.9848941
9.9831267
9.9824121
9.9827386
9.9840576
9.986037
9.988653
9.9928992
9.9982144
1324.6432
1377.7914
609.46768
410.0567
279.84721
204.37577
151.66976
116.51118
91.747463
74.166036
61.326584
51.759783
44.432555
38.729785
34.217508
30.594852
27.648153
25.223216
23.206408
21.512903
20.07848
18.853884
17.800881
16.889464
16.095846
15.401011
14.789649
14.249366
13.770082
13.343567
12.963081
12.623071
12.318941
12.046851
11.803553
11.586243
11.39245
11.220036
11.067086
10.931798
10.81247
10.707583
10.615772
10.535517
10.465538
10.404652
10.352247
10.306936
10.267842
10.234174
10.20525
10.180474
10.159466
10.141573
10.126399
10.1136
10.102881
10.093989
10.086324
10.078373
10.070112
10.061516
10.052559
10.043212
10.033446
10.023227
10.012597
10.003981
9.9971348
9.9918508
9.987956
9.9852997
9.9837386
9.9831695
9.9835632
9.9848255
9.9866807
9.9891947
9.9930503
9.9976955
1306.9916
1320.4044
599.15391
395.25724
269.52512
194.40659
143.52994
109.62734
86.154958
69.625854
57.651617
48.764447
41.994128
36.733232
32.573159
29.232405
26.512224
24.270975
22.404025
20.833509
19.500632
18.360384
17.377865
16.525695
15.782159
15.129885
14.554869
14.045762
13.593323
13.190003
12.829613
12.50706
12.218129
11.959309
11.727641
11.520586
11.335745
11.171143
11.024969
10.895487
10.781085
10.680325
10.592532
10.51579
10.448885
10.390712
10.340266
10.296632
10.258996
10.22654
10.198602
10.174821
10.154476
10.137127
10.122388
10.109928
10.099459
10.090735
10.083177
10.075347
10.067227
10.058792
10.05002
10.040886
10.031364
10.021427
10.011345
10.003205
9.9967672
9.9918301
9.9882221
9.9857907
9.9843969
9.9839443
9.9843839
9.985597
9.9873706
9.9898065
9.993336
9.9974319
1274.0418
1262.2437
589.2272
377.84117
257.05197
183.19329
134.54695
102.35212
80.423842
65.106335
54.070628
45.894344
39.683229
34.862935
31.051886
27.989509
25.486445
23.418922
21.691969
20.235077
18.995078
17.931279
17.012122
16.212816
15.513668
14.898888
14.355717
13.873788
13.444642
13.061353
12.718227
12.410567
12.134474
11.886679
11.664396
11.466078
11.288884
11.130985
10.990659
10.866276
10.756376
10.659642
10.574795
10.500624
10.435894
10.379543
10.3306
10.288175
10.251795
10.220424
10.19343
10.170257
10.150415
10.133473
10.11906
10.106853
10.09657
10.087972
10.08054
10.072852
10.064891
10.056635
10.048064
10.039156
10.029888
10.020235
10.010574
10.002797
9.9966695
9.9919941
9.9885996
9.9863334
9.9850614
9.9846896
9.9851497
9.9863143
9.9880248
9.9903794
9.9936196
9.9972612
1222.6433
1194.0295
579.13959
359.13972
242.79261
171.60751
125.76264
95.67366
75.387357
61.273634
51.11789
43.586842
37.856636
33.399897
29.867175
27.020001
24.691597
22.762833
21.146985
19.779777
18.612739
17.60868
16.73877
15.980331
15.315318
14.729226
14.210308
13.748999
13.337479
12.969334
12.639287
12.342986
12.076816
11.837744
11.623188
11.430847
11.2588
11.105298
10.968671
10.847389
10.740099
10.64552
10.562403
10.490132
10.427036
10.372097
10.324379
10.28303
10.247278
10.216432
10.189875
10.167061
10.147512
10.130806
10.116576
10.104504
10.094314
10.085766
10.078477
10.070949
10.063163
10.055101
10.046745
10.038078
10.029079
10.019728
10.010339
10.002793
9.9968625
9.9923502
9.9890845
9.9869132
9.985707
9.9853709
9.9858208
9.9869321
9.9885944
9.9908924
9.9939247
9.9972592
1161.8203
1118.8929
551.54175
331.41056
218.77899
153.16367
112.68039
86.490347
68.920833
56.625456
47.702556
41.02778
35.907177
31.893612
28.68875
26.08779
23.946753
22.162268
20.658691
19.379715
18.282517
17.334409
16.509743
15.78822
15.153577
14.592659
14.094744
13.651056
13.254382
12.898779
12.579342
12.292006
12.033383
11.800611
11.592031
11.404807
11.237145
11.087358
10.953862
10.835267
10.730304
10.637724
10.556331
10.484996
10.42266
10.368338
10.321119
10.280174
10.244747
10.214162
10.187815
10.165168
10.145749
10.129143
10.114987
10.102966
10.092805
10.084267
10.077109
10.069746
10.062136
10.054264
10.046112
10.037664
10.028904
10.019812
10.010576
10.003144
9.9973059
9.9928641
9.9896452
9.9874976
9.9862943
9.9859346
9.9863234
9.9873508
9.9889432
9.9911316
9.9938959
9.9969348
1120.1274
1156.5733
562.51079
335.53581
219.93723
152.96455
112.04002
85.911944
68.486477
56.333188
47.525688
40.937095
35.8776
31.905519
28.72753
26.142901
24.010768
22.23008
20.726865
19.445938
18.34567
17.39385
16.56524
15.839761
15.201279
14.636712
14.135381
13.688527
13.288946
12.930695
12.608866
12.319391
12.058875
11.824455
11.613676
11.42439
11.25474
11.103016
10.967686
10.8474
10.740871
10.646845
10.564128
10.491594
10.428183
10.372903
10.324841
10.283158
10.24709
10.215952
10.189129
10.166076
10.146311
10.12941
10.115004
10.102769
10.092425
10.083728
10.076468
10.069298
10.061889
10.054227
10.046295
10.03808
10.029563
10.02073
10.011561
10.00401
9.99808
9.9935649
9.9902839
9.9880812
9.9868257
9.9864075
9.9867251
9.9876823
9.9892161
9.9913063
9.9938891
9.9968016
1148.2275
1218.2382
583.94792
350.4911
229.34793
159.40635
116.4128
88.989933
70.717047
58.002944
48.805201
41.935279
36.666601
32.535951
29.236032
26.556723
24.350496
22.511475
20.962134
19.644658
18.515161
17.539724
16.691825
15.950449
15.29875
14.723099
14.212388
13.757515
13.350991
12.986648
12.659395
12.365008
12.099963
11.861313
11.646629
11.453848
11.28101
11.126348
10.988356
10.865664
10.756938
10.660911
10.576383
10.502219
10.437348
10.380772
10.331563
10.288872
10.251924
10.22002
10.192536
10.168914
10.148661
10.131346
10.116588
10.104057
10.093465
10.084562
10.077133
10.070167
10.062967
10.055519
10.047807
10.039818
10.031534
10.022941
10.01402
10.006116
9.9998823
9.995104
9.9915942
9.989192
9.9877602
9.9871811
9.9873502
9.9881775
9.9895952
9.9915497
9.9939737
9.9967944
31067.403
34159.31
19452.915
13365.954
9619.7948
6969.2986
5065.2039
3704.7163
2729.9538
2029.0353
1516.6722
1141.6939
862.15001
657.64437
499.07306
381.41024
288.86103
219.35066
167.84186
130.03722
101.97997
81.353926
66.103988
54.795939
46.350367
39.971416
35.087731
31.26752
28.23184
25.758556
23.695671
21.945515
20.439418
19.128985
17.979542
16.965818
16.068852
15.273886
14.569163
13.945352
13.394319
12.908681
12.48211
12.109003
11.784139
11.502687
11.260204
11.052737
10.877892
10.731764
10.610606
10.50997
10.426783
10.360072
10.309084
10.272275
10.246376
10.227688
10.212699
10.199525
10.185882
10.172123
10.154985
10.137643
10.113958
10.093736
10.062744
10.042775
10.016568
10.002803
9.9792599
9.9746586
9.9520746
9.9604218
9.9384186
9.9635029
9.9421556
9.9834441
9.9534263
9.986459
34049.777
29107.694
22143.93
16663.806
12254.341
8864.5789
6393.7996
4622.552
3362.1668
2462.534
1815.2203
1344.6575
1000.469
746.74864
559.16757
420.18858
317.04506
240.59883
183.94182
142.03404
110.90096
87.914845
70.907217
58.338591
48.97889
41.940739
36.575963
32.404835
29.119256
26.468092
24.269417
22.413817
20.82496
19.448341
18.245106
17.187067
16.253243
15.427379
14.696645
14.050915
13.481369
12.980128
12.540446
12.156343
11.822288
11.533217
11.284414
11.071527
10.892313
10.742721
10.618636
10.51505
10.429342
10.360817
10.309011
10.271725
10.245689
10.227116
10.212355
10.199471
10.186091
10.172635
10.155705
10.138619
10.114987
10.09495
10.063924
10.04392
10.017694
10.004211
9.9803603
9.9759611
9.9531506
9.9615602
9.9395599
9.9645136
9.9434389
9.9846146
9.9546789
9.9878681
37483.729
20732.697
13232.484
8264.5992
4446.6774
2101.5671
951.91858
462.7536
268.15484
185.28022
145.86505
121.27758
104.91459
91.414889
80.921952
72.62963
65.168315
59.168092
53.586455
49.063343
44.772683
41.220579
37.886557
35.064962
32.447756
30.126608
28.009215
26.072121
24.343139
22.775593
21.350071
20.065288
18.908748
17.867271
16.929891
16.087052
15.330329
14.651886
14.045153
13.504595
13.024248
12.598709
12.223401
11.89398
11.606298
11.356401
11.140546
10.955242
10.799852
10.669888
10.56094
10.468783
10.392459
10.332982
10.289009
10.257977
10.236455
10.220845
10.207705
10.195817
10.182747
10.169685
10.152457
10.135699
10.111413
10.092208
10.060226
10.042171
10.01562
10.003791
9.9791063
9.9765108
9.952617
9.962846
9.9395567
9.9663303
9.9438332
9.9864955
9.9553011
9.9894245
34691.175
24286.399
13976.71
7494.3258
3296.6941
1249.8097
499.13699
264.72864
189.56366
152.26018
130.55748
112.02862
99.04683
86.815791
77.532261
70.069866
62.987115
57.488406
52.084162
47.876608
43.664803
40.341378
37.022292
34.385165
31.766346
29.562472
27.447355
25.581205
23.883267
22.356897
20.982311
19.744192
18.629051
17.624372
16.719506
15.905312
15.173754
14.517425
13.930182
13.406579
12.940912
12.528172
12.163997
11.844226
11.564856
11.322098
11.112338
10.932213
10.781398
10.655084
10.548145
10.457556
10.383295
10.326027
10.283877
10.254281
10.233822
10.218947
10.206294
10.194731
10.18189
10.168973
10.151861
10.135143
10.110951
10.091742
10.060117
10.042495
10.015942
10.004663
9.9796113
9.9776761
9.9534428
9.9641993
9.940603
9.9678106
9.9449521
9.9881932
9.9563954
9.9910096
36751.219
23757.343
13428.588
6966.4988
2968.0832
1087.8641
442.74289
247.55192
183.02294
147.7017
126.74685
108.6242
96.09856
84.49869
76.000016
68.102871
61.688781
55.889466
51.005533
46.614076
42.808995
39.359176
36.338821
33.584878
31.133228
28.887594
26.873109
25.057919
23.426845
21.958211
20.635765
19.443642
18.368392
17.398478
16.523943
15.736264
15.027915
14.391956
13.82263
13.314654
12.862597
12.461782
12.108017
11.797276
11.525716
11.289679
11.085671
10.910446
10.763981
10.640943
10.535796
10.446719
10.37489
10.319736
10.279308
10.251045
10.231581
10.217358
10.20516
10.193854
10.181245
10.168397
10.151437
10.134662
10.110644
10.091298
10.060173
10.042529
10.016274
10.004829
9.9802781
9.9779863
9.9543368
9.9648074
9.941609
9.9688693
9.94605
9.9896587
9.9574753
9.9924786
37333.906
23338.556
12944.956
6348.2255
2449.9736
831.22274
358.56016
222.03738
174.45657
142.07458
123.12229
105.13723
93.307259
81.898609
73.838435
66.121046
59.989335
54.351893
49.664974
45.418531
41.740481
38.435109
35.501622
32.859156
30.476009
28.316363
26.36707
24.61213
23.03443
21.61359
20.333337
19.178326
18.135968
17.19524
16.346618
15.581968
14.894062
14.276285
13.723109
13.229289
12.789667
12.399821
12.055673
11.75332
11.489038
11.259283
11.060666
10.890041
10.747679
10.627441
10.523892
10.436856
10.367367
10.314182
10.275342
10.2483
10.229733
10.216091
10.204285
10.193193
10.18077
10.167966
10.151122
10.13428
10.110406
10.090916
10.060334
10.04266
10.01676
10.005551
9.980931
9.9788359
9.9552595
9.9657573
9.9426726
9.9700238
9.9471672
9.9911664
9.9585636
9.9939545
38310.579
22971.871
12410.707
5771.0113
2107.6568
697.95142
321.53055
211.69896
169.82663
139.10178
120.51543
102.86144
91.27725
79.968061
72.182319
64.555658
58.639873
53.129575
48.593321
44.451634
40.884227
37.659046
34.810327
32.234976
29.919499
27.815632
25.921147
24.216667
22.684475
21.30417
20.060172
18.937578
17.924229
17.009437
16.183976
15.44001
14.770551
14.169263
13.63077
13.149868
12.721676
12.341957
12.006719
11.712163
11.45467
11.230792
11.037229
10.870927
10.73244
10.614502
10.512481
10.42798
10.360702
10.309341
10.271961
10.246032
10.228272
10.215138
10.203666
10.192742
10.180467
10.167675
10.150923
10.133988
10.110247
10.090593
10.06053
10.042807
10.017185
10.005535
9.9816111
9.9793277
9.9562019
9.9665619
9.9437112
9.9711214
9.9482863
9.9926458
9.9596519
9.9954121
39109.114
22496.795
11813.786