/*--------------------------------*- C++ -*----------------------------------*\
  =========                 |
  \\      /  F ield         | OpenFOAM: The Open Source CFD Toolbox
   \\    /   O peration     | Website:  https://openfoam.org
    \\  /    A nd           | Version:  6
     \\/     M anipulation  |
\*---------------------------------------------------------------------------*/
FoamFile
{
    version     2.0;
    format      ascii;
    class       volScalarField;
    location    "350";
    object      p;
}
// * * * * * * * * * * * * * * * * * * * * * * * * * * * * * * * * * * * * * //

dimensions      [1 -1 -2 0 0 0 0];

internalField   nonuniform List<scalar> 
16000
(
98822.829
98883.119
98887.312
98945.636
98958.156
99011.584
99033.558
99082.507
99112.639
99158.897
99195.244
99240.611
99281.48
99327.242
99371.418
99418.292
99464.962
99513.214
99561.808
99611.401
99661.455
99712.148
99763.214
99814.634
99866.229
99917.9
99969.491
100020.86
100071.86
100122.34
100172.12
100221.04
100268.96
100315.69
100361.08
100404.98
100447.23
100487.73
100526.32
100562.9
100597.35
100629.6
100659.55
100687.16
100712.37
100735.15
100755.48
100773.36
100788.8
100801.81
100812.43
100820.7
100826.67
100830.4
100831.95
100831.39
100828.8
100824.24
100817.81
100809.58
100799.62
100788.04
100774.85
100760.27
100744.07
100726.91
100707.69
100688.62
100665.74
100646.4
100617.31
100602.43
100558.87
100563.68
100479.93
100542.86
100356.62
100567.52
100174.87
100618.45
98862.156
98926.769
98930.937
98993.941
99006.753
99064.548
99087.556
99140.34
99172.244
99221.881
99260.537
99308.995
99352.48
99401.172
99448.088
99497.785
99547.189
99598.153
99649.379
99701.523
99754.025
99807.041
99860.288
99913.724
99967.152
100020.45
100073.44
100125.98
100177.87
100228.96
100279.07
100328.02
100375.65
100421.78
100466.25
100508.92
100549.63
100588.26
100624.7
100658.86
100690.64
100719.98
100746.83
100771.16
100792.95
100812.19
100828.91
100843.12
100854.87
100864.21
100871.19
100875.89
100878.38
100878.73
100877.03
100873.36
100867.82
100860.47
100851.41
100840.72
100828.48
100814.77
100799.65
100783.23
100765.47
100746.64
100726.37
100705.5
100682.5
100660.39
100633.36
100612.62
100576.22
100566.99
100502.67
100536.75
100387.72
100551.44
100203.5
100607.51
98922.311
98992.203
98996.371
99064.458
99077.992
99140.233
99164.821
99221.421
99255.6
99308.609
99349.968
99401.546
99447.924
99499.598
99549.43
99601.997
99654.225
99707.91
99761.779
99816.427
99871.304
99926.523
99981.79
100037.03
100092.04
100146.65
100200.69
100253.96
100306.29
100357.48
100407.34
100455.7
100502.37
100547.19
100590
100630.65
100669.01
100704.96
100738.42
100769.31
100797.58
100823.17
100846.09
100866.33
100883.9
100898.84
100911.21
100921.05
100928.44
100933.47
100936.22
100936.78
100935.26
100931.74
100926.33
100919.13
100910.23
100899.72
100887.7
100874.24
100859.43
100843.34
100826.03
100807.59
100788.02
100767.45
100745.77
100723.29
100699.44
100675.42
100648.75
100624.52
100591.83
100573.71
100521.46
100535.61
100413.33
100539.73
100230
100598.97
99005.393
99080.992
99085.145
99158.84
99173.163
99240.305
99266.655
99327.437
99364.16
99420.844
99465.208
99520.178
99569.737
99624.637
99677.629
99733.269
99788.504
99845.051
99901.666
99958.875
100016.13
100073.51
100130.69
100187.56
100243.91
100299.54
100354.24
100407.81
100460.05
100510.76
100559.72
100606.77
100651.71
100694.38
100734.64
100772.35
100807.4
100839.7
100869.19
100895.81
100919.55
100940.41
100958.42
100973.6
100986.03
100995.77
101002.91
101007.55
101009.8
101009.78
101007.59
101003.36
100997.21
100989.26
100979.61
100968.39
100955.69
100941.62
100926.26
100909.7
100892.02
100873.29
100853.56
100832.9
100811.34
100788.93
100765.66
100741.64
100716.65
100691.14
100664.09
100637.67
100606.67
100583.09
100538.37
100537.77
100436.6
100533.68
100256
100600.07
99110.499
99192.523
99196.761
99276.751
99292.123
99364.692
99393.207
99458.567
99498.297
99558.989
99606.795
99665.454
99718.56
99776.945
99833.373
99892.281
99950.695
100010.21
100069.63
100129.39
100188.96
100248.34
100307.22
100365.45
100422.76
100478.95
100533.79
100587.06
100638.53
100688
100735.25
100780.09
100822.36
100861.91
100898.59
100932.31
100962.99
100990.55
101014.99
101036.29
101054.46
101069.57
101081.68
101090.88
101097.27
101100.96
101102.09
101100.79
101097.22
101091.5
101083.79
101074.24
101062.98
101050.14
101035.86
101020.25
101003.43
100985.49
100966.53
100946.64
100925.88
100904.31
100882
100858.98
100835.29
100810.96
100785.99
100760.41
100734.13
100707.3
100679.5
100651.55
100621.15
100594
100554.36
100542.71
100458.03
100531.41
100280.64
100604.33
99238.599
99327.877
99332.411
99419.553
99436.332
99514.971
99546.149
99616.548
99659.818
99724.89
99776.614
99839.288
99896.321
99958.46
100018.59
100080.96
100142.7
100205.26
100267.49
100329.74
100391.48
100452.64
100512.9
100572.07
100629.85
100686.02
100740.33
100792.52
100842.37
100889.66
100934.19
100975.78
101014.27
101049.53
101081.46
101109.98
101135.07
101156.7
101174.89
101189.71
101201.2
101209.49
101214.69
101216.93
101216.37
101213.18
101207.52
101199.57
101189.52
101177.52
101163.76
101148.4
101131.59
101113.49
101094.23
101073.93
101052.72
101030.68
101007.92
100984.5
100960.5
100935.97
100910.96
100885.5
100859.6
100833.3
100806.57
100779.43
100751.82
100723.76
100695.07
100665.97
100635.59
100606.14
100569.91
100550.15
100478.86
100531.99
100305.73
100612.01
99392.422
99490.365
99495.263
99590.264
99608.612
99693.769
99727.998
99803.739
99851
99920.714
99976.763
100043.7
100104.97
100171.07
100235.11
100301.04
100366.18
100431.76
100496.72
100561.27
100624.9
100687.47
100748.63
100808.15
100865.71
100921.07
100973.93
101024.05
101071.2
101115.16
101155.74
101192.79
101226.17
101255.8
101281.61
101303.59
101321.75
101336.13
101346.83
101353.94
101357.61
101357.99
101355.27
101349.63
101341.27
101330.42
101317.28
101302.06
101284.96
101266.2
101245.96
101224.43
101201.76
101178.12
101153.64
101128.46
101102.68
101076.4
101049.72
101022.69
100995.37
100967.81
100940.05
100912.1
100883.97
100855.67
100827.19
100798.5
100769.56
100740.34
100710.73
100680.74
100650.08
100619.18
100585.21
100559.45
100499.47
100534.56
100331.11
100622.32
99573.462
99681.099
99686.045
99789.762
99809.97
99902.176
99939.996
100021.47
100073.31
100148.02
100208.89
100280.41
100346.29
100416.59
100484.74
100554.35
100622.9
100691.43
100758.91
100825.47
100890.55
100953.98
101015.36
101074.42
101130.83
101184.31
101234.57
101281.36
101324.45
101363.65
101398.81
101429.79
101456.52
101478.96
101497.13
101511.06
101520.83
101526.58
101528.45
101526.62
101521.31
101512.72
101501.11
101486.72
101469.79
101450.6
101429.37
101406.36
101381.79
101355.89
101328.86
101300.89
101272.15
101242.81
101212.99
101182.82
101152.4
101121.84
101091.19
101060.52
101029.88
100999.3
100968.8
100938.38
100908.05
100877.8
100847.6
100817.41
100787.2
100756.9
100726.42
100695.7
100664.65
100632.94
100600.43
100570.38
100520.09
100539.21
100357.78
100635.25
99780.708
99899.471
99904.827
100018.44
100041.15
100141.21
100183.44
100271.23
100328.42
100408.61
100474.93
100551.42
100622.32
100697.06
100769.5
100842.83
100914.72
100985.98
101055.63
101123.68
101189.56
101253.03
101313.66
101371.15
101425.15
101475.37
101521.53
101563.4
101600.76
101633.47
101661.43
101684.56
101702.87
101716.4
101725.22
101729.48
101729.34
101725.01
101716.71
101704.73
101689.32
101670.79
101649.42
101625.52
101599.38
101571.29
101541.52
101510.35
101478.01
101444.74
101410.75
101376.23
101341.35
101306.25
101271.08
101235.93
101200.92
101166.11
101131.56
101097.32
101063.43
101029.89
100996.73
100963.92
100931.47
100899.35
100867.51
100835.92
100804.51
100773.23
100741.98
100710.69
100679.26
100647.22
100615.59
100582.77
100540.74
100545.68
100386.06
100649.38
100016.52
100148.15
100154.1
100278.87
100304.74
100413.43
100460.95
100555.63
100618.98
100705.13
100777.49
100859.32
100935.57
101014.94
101091.72
101168.67
101243.63
101317.19
101388.4
101457.13
101522.83
101585.16
101643.7
101698.11
101748.05
101793.22
101833.39
101868.34
101897.94
101922.1
101940.79
101954.05
101961.97
101964.67
101962.35
101955.25
101943.63
101927.8
101908.07
101884.79
101858.3
101828.97
101797.12
101763.12
101727.28
101689.91
101651.33
101611.79
101571.56
101530.86
101489.89
101448.85
101407.88
101367.13
101326.71
101286.72
101247.23
101208.32
101170.02
101132.36
101095.35
101059.01
101023.32
100988.27
100953.83
100919.96
100886.62
100853.74
100821.28
100789.14
100757.24
100725.54
100693.81
100661.81
100630.68
100596.42
100561.28
100553.88
100416.36
100664.24
100282.88
100429.28
100436.03
100573.31
100603.16
100721.33
100775.18
100877.37
100947.79
101040.41
101119.41
101206.93
101288.81
101372.85
101453.87
101534.1
101611.6
101686.69
101758.47
101826.68
101890.75
101950.3
102004.91
102054.23
102097.94
102135.79
102167.6
102193.24
102212.65
102225.87
102232.97
102234.11
102229.49
102219.37
102204.08
102183.94
102159.35
102130.7
102098.39
102062.85
102024.48
101983.69
101940.87
101896.38
101850.57
101803.78
101756.3
101708.41
101660.34
101612.31
101564.53
101517.14
101470.3
101424.11
101378.68
101334.08
101290.37
101247.59
101205.77
101164.91
101125.02
101086.08
101048.07
101010.96
100974.71
100939.27
100904.58
100870.59
100837.22
100804.39
100772
100740.01
100708.15
100676.47
100645.61
100611.06
100581.44
100563.55
100447.62
100678.7
100581.17
100744.87
100752.92
100904.36
100939.33
101067.97
101129.42
101239.82
101318.29
101417.92
101504.13
101597.59
101685.17
101773.72
101858.54
101941.38
102020.44
102095.82
102166.63
102232.52
102292.92
102347.43
102395.64
102437.23
102471.97
102499.68
102520.28
102533.77
102540.23
102539.82
102532.78
102519.41
102500.07
102475.16
102445.11
102410.41
102371.52
102328.94
102283.16
102234.64
102183.86
102131.24
102077.2
102022.12
101966.35
101910.21
101853.99
101797.95
101742.31
101687.26
101632.98
101579.59
101527.22
101475.95
101425.86
101377
101329.4
101283.07
101238.04
101194.28
101151.78
101110.51
101070.43
101031.51
100993.67
100956.88
100921.06
100886.14
100852.05
100818.7
100786.01
100753.9
100722.1
100690.93
100660.25
100626.38
100600.97
100574.45
100478.76
100691.97
100915.08
101098.81
101108.71
101276.04
101317.43
101457.51
101527.93
101647.24
101734.69
101841.77
101935.55
102034.96
102127.99
102220.48
102308.19
102392.39
102471.41
102545.15
102612.73
102673.75
102727.65
102774.07
102812.66
102843.21
102865.58
102879.76
102885.83
102883.96
102874.4
102857.52
102833.72
102803.48
102767.32
102725.79
102679.47
102628.91
102574.72
102517.44
102457.61
102395.76
102332.37
102267.89
102202.72
102137.24
102071.79
102006.65
101942.09
101878.34
101815.59
101754
101693.7
101634.8
101577.37
101521.49
101467.2
101414.51
101363.43
101313.97
101266.1
101219.8
101175.04
101131.76
101089.91
101049.44
101010.29
100972.39
100935.67
100900.05
100865.45
100831.78
100798.98
100766.92
100735.42
100704.9
100674.46
100642.02
100619.67
100586.39
100509.36
100704.74
101288
101495.01
101507.51
101692.6
101742.04
101894.58
101975.47
102104.35
102201.64
102316.44
102417.84
102522.84
102620.57
102715.81
102804.78
102888.29
102964.78
103034
103095.11
103147.72
103191.35
103225.73
103250.65
103266.09
103272.1
103268.87
103256.71
103236.02
103207.3
103171.1
103128.05
103078.79
103024.02
102964.41
102900.66
102833.43
102763.35
102691.04
102617.06
102541.94
102466.16
102390.15
102314.29
102238.92
102164.35
102090.82
102018.56
101947.74
101878.53
101811.03
101745.35
101681.54
101619.66
101559.73
101501.77
101445.77
101391.71
101339.57
101289.31
101240.87
101194.22
101149.29
101106.01
101064.32
101024.14
100985.41
100948.04
100911.96
100877.08
100843.32
100810.61
100778.8
100747.83
100718.06
100688.03
100657.61
100637.29
100599.06
100539.03
100716.57
101704.11
101938.29
101954.49
102159.39
102218.9
102384.83
102477.81
102616.77
102724.45
102846.9
102955.45
103064.99
103165.81
103261.66
103349.18
103428.77
103499.03
103559.61
103609.8
103649.29
103677.79
103695.21
103701.62
103697.22
103682.36
103657.54
103623.33
103580.41
103529.53
103471.47
103407.06
103337.12
103262.47
103183.9
103102.16
103017.98
102932.02
102844.89
102757.15
102669.28
102581.76
102494.95
102409.18
102324.75
102241.9
102160.82
102081.7
102004.65
101929.78
101857.15
101786.83
101718.83
101653.18
101589.85
101528.83
101470.09
101413.59
101359.27
101307.08
101256.96
101208.83
101162.63
101118.28
101075.7
101034.81
100995.54
100957.8
100921.52
100886.6
100852.97
100820.56
100789.21
100758.98
100730.04
100700.71
100672.7
100653.56
100612.28
100567.94
100726.76
102168.64
102434.53
102455.92
102682.67
102754.66
102934.77
103041.48
103190.9
103308.96
103438.23
103552.51
103664.4
103765.42
103858.32
103940.16
104011.06
104069.81
104116.12
104149.53
104169.93
104177.36
104172.05
104154.43
104125.07
104084.69
104034.13
103974.28
103906.12
103830.63
103748.82
103661.66
103570.11
103475.08
103377.39
103277.85
103177.14
103075.93
102974.78
102874.19
102774.59
102676.38
102579.86
102485.29
102392.89
102302.83
102215.26
102130.28
102047.96
101968.36
101891.49
101817.36
101745.96
101677.26
101611.22
101547.79
101486.92
101428.54
101372.58
101318.96
101267.61
101218.44
101171.37
101126.32
101083.2
101041.93
101002.42
100964.59
100928.36
100893.65
100860.39
100828.48
100797.8
100768.51
100740.47
100712.18
100686.76
100668.06
100625.84
100595.89
100734.74
102687.83
102990.5
103018.98
103269.51
103357.08
103552.06
103673.63
103833.38
103960.84
104094.73
104211.78
104322.19
104418.66
104503.11
104573.05
104628.52
104668.65
104693.4
104702.7
104696.89
104676.44
104642.09
104594.72
104535.37
104465.15
104385.27
104296.95
104201.4
104099.82
103993.35
103883.07
103769.97
103654.99
103538.93
103422.54
103306.47
103191.28
103077.47
102965.44
102855.53
102748.07
102643.24
102541.21
102442.14
102346.13
102253.25
102163.54
102077.02
101993.68
101913.5
101836.44
101762.46
101691.48
101623.45
101558.28
101495.9
101436.21
101379.14
101324.59
101272.47
101222.69
101175.15
101129.77
101086.46
101045.12
101005.68
100968.04
100932.13
100897.87
100865.19
100833.99
100804.19
100775.99
100748.94
100722.03
100699.22
100680.33
100639.02
100622.05
100740.43
103269.57
103615.64
103654.78
103930.58
104036.96
104247.16
104382.57
104549.41
104684.15
104818.89
104933.61
105036.33
105120.94
105188.82
105238.16
105269.15
105281.56
105275.83
105252.55
105212.66
105157.28
105087.71
105005.39
104911.8
104808.46
104696.9
104578.56
104454.83
104327.01
104196.27
104063.7
103930.24
103796.75
103663.95
103532.48
103402.87
103275.57
103150.94
103029.28
102910.82
102795.79
102684.25
102576.29
102471.99
102371.38
102274.46
102181.21
102091.58
102005.54
101923
101843.9
101768.15
101695.66
101626.34
101560.08
101496.79
101436.37
101378.71
101323.72
101271.28
101221.31
101173.69
101128.35
101085.17
101044.08
101004.99
100967.81
100932.47
100898.89
100867
100836.69
100807.98
100780.97
100755.03
100729.82
100709.42
100690.01
100651.19
100645.28
100743.5
103929.09
104325.97
104382.18
104682.24
104805.43
105024.97
105174.82
105346.53
105482.5
105610.91
105714.41
105799.43
105861.26
105901.21
105918.4
105913.66
105887.63
105841.56
105776.89
105695.33
105598.7
105488.91
105367.89
105237.51
105099.58
104955.78
104807.68
104656.68
104504.03
104350.84
104198.06
104046.52
103896.9
103749.79
103605.64
103464.85
103327.72
103194.47
103065.26
102940.22
102819.46
102702.92
102590.63
102482.59
102378.76
102279.07
102183.45
102091.81
102004.06
101920.1
101839.81
101763.09
101689.82
101619.88
101553.16
101489.55
101428.93
101371.18
101316.19
101263.87
101214.1
101166.77
101121.8
101079.08
101038.53
101000.06
100963.58
100929.03
100896.34
100865.43
100836.21
100808.72
100783
100758.3
100735.01
100716.69
100696.79
100661.84
100664.57
100743.54
104687.49
105132.48
105201.8
105519.89
105667.44
105905.73
106059.46
106226.46
106352.86
106462.25
106540.83
106593.77
106618.18
106615.87
106587.32
106534.37
106458.86
106363.07
106249.37
106120.26
105978.19
105825.54
105664.55
105497.3
105325.67
105151.33
104975.72
104800.13
104625.63
104453.11
104283.32
104116.86
103954.22
103795.78
103641.82
103492.55
103348.12
103208.59
103074.02
102944.44
102819.81
102700
102584.96
102474.64
102368.91
102267.67
102170.81
102078.19
101989.69
101905.17
101824.5
101747.54
101674.17
101604.24
101537.64
101474.23
101413.9
101356.51
101301.97
101250.14
101200.93
101154.23
101109.93
101067.96
101028.21
100990.6
100955.05
100921.5
100889.88
100860.11
100832.12
100806
100781.63
100758.32
100737.04
100720.52
100700.86
100670.13
100678.91
100740.27
105540.49
106034.44
106127.28
106480.69
106645.44
106877.25
107029.24
107176.29
107277.4
107350.26
107385.6
107388.31
107357.9
107297.44
107209.18
107096.35
106962.09
106809.7
106642.37
106463.16
106274.89
106080.12
105881.1
105679.81
105477.96
105276.97
105078.02
104882.08
104689.94
104502.21
104319.36
104141.75
103969.61
103803.13
103642.39
103487.45
103338.29
103194.84
103057.07
102924.93
102798.23
102676.76
102560.46
102449.2
102342.82
102241.17
102144.1
102051.44
101963.04
101878.76
101798.42
101721.9
101649.03
101579.68
101513.71
101450.99
101391.38
101334.77
101281.03
101230.05
101181.72
101135.93
101092.59
101051.61
101012.88
100976.35
100941.92
100909.54
100879.13
100850.63
100824
100799.33
100776.37
100754.6
100735.39
100720.55
100701.4
100674.09
100688.1
100734.54
106526.41
107079.24
107201.72
107557
107727.55
107940.3
108069.24
108174.55
108225.71
108237.94
108206.72
108138.19
108034.76
107901.27
107741.89
107561.16
107363.25
107152.15
106931.41
106704.2
106473.25
106240.88
106009.04
105779.31
105552.96
105331.03
105114.27
104903.29
104698.5
104500.22
104308.61
104123.78
103945.76
103774.53
103610
103452.09
103300.65
103155.5
103016.56
102883.66
102756.48
102634.84
102518.62
102407.64
102301.71
102200.65
102104.28
102012.41
101924.88
101841.52
101762.16
101686.65
101614.82
101546.54
101481.65
101420.03
101361.53
101306.04
101253.43
101203.6
101156.42
101111.8
101069.64
101029.85
100992.35
100957.05
100923.9
100892.81
100863.74
100836.61
100811.42
100788.22
100766.69
100746.54
100729.33
100715.72
100697.34
100674.61
100691.11
100724.65
107677.47
108273.31
108418.64
108756.81
108908.06
109070.45
109141.79
109172.07
109141.46
109064.93
108943.22
108784.52
108594.13
108378.54
108143.29
107893.62
107634.06
107368.54
107100.33
106832.13
106566.12
106304.02
106047.15
105796.52
105552.86
105316.68
105088.32
104867.96
104655.7
104451.53
104255.37
104067.13
103886.62
103713.68
103548.1
103389.67
103238.12
103093.25
102954.9
102822.8
102696.55
102576.03
102461.04
102351.39
102246.85
102147.24
102052.34
101961.98
101875.96
101794.11
101716.27
101642.26
101571.92
101505.12
101441.7
101381.52
101324.46
101270.39
101219.19
101170.75
101124.95
101081.71
101040.92
101002.5
100966.37
100932.45
100900.68
100871
100843.33
100817.64
100793.93
100772.2
100752.12
100733.66
100718.27
100705.65
100688.61
100670.72
100686.91
100709.33
109018.33
109610.79
109744.57
110027.44
110119.5
110189.88
110162.98
110082.02
109938.88
109749.95
109521.15
109262.57
108981.48
108685.06
108379.03
108068.31
107756.78
107447.52
107142.91
106844.71
106554.22
106272.35
105999.69
105736.61
105483.29
105239.75
105005.94
104781.7
104566.85
104361.13
104164.29
103976.04
103796.08
103624.13
103459.89
103303.04
103153.28
103010.41
102874.19
102744.19
102620.09
102501.77
102389.01
102281.57
102179.24
102081.8
101989.04
101900.79
101816.83
101737.01
101661.14
101589.05
101520.6
101455.63
101394
101335.58
101280.22
101227.82
101178.26
101131.42
101087.2
101045.5
101006.24
100969.32
100934.68
100902.24
100871.93
100843.71
100817.5
100793.28
100771.05
100750.76
100732.13
100715.33
100701.54
100689.75
100674.46
100661.07
100675.44
100688.66
110460.18
111028.67
111118.08
111288.06
111267.11
111193.19
111023.92
110798.77
110521.19
110208.84
109870.87
109517.54
109156
108792.36
108431.07
108075.53
107728.14
107390.58
107063.96
106748.95
106445.89
106154.9
105875.9
105608.71
105353.06
105108.6
104874.98
104651.81
104438.7
104235.23
104041.02
103855.68
103678.84
103510.15
103349.23
103195.73
103049.35
102909.88
102776.97
102650.13
102529.18
102413.96
102304.21
102199.71
102100.23
102005.55
101915.47
101829.8
101748.35
101670.94
101597.4
101527.58
101461.31
101398.45
101338.87
101282.42
101228.99
101178.45
101130.69
101085.61
101043.1
101003.07
100965.44
100930.12
100897.04
100866.13
100837.33
100810.59
100785.85
100763.08
100742.3
100723.39
100706.16
100690.93
100678.48
100667.46
100654.12
100644.48
100656.12
100662.28
112016.99
112462.7
112442.53
112407.32
112205.96
111939.34
111599.44
111220.08
110811.69
110389.59
109962.34
109537.48
109119.79
108712.8
108318.67
107938.76
107573.79
107224
106889.37
106569.64
106264.43
105973.24
105695.55
105430.79
105178.39
104937.81
104708.48
104489.89
104281.53
104082.92
103893.59
103713.12
103541.09
103377.13
103220.81
103071.8
102929.84
102794.66
102665.78
102542.84
102425.7
102314.15
102207.95
102106.85
102010.65
101919.12
101832.08
101749.33
101670.68
101595.97
101525.03
101457.71
101393.85
101333.31
101275.97
101221.68
101170.33
101121.8
101075.99
101032.79
100992.1
100953.85
100917.93
100884.28
100852.82
100823.49
100796.23
100770.99
100747.71
100726.38
100706.98
100689.4
100673.54
100659.73
100648.42
100638.19
100626.83
100620.11
100628.65
100630.05
113558.56
113601.24
113380.38
113068.39
112655.34
112196.62
111706.01
111205.77
110705.79
110215.13
109738.5
109279.19
108838.76
108417.93
108016.7
107634.75
107271.45
106926.06
106597.79
106285.79
105989.16
105707.09
105438.78
105183.49
104940.52
104709.23
104488.98
104279.23
104079.42
103889.06
103707.67
103534.83
103370.12
103213.14
103063.49
102920.87
102785.06
102655.67
102532.21
102414.49
102302.37
102195.6
102093.95
101997.19
101905.13
101817.56
101734.28
101655.13
101579.92
101508.5
101440.7
101376.39
101315.4
101257.62
101202.91
101151.15
101102.23
101056.03
101012.45
100971.4
100932.77
100896.49
100862.48
100830.65
100800.95
100773.31
100747.67
100723.99
100702.2
100682.31
100664.27
100647.98
100633.41
100620.86
100610.48
100600.97
100591.35
100586.89
100593.31
100590.44
114288.44
113989.7
113549.12
113029.18
112471.97
111906.69
111347.45
110804.58
110282.52
109783.95
109309.42
108858.79
108431.26
108025.84
107641.36
107276.64
106930.52
106601.87
106289.62
105992.84
105710.7
105442.32
105186.94
104943.83
104712.31
104491.75
104281.59
104081.29
103890.34
103708.28
103534.66
103369.1
103211.21
103060.57
102916.88
102779.95
102649.48
102524.99
102406.19
102292.97
102185.11
102082.39
101984.58
101891.48
101802.9
101718.64
101638.52
101562.38
101490.05
101421.38
101356.22
101294.42
101235.85
101180.39
101127.9
101078.27
101031.4
100987.16
100945.48
100906.24
100869.37
100834.77
100802.37
100772.09
100743.88
100717.66
100693.39
100671.01
100650.47
100631.76
100614.83
100599.6
100586.08
100574.45
100564.69
100556.01
100548.15
100544.17
100546.46
100544.07
113290.81
112994.68
112554.13
112044.02
111514.37
110985.81
110470.11
109973.28
109497.51
109043.83
108612.01
108201.47
107811.32
107440.59
107088.24
106753.27
106434.71
106131.63
105843.15
105568.37
105306.63
105057.26
104819.63
104593.13
104377.21
104171.34
103975.01
103787.76
103609.16
103438.79
103276.28
103121.28
102973.44
102832.42
102697.98
102569.88
102447.72
102331.12
102219.91
102113.93
102012.98
101916.83
101825.29
101738.18
101655.31
101576.5
101501.61
101430.45
101362.9
101298.8
101238.01
101180.4
101125.84
101074.22
101025.41
100979.31
100935.81
100894.81
100856.22
100819.94
100785.89
100753.99
100724.16
100696.33
100670.45
100646.43
100624.24
100603.82
100585.12
100568.13
100552.78
100539.04
100526.9
100516.45
100507.6
100500.05
100493.82
100490.12
100489.64
100488.38
109300.21
110028.16
110072.69
110003.2
109777.03
109494.66
109169.66
108828.57
108480.03
108132.75
107790.66
107456.84
107132.84
106819.7
106517.87
106227.52
105948.63
105681.03
105424.49
105178.67
104943.17
104717.62
104501.61
104294.79
104096.8
103907.28
103725.9
103552.34
103386.28
103227.44
103075.55
102930.32
102791.47
102658.78
102532.08
102411.08
102295.39
102184.82
102079.27
101978.56
101882.51
101790.93
101703.66
101620.54
101541.42
101466.13
101394.53
101326.49
101261.87
101200.53
101142.35
101087.22
101035.01
100985.6
100938.9
100894.8
100853.2
100814.01
100777.13
100742.48
100709.97
100679.53
100651.08
100624.55
100599.89
100577.02
100555.89
100536.45
100518.65
100502.46
100487.83
100474.73
100463.14
100453.07
100444.46
100437.24
100431.47
100427.33
100424.95
100423.88
110688.9
110736.28
110614.39
110357.54
109979.48
109531.24
109040.9
108529.32
108008.48
107484.46
106971.58
106469.12
105987.7
105522.96
105079.59
104668.27
104285.08
103943.05
103635.46
103360.52
103117.48
102901.88
102711.82
102544.35
102396.1
102263.65
102143.78
102034.76
101936.88
101852.48
101776.72
101706.76
101641.75
101580.72
101523.01
101468.14
101415.79
101365.73
101317.82
101271.9
101227.91
101185.77
101145.41
101106.91
101070.15
101035.09
101001.68
100969.86
100939.56
100910.73
100883.29
100857.19
100832.3
100808.64
100785.96
100764.44
100743.54
100723.87
100704.21
100686.19
100667
100650.72
100630.82
100616.91
100594.33
100584.51
100555.76
100553.52
100512.99
100525.69
100462.91
100502.65
100401.65
100487.73
100324.44
100486.37
100226.19
100503.16
100101.75
100547.81
96858.089
97061.729
97468.204
97910.015
98383.301
98887.684
99317.334
99686.148
100032.11
100342.69
100610.81
100845.08
101046.82
101218.94
101365.28
101486.03
101585.18
101663.62
101724.19
101767.74
101797.07
101812.77
101817.88
101811.49
101795.4
101771.51
101740.83
101707.67
101671.31
101632.44
101591.52
101548.93
101504.73
101459.94
101415.23
101371.02
101327.67
101285.4
101244.43
101204.86
101166.67
101129.91
101094.58
101060.68
101028.2
100997.1
100967.38
100938.98
100911.86
100885.99
100861.28
100837.71
100815.16
100793.67
100772.98
100753.28
100734.06
100715.9
100697.66
100680.87
100662.91
100647.52
100628.77
100615.33
100594.01
100584.07
100557
100554.13
100515.97
100526.47
100467.11
100503.54
100406.8
100489.16
100329.81
100488.69
100229.77
100508.45
100102.15
100555.61
104159.82
104195.24
104193.91
104163.7
104103.11
104019.85
103919.92
103807.41
103686.09
103560.53
103431.7
103302.6
103173.27
103045.92
102919.86
102800.03
102682.05
102572.77
102466.31
102370.12
102272.6
102186.89
102098.09
102021.97
101949.67
101886.09
101829.19
101773.22
101719.46
101657.59
101599.56
101544.88
101492.74
101443.11
101395.71
101350.35
101306.83
101265.06
101224.88
101186.27
101149.23
101113.68
101079.63
101046.98
101015.72
100985.81
100957.22
100929.92
100903.87
100879.03
100855.31
100832.71
100811.09
100790.48
100770.62
100751.72
100733.23
100715.77
100698.14
100681.94
100664.46
100649.54
100631.16
100618.06
100597.03
100587.23
100560.51
100557.5
100519.19
100529.55
100471.09
100505.93
100411.21
100490.75
100334.37
100489.86
100234.2
100509.95
100105.34
100558.38
101563.03
101565.26
101573.25
101588.59
101608.33
101629.06
101650.98
101674.54
101697.71
101721.13
101742.94
101763.99
101782.18
101797.88
101809.49
101818.14
101822.41
101822.79
101817.94
101808.9
101795.68
101778.89
101758.85
101733.79
101704.11
101670.69
101635.21
101596.98
101558.61
101520.19
101481.1
101442.02
101402.99
101364.2
101325.83
101288.05
101250.98
101214.77
101179.5
101145.26
101112.12
101080.11
101049.25
101019.57
100991.05
100963.7
100937.5
100912.43
100888.46
100865.55
100843.65
100822.74
100802.68
100783.53
100765.02
100747.37
100730.01
100713.61
100696.91
100681.59
100664.83
100650.65
100632.77
100620.29
100599.55
100590.32
100563.76
100561.14
100522.93
100533.57
100474.61
100510.22
100414.5
100495.1
100337.36
100494.24
100236.81
100514.05
100107.25
100562.14
101973.15
101981.06
101982.12
101980.46
101976.8
101970.88
101963.4
101955.73
101946.57
101936.77
101924.83
101912.89
101898.65
101884.25
101867.78
101848.62
101828.92
101805.46
101782.32
101754.69
101728.18
101696.82
101667.18
101633.08
101601.04
101565.64
101531.34
101496.56
101461.93
101427.19
101392.57
101358.17
101324.08
101290.39
101257.17
101224.5
101192.43
101161.03
101130.33
101100.42
101071.33
101043.11
101015.79
100989.4
100963.96
100939.47
100915.93
100893.35
100871.69
100850.94
100831.04
100811.99
100793.66
100776.1
100759.06
100742.75
100726.63
100711.34
100695.65
100681.21
100665.26
100651.76
100634.5
100622.51
100602.21
100593.31
100567
100564.57
100526.43
100537.16
100478.51
100513.85
100418.45
100498.59
100341.22
100497.36
100240.15
100517.24
100109.61
100565.26
101431.98
101437.43
101442.69
101450.21
101457.33
101464.59
101469.79
101476.45
101480.3
101485.74
101487.92
101490.33
101490.07
101489.81
101487.01
101483.76
101478.39
101472.55
101464.74
101456.24
101445.83
101434.87
101421.78
101407.8
101391.71
101374.51
101355.6
101335.51
101314.2
101291.96
101268.84
101245.03
101220.66
101195.88
101170.82
101145.64
101120.45
101095.39
101070.54
101046.05
101021.97
100998.39
100975.39
100953.01
100931.29
100910.27
100889.96
100870.38
100851.5
100833.33
100815.83
100798.98
100782.69
100767
100751.67
100736.93
100722.23
100708.21
100693.68
100680.25
100665.22
100652.48
100635.93
100624.48
100604.71
100596.15
100570.18
100567.92
100530.23
100540.78
100482.24
100517.49
100422.19
100502.17
100344.68
100500.79
100243.26
100520.47
100111.83
100568.25
101241.29
101248.4
101253.83
101259.91
101266.37
101272.57
101277.48
101282.81
101285.46
101289.86
101290.87
101294.56
101294.62
101296.75
101296.24
101295.67
101292.75
101290.06
101285.54
101280.57
101274.14
101266.85
101258.31
101248.74
101238.05
101226.31
101213.55
101199.84
101185.23
101169.79
101153.57
101136.66
101119.15
101101.13
101082.69
101063.93
101044.94
101025.82
101006.63
100987.53
100968.56
100949.82
100931.37
100913.27
100895.57
100878.31
100861.51
100845.19
100829.36
100814.02
100799.13
100784.7
100770.63
100756.98
100743.53
100730.48
100717.33
100704.68
100691.4
100679.04
100665
100653.05
100637.27
100626.35
100607.18
100598.89
100573.38
100571.16
100533.82
100544.3
100486.05
100520.95
100426.15
100505.55
100348.56
100503.93
100246.53
100523.5
100114.11
100571.01
100970.8
100977.98
100983.82
100990.74
100997.9
101005.23