/*--------------------------------*- C++ -*----------------------------------*\
  =========                 |
  \\      /  F ield         | OpenFOAM: The Open Source CFD Toolbox
   \\    /   O peration     | Website:  https://openfoam.org
    \\  /    A nd           | Version:  6
     \\/     M anipulation  |
\*---------------------------------------------------------------------------*/
FoamFile
{
    version     2.0;
    format      ascii;
    class       surfaceScalarField;
    location    "350";
    object      phi;
}
// * * * * * * * * * * * * * * * * * * * * * * * * * * * * * * * * * * * * * //

dimensions      [1 0 -1 0 0 0 0];

internalField   nonuniform List<scalar> 
31760
(
-0.00058757471
-0.038887734
0.039475303
-0.001307283
-0.043280726
0.044000427
-0.0020451216
-0.044345492
0.045083326
-0.0028377748
-0.046971595
0.047764242
-0.0036496546
-0.048805263
0.04961714
-0.0045171068
-0.051303451
0.052170898
-0.005413002
-0.053540526
0.054436421
-0.0063617749
-0.056129848
0.057078616
-0.0073476653
-0.058672277
0.059658168
-0.0083860631
-0.061442292
0.062480686
-0.0094693926
-0.064265944
0.065349274
-0.01060709
-0.067267493
0.068405186
-0.011795888
-0.070375377
0.071564177
-0.013042062
-0.073646324
0.074892494
-0.014345353
-0.077054214
0.078357508
-0.015710175
-0.080626756
0.081991575
-0.017137639
-0.084358425
0.085785891
-0.018631116
-0.088264469
0.089757943
-0.020192567
-0.092348562
0.093910016
-0.021825107
-0.096621528
0.098254065
-0.023530971
-0.10109093
0.1027968
-0.025313274
-0.10576685
0.10754915
-0.027174005
-0.11065887
0.1125196
-0.029116088
-0.11577754
0.11771962
-0.031141867
-0.12113358
0.12315936
-0.033253452
-0.12673917
0.12885075
-0.035453204
-0.13260587
0.13480562
-0.037743455
-0.13874709
0.14103734
-0.040125859
-0.14517637
0.14755877
-0.042601846
-0.15190837
0.15438435
-0.045173176
-0.15895806
0.16152939
-0.047840704
-0.16634208
0.16900961
-0.050605355
-0.17407691
0.17684156
-0.05346707
-0.18218108
0.18504279
-0.056425873
-0.19067349
0.19363229
-0.05948153
-0.1995742
0.20262986
-0.062633435
-0.20890415
0.21205605
-0.065879464
-0.21868662
0.22193265
-0.069217758
-0.22894487
0.23228316
-0.072645306
-0.23970376
0.24313131
-0.076158813
-0.25098953
0.25450303
-0.079753669
-0.26282997
0.26642483
-0.083425003
-0.27525375
0.27892508
-0.087166339
-0.28829216
0.2920335
-0.090970837
-0.30197662
0.30578111
-0.094830446
-0.31634148
0.32020109
-0.098735385
-0.33142195
0.33532689
-0.10267526
-0.34725564
0.35119551
-0.10663799
-0.36388151
0.36784424
-0.11060936
-0.38134124
0.38531261
-0.11457422
-0.39967754
0.40364241
-0.11851462
-0.41893616
0.42287655
-0.12241073
-0.43916469
0.44306081
-0.12623984
-0.4604133
0.4642424
-0.12997711
-0.48273412
0.48647139
-0.13359389
-0.50618262
0.5097994
-0.13705845
-0.53081676
0.53428131
-0.14033437
-0.55669756
0.55997348
-0.14338161
-0.58388765
0.58693489
-0.14615458
-0.61245399
0.61522696
-0.14860217
-0.64246694
0.64491454
-0.15066704
-0.67399865
0.67606352
-0.15228603
-0.70712739
0.70874639
-0.15338543
-0.74193164
0.74303105
-0.1538887
-0.77849834
0.7790016
-0.15369851
-0.81691003
0.81671985
-0.15272685
-0.85726578
0.85629412
-0.15083482
-0.89962952
0.89773749
-0.1479468
-0.94414106
0.94125304
-0.14383475
-0.99079402
0.98668196
-0.138497
-1.0398755
1.0345378
-0.13151168
-1.0911376
1.0841523
-0.12311765
-1.1453706
1.1369765
-0.11238545
-1.201384
1.1906517
-0.10018681
-1.261643
1.2494443
-0.084630347
-1.3217916
1.3062351
-0.067710693
-1.389521
1.3726014
-0.046268162
-1.4521603
1.4307178
-0.023114537
-1.5288614
1.5057078
-1.5947891
1.5662898
-0.00056657853
-0.038321158
-0.0012426015
-0.042604706
-0.0019395573
-0.043648538
-0.0026874231
-0.046223733
-0.0034579139
-0.048034773
-0.0042772365
-0.050484132
-0.0051268544
-0.05269091
-0.006025355
-0.055231351
-0.0069616555
-0.057735977
-0.007947676
-0.060456275
-0.008978078
-0.063235542
-0.010060767
-0.066184807
-0.011193726
-0.069242419
-0.012382767
-0.072457286
-0.013627412
-0.075809569
-0.014932271
-0.079321901
-0.016298459
-0.082992236
-0.017729563
-0.086833369
-0.01922752
-0.090850604
-0.020795345
-0.095053705
-0.02243539
-0.099450889
-0.024150296
-0.10405195
-0.025943005
-0.10886616
-0.027815676
-0.11390487
-0.029770647
-0.11917861
-0.031810602
-0.12469921
-0.033937619
-0.13047885
-0.0361538
-0.13653091
-0.038460631
-0.14286953
-0.040860169
-0.14950883
-0.043353597
-0.15646463
-0.045941982
-0.1637537
-0.048626032
-0.17139286
-0.051405776
-0.17940133
-0.054281491
-0.18779778
-0.057252312
-0.19660338
-0.060316985
-0.20583947
-0.06347471
-0.2155289
-0.066723194
-0.22569638
-0.070059483
-0.23636747
-0.073480355
-0.24756866
-0.076981668
-0.25932866
-0.080558289
-0.27167713
-0.084204714
-0.28464574
-0.087914194
-0.29826714
-0.091679281
-0.3125764
-0.095490993
-0.32761024
-0.099339569
-0.34340707
-0.10321356
-0.36000752
-0.1071006
-0.3774542
-0.11098604
-0.39579211
-0.11485393
-0.41506827
-0.11868607
-0.43533255
-0.12246192
-0.45663746
-0.12615839
-0.47903765
-0.12974963
-0.50259138
-0.13320641
-0.52735999
-0.1364966
-0.55340737
-0.13958276
-0.58080149
-0.14242356
-0.6096132
-0.14497339
-0.63991711
-0.14717939
-0.67179265
-0.14898438
-0.7053224
-0.15032185
-0.74059418
-0.15111987
-0.77770031
-0.15129603
-0.81673387
-0.15076054
-0.85780127
-0.14940302
-0.90098705
-0.14712728
-0.9464168
-0.14376711
-0.9941542
-0.13925407
-1.0443885
-0.13330831
-1.0970834
-0.12598183
-1.152697
-0.1166971
-1.2106687
-0.10586485
-1.2724752
-0.092231735
-1.3354247
-0.077050948
-1.4047018
-0.058018587
-1.4711926
-0.03731492
-1.5495651
-1.6201997
-0.00053235206
-0.037788809
-0.0011818586
-0.041955204
-0.0018376718
-0.042992727
-0.0025482954
-0.045513113
-0.0032761217
-0.047306949
-0.0040557666
-0.049704491
-0.0048620382
-0.05188464
-0.005718387
-0.054375006
-0.0066100642
-0.056844301
-0.0075520362
-0.059514307
-0.008536648
-0.062250932
-0.009573181
-0.065148277
-0.010659193
-0.068156407
-0.011800234
-0.071316248
-0.012996954
-0.074612849
-0.014252791
-0.078066066
-0.01556992
-0.081675105
-0.016950919
-0.085452372
-0.018398745
-0.089402777
-0.019915774
-0.093536678
-0.02150484
-0.097861822
-0.023168786
-0.102388
-0.024909404
-0.10712554
-0.02673012
-0.11208415
-0.028633134
-0.11727559
-0.030620605
-0.12271175
-0.032694712
-0.12840474
-0.034857397
-0.13436823
-0.037110728
-0.1406162
-0.039456156
-0.14716341
-0.041894574
-0.15402621
-0.044427581
-0.16122069
-0.047055158
-0.16876528
-0.04977818
-0.17667831
-0.052596096
-0.18497986
-0.055508402
-0.19369108
-0.058513797
-0.20283408
-0.061610596
-0.2124321
-0.06479718
-0.2225098
-0.068071307
-0.23309335
-0.071428878
-0.24421109
-0.074866532
-0.25589101
-0.07837961
-0.26816405
-0.08196291
-0.28106244
-0.085610121
-0.29461993
-0.08931414
-0.30887238
-0.093067202
-0.32385718
-0.096860212
-0.33961406
-0.10068315
-0.35618458
-0.1045244
-0.37361296
-0.10837104
-0.39194546
-0.11220863
-0.41123069
-0.11602057
-0.43152061
-0.1197887
-0.45286933
-0.1234924
-0.47533395
-0.12710818
-0.49897559
-0.13061008
-0.52385808
-0.1339687
-0.55004875
-0.13715095
-0.57761923
-0.14011983
-0.60664432
-0.14283339
-0.63720355
-0.14524531
-0.66938073
-0.14730283
-0.70326488
-0.14894766
-0.73894935
-0.15011395
-0.77653402
-0.15072566
-0.81612216
-0.15070656
-0.85782037
-0.1499552
-0.90173841
-0.1483761
-0.94799589
-0.14584
-0.9966903
-0.14225084
-1.0479777
-0.13740676
-1.1019275
-0.13126907
-1.1588347
-0.12345164
-1.2184861
-0.11413631
-1.2817906
-0.10244765
-1.3471134
-0.089181298
-1.4179682
-0.072615991
-1.4877579
-0.054285139
-1.5678959
-1.6424458
-0.00050096622
-0.037287846
-0.0011296617
-0.041326511
-0.0017505521
-0.042371839
-0.0024295916
-0.044834077
-0.0031218907
-0.046614652
-0.003867825
-0.04895856
-0.0046380523
-0.051114414
-0.0054589494
-0.053554112
-0.0063139912
-0.055989261
-0.0072193107
-0.058608991
-0.0081668922
-0.061303351
-0.0091661559
-0.064149017
-0.010214564
-0.067107999
-0.011318202
-0.070212613
-0.012477061
-0.07345399
-0.013695441
-0.076847688
-0.014974867
-0.08039568
-0.016318856
-0.084108385
-0.017729602
-0.087992031
-0.019210288
-0.092055995
-0.020763243
-0.096308867
-0.022391108
-0.10076014
-0.024096912
-0.10541974
-0.025883019
-0.11029805
-0.027751646
-0.11540697
-0.029705445
-0.12075795
-0.031746204
-0.12636398
-0.033876237
-0.1322382
-0.036097015
-0.13839542
-0.038410164
-0.14485026
-0.04081675
-0.15161962
-0.043317616
-0.15871983
-0.04591359
-0.16616931
-0.048604395
-0.17398751
-0.051389877
-0.18219438
-0.054269737
-0.19081122
-0.057242719
-0.1998611
-0.060306975
-0.20936785
-0.063460544
-0.21935623
-0.066701273
-0.22985262
-0.070026277
-0.24088608
-0.073431716
-0.25248557
-0.076913424
-0.26468234
-0.080466668
-0.2775092
-0.084085888
-0.29100071
-0.087764861
-0.30519341
-0.091496555
-0.32012549
-0.095273006
-0.33583761
-0.099085172
-0.35237241
-0.1029229
-0.36977523
-0.10677518
-0.38809319
-0.11062854
-0.40737732
-0.11446917
-0.42767998
-0.11828081
-0.44905769
-0.12204472
-0.47157004
-0.12574087
-0.49527945
-0.12934644
-0.52025251
-0.13283486
-0.54656033
-0.13617722
-0.57427688
-0.13934073
-0.60348081
-0.14228835
-0.63425592
-0.14497859
-0.6666905
-0.14736514
-0.70087834
-0.14939538
-0.73691911
-0.15101122
-0.77491817
-0.15214691
-0.81498647
-0.15272839
-0.85723889
-0.15267086
-0.90179595
-0.1518864
-0.94878035
-0.15026389
-0.99831281
-0.14770046
-1.0505411
-0.14404658
-1.1055814
-0.13921919
-1.1636621
-0.13294342
-1.2247619
-0.12527854
-1.2894554
-0.11559073
-1.3568012
-0.10438569
-1.4291732
-0.090349317
-1.5017943
-0.074655731
-1.5835895
-1.6615249
-0.00047257758
-0.036815268
-0.0010858907
-0.040713199
-0.0016768927
-0.041780836
-0.002330001
-0.04418097
-0.0029926285
-0.045952024
-0.0037113068
-0.048239883
-0.0044524352
-0.050373285
-0.0052454037
-0.052761146
-0.0060719893
-0.055162675
-0.0069490308
-0.057731952
-0.0078687605
-0.060383621
-0.0088407325
-0.063177047
-0.0098624344
-0.066086296
-0.010939592
-0.069135456
-0.0120729
-0.072320681
-0.013266627
-0.075653963
-0.014522444
-0.079139861
-0.015843881
-0.082786949
-0.017233198
-0.086602713
-0.018693327
-0.090595867
-0.020227345
-0.094774848
-0.02183777
-0.099149719
-0.023527407
-0.1037301
-0.025298356
-0.1085271
-0.027153709
-0.11355161
-0.02909531
-0.11881635
-0.0311255
-0.12433379
-0.033245794
-0.13011791
-0.035458328
-0.13618289
-0.037763789
-0.1425448
-0.04016388
-0.14921953
-0.042658998
-0.15622471
-0.045249661
-0.16357865
-0.047935978
-0.17130119
-0.050717681
-0.17941268
-0.053593722
-0.18793518
-0.056563444
-0.19689138
-0.059625502
-0.20630579
-0.06277741
-0.21620432
-0.066016831
-0.2266132
-0.069341833
-0.23756108
-0.07274874
-0.24907866
-0.076233919
-0.26119716
-0.079793402
-0.27394971
-0.083422179
-0.28737193
-0.08711516
-0.30150042
-0.090865998
-0.31637465
-0.094667912
-0.3320357
-0.098513401
-0.34852692
-0.10239392
-0.3658947
-0.10629936
-0.38418775
-0.1102194
-0.40345728
-0.11414136
-0.42375802
-0.11805145
-0.4451476
-0.12193434
-0.46768715
-0.12577208
-0.49144171
-0.12954472
-0.51647986
-0.13323013
-0.54287493
-0.13680293
-0.57070407
-0.14023461
-0.60004913
-0.14349274
-0.6309978
-0.14654147
-0.66364176
-0.14934001
-0.69807979
-0.15184272
-0.7344164
-0.1539984
-0.77276249
-0.15574908
-0.81323579
-0.15702967
-0.85595829
-0.15776762
-0.901058
-0.15788209
-0.94866588
-0.15727464
-0.99892026
-0.15585582
-1.05196
-0.15349808
-1.1079391
-0.15010962
-1.1670506
-0.14548235
-1.2293892
-0.1396022
-1.2953356
-0.13201477
-1.3643886
-0.12302857
-1.4381594
-0.11160756
-1.5132153
-0.09866493
-1.5965321
-1.677352
-0.00044893155
-0.03636634
-0.0010481196
-0.040114015
-0.0016154765
-0.041213482
-0.0022493445
-0.043547106
-0.0028897709
-0.0453116
-0.0035888697
-0.047540788
-0.0043094613
-0.049652695
-0.0050833024
-0.051987308
-0.0058910235
-0.054354955
-0.0067504084
-0.056872569
-0.0076531226
-0.059480907
-0.0086091607
-0.062221011
-0.0096164379
-0.065079019
-0.010680653
-0.068071243
-0.01180271
-0.071198623
-0.012986382
-0.074470293
-0.014234335
-0.077891907
-0.015549446
-0.08147184
-0.016934782
-0.085217377
-0.018393319
-0.089137333
-0.019927442
-0.093240725
-0.021540632
-0.097536531
-0.023234887
-0.10203585
-0.025013343
-0.10674865
-0.026878049
-0.11168691
-0.028831255
-0.11686315
-0.030875151
-0.12228989
-0.033011331
-0.12798173
-0.035241326
-0.13395289
-0.037566396
-0.14021973
-0.039987552
-0.14679838
-0.042505044
-0.15370722
-0.045119524
-0.16096417
-0.047830776
-0.16858994
-0.050638455
-0.176605
-0.053541901
-0.18503173
-0.056540103
-0.19389317
-0.059631699
-0.2032142
-0.06281494
-0.21302108
-0.066087631
-0.22334051
-0.069447543
-0.23420117
-0.072892078
-0.24563413
-0.076418434
-0.25767081
-0.080022717
-0.27034543
-0.08370131
-0.28369334
-0.087449812
-0.29775192
-0.09126343
-0.31256103
-0.09513686
-0.32816226
-0.099063382
-0.3446004
-0.10303646
-0.36192163
-0.10704833
-0.38017588
-0.1110899
-0.39941571
-0.11515133
-0.41969658
-0.11922111
-0.44107783
-0.12328627
-0.46362199
-0.12733246
-0.48739552
-0.13134312
-0.5124692
-0.13529924
-0.53891881
-0.13917991
-0.5668234
-0.14296038
-0.59626866
-0.14661425
-0.62734393
-0.15010999
-0.66014602
-0.15341339
-0.6947764
-0.15648524
-0.73134455
-0.15928149
-0.76996624
-0.16175236
-0.81076492
-0.16384286
-0.85386779
-0.16548914
-0.89941173
-0.16661689
-0.94753813
-0.16715035
-0.99838679
-0.16699832
-1.052112
-0.16606349
-1.108874
-0.1642481
-1.168866
-0.16139946
-1.2322378
-0.15746417
-1.2992709
-0.15209706
-1.3697557
-0.14549617
-1.4447603
-0.13682598
-1.5218855
-0.12682332
-1.6065347
-1.6898282
-0.00043213017
-0.035934212
-0.0010085007
-0.039537648
-0.001560197
-0.040661788
-0.0021833168
-0.042923989
-0.0028105462
-0.044684371
-0.0034993266
-0.04685201
-0.004209499
-0.048942523
-0.0049744677
-0.051222342
-0.005774708
-0.053554715
-0.0066279163
-0.056019363
-0.00752651
-0.058582313
-0.0084800301
-0.061267493
-0.0094868328
-0.064072215
-0.010552538
-0.067005539
-0.01167896
-0.070072201
-0.012869594
-0.07327966
-0.014127028
-0.076634473
-0.015455002
-0.080143868
-0.016855801
-0.083816578
-0.018333023
-0.087660112
-0.019889373
-0.091684374
-0.021527521
-0.095898385
-0.023250647
-0.10031272
-0.025060723
-0.10493857
-0.02696014
-0.10978749
-0.028951416
-0.11487187
-0.031036107
-0.1202052
-0.033216
-0.12580184
-0.035492116
-0.13167678
-0.037865671
-0.13784618
-0.040337478
-0.14432657
-0.042908012
-0.15113669
-0.045577185
-0.15829499
-0.048345193
-0.16582194
-0.05121131
-0.17373888
-0.054175041
-0.182068
-0.057235506
-0.19083271
-0.060391089
-0.20005861
-0.063641119
-0.20977105
-0.066983324
-0.2199983
-0.070415848
-0.23076865
-0.073937136
-0.24211284
-0.077544492
-0.25406345
-0.081235762
-0.26665416
-0.085008037
-0.27992106
-0.088858049
-0.29390191
-0.092782198
-0.30863688
-0.096776511
-0.32416795
-0.10083688
-0.34054003
-0.10495781
-0.35780071
-0.10913365
-0.37600004
-0.11335756
-0.3951918
-0.11762219
-0.41543196
-0.12191878
-0.43678123
-0.1262372
-0.45930357
-0.13056623
-0.48306649
-0.1348924
-0.50814303
-0.1392012
-0.53461001
-0.14347505
-0.56254955
-0.14769507
-0.59204864
-0.15183833
-0.62320067
-0.15588007
-0.65610428
-0.15979127
-0.6908652
-0.16353988
-0.72759594
-0.16708936
-0.76641676
-0.17039859
-0.80745569
-0.17341881
-0.85084758
-0.1760969
-0.89673363
-0.17837467
-0.94526035
-0.18018232
-0.99657915
-0.18144463
-1.0508497
-0.1820765
-1.1082421
-0.18199357
-1.1689489
-0.18107235
-1.233159
-0.17924738
-1.3010958
-0.17625627
-1.3727468
-0.17221977
-1.4487968
-0.16646209
-1.5276431
-0.15957754
-1.6134192
-1.6988172
-0.00042257299
-0.035511641
-0.00098656871
-0.038973655
-0.0015297719
-0.040118586
-0.0021497758
-0.042303988
-0.0027724639
-0.044061684
-0.0034596844
-0.046164793
-0.0041693898
-0.048232819
-0.0049360087
-0.050455725
-0.0057401645
-0.052750559
-0.006599325
-0.055160205
-0.0075069469
-0.057674691
-0.0084718165
-0.060302625
-0.0094936387
-0.063050393
-0.010577662
-0.065921518
-0.011725606
-0.068924256
-0.012941737
-0.072063532
-0.0142287
-0.075347509
-0.015589787
-0.078782783
-0.017028452
-0.082377913
-0.01854734
-0.086141226
-0.020149838
-0.090081876
-0.021838502
-0.094209723
-0.02361599
-0.098535231
-0.025485007
-0.10306956
-0.027447558
-0.10782494
-0.029505433
-0.112814
-0.031660485
-0.11805015
-0.033913969
-0.12354836
-0.036267245
-0.1293235
-0.038720932
-0.13539249
-0.041275592
-0.14177191
-0.043931464
-0.14848082
-0.046688681
-0.15553778
-0.049546754
-0.16296386
-0.052505656
-0.17077998
-0.055564798
-0.17900886
-0.05872284
-0.18767467
-0.061979647
-0.19680181
-0.065333825
-0.20641688
-0.06878456
-0.21654757
-0.072330064
-0.22722314
-0.075969637
-0.23847327
-0.079702013
-0.25033107
-0.083525637
-0.26283054
-0.087438822
-0.27600788
-0.091439682
-0.28990105
-0.095526711
-0.30454985
-0.099697393
-0.31999727
-0.10394873
-0.3362887
-0.10827808
-0.35347136
-0.11268162
-0.37159649
-0.11715519
-0.39071823
-0.12169377
-0.41089338
-0.12629128
-0.43218372
-0.13094129
-0.45465357
-0.13563489
-0.47837289
-0.14036332
-0.5034146
-0.14511523
-0.5298581
-0.14987809
-0.55778669
-0.15463669
-0.58729004
-0.15937454
-0.61846282
-0.16407158
-0.65140724
-0.16870557
-0.6862312
-0.17325093
-0.72305059
-0.17767848
-0.76198921
-0.18195538
-0.80317879
-0.18604315
-0.84675981
-0.18989955
-0.89287723
-0.19347288
-0.94168702
-0.19670938
-0.99334265
-0.19954367
-1.0480154
-0.20190607
-1.1058797
-0.2037276
-1.1671274
-0.20491192
-1.2319747
-0.20538709
-1.3006207
-0.20495767
-1.3731762
-0.20368704
-1.4500674
-0.20102901
-1.5303011
-0.1974716
-1.6169766
-1.7041411
-0.0004177957
-0.035093847
-0.00098614741
-0.038405305
-0.0015280707
-0.039576664
-0.002152645
-0.041679416
-0.002779823
-0.043434508
-0.0034750068
-0.045469611
-0.0041952482
-0.047512578
-0.0049748737
-0.049676102
-0.0057959594
-0.051929474
-0.0066748987
-0.054281267
-0.0076066043
-0.056742985
-0.0085993139
-0.059309917
-0.0096534624
-0.061996244
-0.010774075
-0.064800906
-0.01196363
-0.067734702
-0.013226281
-0.070800882
-0.014564899
-0.074008891
-0.015983137
-0.077364547
-0.017483951
-0.080877098
-0.019070782
-0.084554397
-0.020746472
-0.088406186
-0.022513774
-0.092442423
-0.024375058
-0.096673946
-0.026332565
-0.10111205
-0.02838865
-0.10576885
-0.030544708
-0.11065794
-0.032802085
-0.11579277
-0.035162082
-0.12118836
-0.03762538
-0.1268602
-0.04019284
-0.13282503
-0.042864226
-0.13910052
-0.045640171
-0.14570487
-0.048520129
-0.15265782
-0.051504259
-0.15997974
-0.054592226
-0.16769201
-0.057783159
-0.17581793
-0.061077378
-0.18438045
-0.064473999
-0.19340519
-0.067972598
-0.20291828
-0.071573007
-0.21294716
-0.075275224
-0.22352093
-0.079078293
-0.2346702
-0.082982337
-0.24642703
-0.08698737
-0.25882551
-0.091093492
-0.27190176
-0.09530014
-0.2856944
-0.099607142
-0.30024285
-0.10401403
-0.31559039
-0.10852035
-0.33178237
-0.11312502
-0.34886669
-0.11782693
-0.36689458
-0.12262449
-0.38592067
-0.12751522
-0.40600265
-0.13249645
-0.42720249
-0.13756409
-0.44958593
-0.14271416
-0.47322281
-0.14794042
-0.49818834
-0.15323639
-0.52456213
-0.15859359
-0.55242948
-0.16400224
-0.58188139
-0.16945038
-0.61301468
-0.17492457
-0.64593305
-0.18040887
-0.6807469
-0.18588433
-0.71757513
-0.19133
-0.75654353
-0.19672082
-0.79778796
-0.20202928
-0.84145136
-0.20721945
-0.88768706
-0.21225671
-0.93664976
-0.21709269
-0.98850667
-0.2216792
-1.0434289
-0.22596255
-1.1015963
-0.22988062
-1.1632093
-0.23336658
-1.2284887
-0.23635531
-1.2976319
-0.23869816
-1.3708334
-0.24041913
-1.4483464
-0.24108127
-1.529639
-0.24107967
-1.6169782
-1.7055701
-0.00042013016
-0.03467372
-0.0009996282
-0.03782581
-0.0015499723
-0.039026322
-0.0021894517
-0.041039939
-0.0028327073
-0.042791254
-0.0035477587
-0.044754562
-0.0042918951
-0.046768443
-0.0050986294
-0.04886937
-0.0059519533
-0.051076151
-0.0068671029
-0.05336612
-0.0078405302
-0.055769558
-0.0088798574
-0.058270591
-0.0099865509
-0.060889551
-0.011165378
-0.063622081
-0.012419609
-0.066480471
-0.013752839
-0.069467654
-0.01516876
-0.07259297
-0.016670709
-0.075862599
-0.01826219
-0.079285617
-0.019946043
-0.082870546
-0.021724959
-0.08662727
-0.023601799
-0.090565584
-0.025578803
-0.094696942
-0.027658034
-0.099032824
-0.029840747
-0.10358614
-0.032128726
-0.10836997
-0.034522994
-0.11339851
-0.037024244
-0.11868711
-0.039632637
-0.12425181
-0.0423489
-0.13010877
-0.045172988
-0.13627644
-0.048104874
-0.14277299
-0.05114435
-0.14961834
-0.054291673
-0.15683241
-0.057546209
-0.16443748
-0.060908542
-0.1724556
-0.064378322
-0.18091067
-0.067955835
-0.18982768
-0.071642019
-0.19923209
-0.07543701
-0.20915217
-0.079341511
-0.21961643
-0.083356844
-0.23065487
-0.087484105
-0.24229977
-0.091724829
-0.25458478
-0.096080148
-0.26754644
-0.10055227
-0.28122228
-0.10514228
-0.29565284
-0.10985232
-0.31088035
-0.1146837
-0.32695099
-0.11963794
-0.34391245
-0.12471655
-0.36181597
-0.12992034
-0.38071688
-0.13525027
-0.40067272
-0.14070623
-0.42174653
-0.14628856
-0.4440036
-0.15199583
-0.46751555
-0.15782653
-0.49235765
-0.16377822
-0.51861044
-0.16984719
-0.54636051
-0.17602856
-0.57570003
-0.18231664
-0.6067266
-0.18870343
-0.63954626
-0.19517928
-0.67427105
-0.20173343
-0.71102099
-0.20835196
-0.749925
-0.21501913
-0.7911208
-0.22171472
-0.83475576
-0.22841892
-0.88098286
-0.23510093
-0.92996776
-0.24173173
-0.98187587
-0.2482734
-1.0368872
-0.25468406
-1.0951857
-0.26091821
-1.1569751
-0.26693156
-1.2224754
-0.27266461
-1.2918989
-0.27802256
-1.3654754
-0.28299056
-1.4433784
-0.28722971
-1.5253998
-0.29103987
-1.613168
-1.7028279
-0.00043050971
-0.034243212
-0.001031956
-0.037224366
-0.0016016475
-0.038456632
-0.0022671612
-0.040374428
-0.002939258
-0.042119157
-0.003687425
-0.044006397
-0.0044703798
-0.045985488
-0.0053200626
-0.048019689
-0.0062230402
-0.050173173
-0.0071930035
-0.052396158
-0.0082283912
-0.054734171
-0.0093359709
-0.057163013
-0.010518324
-0.059707198
-0.011780115
-0.062360291
-0.013124756
-0.06513583
-0.01455634
-0.068036071
-0.016078534
-0.071070776
-0.017694586
-0.074246549
-0.019407757
-0.077572447
-0.021220912
-0.081057393
-0.023136929
-0.084711253
-0.025157691
-0.088544823
-0.027285298
-0.092569335
-0.029521102
-0.096797021
-0.031866671
-0.10124057
-0.034322799
-0.10591384
-0.036889915
-0.11083139
-0.039568427
-0.1160086
-0.042358778
-0.12146146
-0.045260524
-0.12720703
-0.048274203
-0.13326276
-0.051399267
-0.13964793
-0.054636286
-0.14638132
-0.057985035
-0.15348367
-0.061446205
-0.16097631
-0.065019964
-0.16888184
-0.06870766
-0.17722297
-0.072510199
-0.18602514
-0.076429063
-0.19531323
-0.080466186
-0.20511505
-0.084623928
-0.21545868
-0.088904091
-0.2263747
-0.093310456
-0.23789341
-0.097845375
-0.25004987
-0.1025128
-0.26287901
-0.10731593
-0.27641915
-0.11225901
-0.29070977
-0.11734549
-0.30579387
-0.12257969
-0.32171679
-0.12796574
-0.33852639
-0.13350762
-0.35627409
-0.13920925
-0.37501525
-0.1450745
-0.39480746
-0.15110722
-0.41571382
-0.15731028
-0.43780053
-0.16368702
-0.4611388
-0.17024018
-0.48580449
-0.1769712
-0.51187942
-0.18388197
-0.53944974
-0.19097302
-0.56860897
-0.19824343
-0.59945619
-0.20569251
-0.63209718
-0.21331758
-0.66664598
-0.22111454
-0.70322403
-0.22907804
-0.74196151
-0.23720129
-0.78299755
-0.24547555
-0.8264815
-0.25388769
-0.87257072
-0.26242349
-0.92143196
-0.2710604
-0.97323897
-0.27977773
-1.0281699
-0.2885485
-1.0864149
-0.2973441
-1.1481795
-0.30613502
-1.2136844
-0.31487847
-1.2831554
-0.32351343
-1.3568405
-0.33201324
-1.4348786
-0.3401211
-1.5172919
-0.34805441
-1.6052347
-1.6955944
-0.00044816745
-0.033795046
-0.0010816728
-0.036590863
-0.0016820359
-0.03785627
-0.0023858708
-0.039670595
-0.0031011005
-0.041403929
-0.003897388
-0.043210111
-0.0047362441
-0.045146633
-0.0056471055
-0.047108829
-0.006619811
-0.049200468
-0.0076662403
-0.05134973
-0.0087868558
-0.053613555
-0.0099878169
-0.055962054
-0.011272565
-0.058422451
-0.012645644
-0.060987214
-0.014111032
-0.063670443
-0.015672467
-0.066474637
-0.017333711
-0.069409532
-0.01909788
-0.072482382
-0.020967961
-0.075702367
-0.022946542
-0.079078813
-0.025035757
-0.082622039
-0.02723737
-0.086343211
-0.029552959
-0.090253746
-0.0319833
-0.094366682
-0.034529028
-0.098694843
-0.037190529
-0.10325234
-0.039968
-0.10805392
-0.042861372
-0.11311523
-0.045870679
-0.11845215
-0.048995836
-0.12408187
-0.052236547
-0.13002205
-0.055593362
-0.13629111
-0.059066599
-0.14290808
-0.062656745
-0.14989352
-0.066365156
-0.1572679
-0.070193286
-0.16505371
-0.07414304
-0.17327322
-0.078216972
-0.18195121
-0.08241746
-0.19111274
-0.08674838
-0.20078413
-0.091213253
-0.21099381
-0.095816704
-0.22177125
-0.10056269
-0.23314742
-0.10545706
-0.2451555
-0.11050495
-0.25783111
-0.11571229
-0.27121181
-0.12108519
-0.28533687
-0.12662994
-0.30024912
-0.13235335
-0.31599338
-0.13826222
-0.33261753
-0.14436329
-0.35017303
-0.1506641
-0.36871444
-0.15717147
-0.3883001
-0.1638928
-0.4089925
-0.17083523
-0.4308581
-0.17800583
-0.4539682
-0.18541157
-0.47839876
-0.19305948
-0.5042315
-0.20095549
-0.53155373
-0.20910644
-0.56045802
-0.21751785
-0.59104478
-0.2261948
-0.62342023
-0.23514212
-0.65769866
-0.24436372
-0.69400243
-0.2538628
-0.73246242
-0.26364117
-0.77321918
-0.27370015
-0.81642252
-0.28403917
-0.8622317
-0.29465383
-0.91081729
-0.30553806
-0.96235474
-0.3166814
-1.0170265
-0.32807331
-1.075023
-0.33969834
-1.1365545
-0.35154341
-1.2018394
-0.36358881
-1.27111
-0.37580458
-1.3446247
-0.38815447
-1.4225287
-0.40045356
-1.5049928
-0.41285549
-1.5928327
-1.6835011
-0.00047573155
-0.033319316
-0.0011538889
-0.035912708
-0.0017990417
-0.037211118
-0.0025557675
-0.038913871
-0.0033310997
-0.040628597
-0.0041933899
-0.042347823
-0.0051081263
-0.044231897
-0.006101732
-0.046115225
-0.0071676289
-0.048134571
-0.0083159528
-0.050201408
-0.0095491222
-0.052380386
-0.010872573
-0.054638605
-0.012290733
-0.05700429
-0.013807796
-0.059470152
-0.015427978
-0.062050261
-0.017154919
-0.064747698
-0.018991781
-0.067572671
-0.020941877
-0.070532287
-0.023007443
-0.073636802
-0.025190513
-0.076895743
-0.027492384
-0.080320169
-0.02991425
-0.083921346
-0.032456765
-0.087711231
-0.035120253
-0.091703195
-0.037904609
-0.095910488
-0.040809707
-0.10034724
-0.043835179
-0.10502845
-0.046980973
-0.10996944
-0.050246493
-0.11518663
-0.053631979
-0.12069639
-0.057137949
-0.12651608
-0.060764789
-0.13266427
-0.06451363
-0.13915924
-0.068386069
-0.14602108
-0.072384375
-0.15326959
-0.076511523
-0.16092656
-0.080770213
-0.16901453
-0.085165007
-0.17755641
-0.089700187
-0.18657756
-0.094380741
-0.19610358
-0.099212641
-0.20616191
-0.10420187
-0.21678202
-0.10935529
-0.227994
-0.11468035
-0.23983044
-0.12018464
-0.25232682
-0.12587664
-0.26551982
-0.13176466
-0.27944885
-0.13785786
-0.29415592
-0.14416587
-0.30968537
-0.1506981
-0.3260853
-0.15746491
-0.34340621
-0.16447662
-0.36170273
-0.17174392
-0.38103279
-0.17927781
-0.40145861
-0.18708966
-0.42304625
-0.19519092
-0.44586693
-0.20359312
-0.46999656
-0.21230821
-0.49551642
-0.2213482
-0.52251374
-0.23072499
-0.55108123
-0.2404511
-0.58131868
-0.25053838
-0.61333295
-0.26099917
-0.64723788
-0.2718452
-0.6831564
-0.28308873
-0.72121889
-0.29474133
-0.76156657
-0.30681468
-0.80434917
-0.31931885
-0.84972753
-0.33226224
-0.89787391
-0.34565617
-0.9489608
-0.35950048
-1.0031822
-0.37379579
-1.0607276
-0.38854806
-1.1218022
-0.40376287
-1.1866245
-0.41943443
-1.2554384
-0.43556289
-1.3284962
-0.45211758
-1.405974
-0.46897876
-1.4881316
-0.48625256
-1.5755589
-1.6661626
-0.00051401485
-0.032805302
-0.0012506317
-0.035176092
-0.0019562472
-0.036505504
-0.0027824018
-0.038087717
-0.003637168
-0.039773832
-0.004586009
-0.041398983
-0.0055998496
-0.043218057
-0.0067013906
-0.045013685
-0.007887907
-0.046948056
-0.0091677762
-0.04892154
-0.010545171
-0.051002992
-0.012024968
-0.05315881
-0.013612137
-0.055417122
-0.015310565
-0.057771726
-0.01712437
-0.060236457
-0.019056641
-0.062815427
-0.021110409
-0.065518904
-0.023287587
-0.06835511
-0.02558993
-0.071334459
-0.028018594
-0.074467081
-0.03057406
-0.077764703
-0.033256674
-0.081238734
-0.036065795
-0.08490211
-0.039001315
-0.088767676
-0.042062346
-0.092849457
-0.04524843
-0.097161158
-0.048558712
-0.10171817
-0.05199301
-0.10653514
-0.055551598
-0.11162805
-0.059234666
-0.11701332
-0.063043181
-0.12270756
-0.066978658
-0.1287288
-0.071043494
-0.13509441
-0.075240706
-0.14182387
-0.079573602
-0.14893669
-0.084046437
-0.15645373
-0.088664887
-0.16439608
-0.093434081
-0.17278722
-0.098361013
-0.18165063
-0.10345257
-0.19101202
-0.10871661
-0.20089787
-0.11416163
-0.21133701
-0.11979687
-0.22235875
-0.12563171
-0.23399561
-0.13167649
-0.24628204
-0.13794191
-0.25925439
-0.14443932
-0.27295144
-0.15118084
-0.2874144
-0.15817841
-0.30268781
-0.16544537
-0.31881834
-0.17299467
-0.33585691
-0.18084067
-0.35385673
-0.18899781
-0.37287565
-0.19748094
-0.39297548
-0.20630548
-0.41422171
-0.21548776
-0.43668465
-0.22504437
-0.46043996
-0.23499246
-0.48556832
-0.24534998
-0.51215622
-0.25613492
-0.54029629
-0.26736656
-0.57008705
-0.27906408
-0.60163543
-0.29124762
-0.63505433
-0.30393779
-0.67046623
-0.31715535
-0.70800134
-0.3309228
-0.74779912
-0.34526177
-0.7900102
-0.36019483
-0.83479448
-0.37574542
-0.88232331
-0.39193263
-0.93277359
-0.40877571
-0.98633914
-0.42629541
-1.043208
-0.44450629
-1.1035913
-0.46342998
-1.1677009
-0.48308512
-1.2357833
-0.50349513
-1.3080862
-0.52464741
-1.3848217
-0.54647513
-1.4663038
-0.56906072
-1.5529732
-1.6431293
-0.00056388156
-0.032241421
-0.0013742556
-0.03436572
-0.0021586074
-0.035721152
-0.0030732744
-0.037173052
-0.0040302455
-0.038816861
-0.0050901708
-0.040339059
-0.0062304348
-0.042077793
-0.0074699069
-0.043774214
-0.0088094322
-0.045608531
-0.010255747
-0.047475226
-0.011814546
-0.049444194
-0.013489975
-0.051483382
-0.015287182
-0.053619915
-0.017209443
-0.055849466
-0.019260296
-0.058185605
-0.021442032
-0.060633692
-0.023756543
-0.063204393
-0.026204848
-0.065906807
-0.028787508
-0.068751799
-0.031504236
-0.071750354
-0.034354682
-0.074914257
-0.037337518
-0.078255898
-0.040451983
-0.081787645
-0.043696594
-0.085523066
-0.047070552
-0.0894755
-0.050572636
-0.093659075
-0.054202735
-0.098088068
-0.057960859
-0.10277702
-0.061847252
-0.10774165
-0.065863863
-0.11299671
-0.070012206
-0.11855922
-0.074295918
-0.12444509
-0.078718237
-0.13067209
-0.083284065
-0.13725805
-0.087998673
-0.14422209
-0.092868806
-0.1515836
-0.097901191
-0.15936369
-0.10310394