/*--------------------------------*- C++ -*----------------------------------*\
  =========                 |
  \\      /  F ield         | OpenFOAM: The Open Source CFD Toolbox
   \\    /   O peration     | Website:  https://openfoam.org
    \\  /    A nd           | Version:  6
     \\/     M anipulation  |
\*---------------------------------------------------------------------------*/
FoamFile
{
    version     2.0;
    format      ascii;
    class       volScalarField;
    location    "350";
    object      rho;
}
// * * * * * * * * * * * * * * * * * * * * * * * * * * * * * * * * * * * * * //

dimensions      [1 -3 0 0 0 0 0];

internalField   nonuniform List<scalar> 
16000
(
1.1547191
1.1607438
1.1589051
1.1603433
1.1598172
1.1605717
1.1604868
1.1609945
1.1611104
1.1615161
1.1617391
1.1621042
1.1623907
1.1627467
1.1630735
1.1634352
1.16379
1.1641636
1.1645391
1.164926
1.1653173
1.1657161
1.1661191
1.1665269
1.1669375
1.1673503
1.167764
1.1681773
1.1685891
1.1689979
1.1694025
1.1698015
1.1701935
1.1705773
1.1709473
1.1713068
1.1716545
1.1719894
1.1723098
1.1726146
1.1729031
1.1731742
1.1734273
1.1736618
1.1738774
1.1740737
1.1742504
1.1744076
1.1745452
1.1746634
1.1747622
1.174842
1.1749031
1.1749459
1.1749708
1.1749783
1.174969
1.1749433
1.1749018
1.174845
1.1747734
1.1746879
1.1745884
1.1744766
1.1743504
1.1742152
1.1740605
1.1739053
1.1737126
1.1735478
1.1732904
1.1731551
1.1727573
1.1727823
1.1720058
1.1725283
1.1707703
1.1726172
1.1688379
1.1729599
1.1550255
1.1610755
1.159153
1.1606669
1.1601188
1.1609289
1.1608433
1.1613924
1.1615197
1.1619579
1.1622005
1.1625939
1.1629037
1.163286
1.1636374
1.1640244
1.1644037
1.1648016
1.1652008
1.1656106
1.1660241
1.1664439
1.1668668
1.167293
1.1677206
1.1681487
1.1685758
1.1690005
1.1694214
1.1698372
1.1702462
1.170647
1.1710383
1.1714183
1.1717864
1.1721395
1.1724749
1.172795
1.1730989
1.1733849
1.1736524
1.1739006
1.174129
1.1743375
1.1745257
1.1746936
1.1748413
1.1749689
1.1750768
1.1751652
1.1752347
1.1752856
1.1753185
1.175334
1.1753327
1.1753151
1.175282
1.1752338
1.1751712
1.1750947
1.1750049
1.1749025
1.1747877
1.1746614
1.1745231
1.1743747
1.1742126
1.1740431
1.1738516
1.1736638
1.1734268
1.1732405
1.1729082
1.1728103
1.1722072
1.1724778
1.1710518
1.1724886
1.1690856
1.1729085
1.1554916
1.1615626
1.1595817
1.1611654
1.1606069
1.1614648
1.1613875
1.1619726
1.1621185
1.1625865
1.1628527
1.163273
1.1636083
1.1640162
1.1643933
1.1648051
1.1652092
1.1656308
1.1660533
1.1664851
1.1669196
1.167359
1.1678001
1.1682427
1.1686849
1.1691254
1.1695627
1.1699952
1.1704214
1.1708396
1.1712484
1.1716461
1.1720313
1.1724025
1.1727584
1.1730977
1.1734197
1.1737189
1.173999
1.1742598
1.1745001
1.174719
1.1749166
1.1750928
1.1752478
1.1753818
1.175495
1.1755881
1.1756614
1.1757156
1.1757514
1.1757695
1.1757706
1.1757554
1.1757246
1.175679
1.1756193
1.1755462
1.1754602
1.1753619
1.1752519
1.1751307
1.1749987
1.1748565
1.1747042
1.1745423
1.1743694
1.1741875
1.1739902
1.1737873
1.1735552
1.1733393
1.1730415
1.1728664
1.172372
1.1724657
1.1712783
1.1723862
1.1693225
1.1728328
1.1561497
1.1622257
1.1602041
1.1618598
1.1612929
1.1622017
1.162135
1.1627589
1.1629259
1.1634262
1.1637189
1.1641685
1.164532
1.1649678
1.1653729
1.1658114
1.1662422
1.166689
1.1671359
1.1675905
1.1680465
1.1685054
1.1689642
1.1694221
1.1698772
1.1703279
1.1707726
1.1712096
1.171637
1.1720532
1.1724565
1.1728453
1.1732182
1.1735736
1.1739105
1.1742275
1.1745237
1.1747987
1.1750478
1.1752742
1.1754789
1.1756603
1.1758187
1.1759547
1.1760686
1.1761609
1.1762323
1.1762836
1.1763156
1.1763292
1.1763252
1.1763048
1.1762686
1.1762177
1.1761529
1.176075
1.1759848
1.175883
1.1757703
1.1756472
1.1755143
1.175372
1.1752208
1.1750611
1.174893
1.1747167
1.1745316
1.1743378
1.1741324
1.173918
1.1736844
1.1734504
1.173169
1.1729466
1.1725216
1.1724836
1.1714897
1.1723357
1.1695592
1.1728538
1.1569894
1.1630523
1.1610152
1.1627442
1.1621742
1.1631354
1.1630844
1.1637487
1.1639415
1.1644759
1.164799
1.1652798
1.1656746
1.1661401
1.1665755
1.1670423
1.1675011
1.1679739
1.1684457
1.168923
1.1693999
1.1698772
1.1703518
1.1708228
1.1712878
1.1717452
1.1721931
1.1726296
1.1730528
1.1734609
1.1738521
1.174225
1.174578
1.1749098
1.1752192
1.1755054
1.1757677
1.1760053
1.1762185
1.1764024
1.1765624
1.1766983
1.1768097
1.1768978
1.1769634
1.1770072
1.1770304
1.177034
1.1770191
1.176987
1.1769387
1.1768753
1.176798
1.1767079
1.1766057
1.1764925
1.1763692
1.1762364
1.1760949
1.175945
1.1757875
1.1756227
1.1754509
1.1752725
1.1750875
1.1748961
1.1746977
1.174492
1.1742769
1.1740526
1.1738141
1.1735679
1.1732934
1.1730404
1.1726635
1.1725276
1.1716859
1.172315
1.1697891
1.1728963
1.1580189
1.1640506
1.1620235
1.1638283
1.1632613
1.1642777
1.1642482
1.1649554
1.1651795
1.1657505
1.1661085
1.1666231
1.1670527
1.1675503
1.1680184
1.1685152
1.1690035
1.1695032
1.1700002
1.1705001
1.1709969
1.171491
1.1719792
1.1724601
1.1729313
1.1733909
1.1738366
1.1742666
1.1746788
1.1750713
1.1754425
1.1757909
1.176115
1.1764137
1.1766863
1.1769319
1.1771502
1.177341
1.1775044
1.1776404
1.177746
1.1778274
1.1778837
1.1779159
1.1779257
1.1779141
1.1778826
1.1778326
1.1777654
1.1776825
1.1775853
1.177475
1.1773529
1.1772202
1.1770778
1.1769268
1.176768
1.1766022
1.17643
1.1762519
1.1760684
1.1758798
1.1756864
1.1754884
1.1752859
1.1750788
1.1748667
1.1746489
1.1744239
1.1741905
1.1739459
1.1736911
1.1734182
1.1731457
1.1728017
1.1725935
1.1718779
1.1723197
1.1700243
1.1729708
1.1592511
1.1652484
1.163248
1.1651308
1.1645723
1.1656459
1.1656437
1.1663956
1.166656
1.1672657
1.1676627
1.1682133
1.1686808
1.1692124
1.1697152
1.1702432
1.1707619
1.1712885
1.1718103
1.1723314
1.1728461
1.1733542
1.1738523
1.1743386
1.1748105
1.1752658
1.1757023
1.1761178
1.1765103
1.176878
1.1772193
1.1775328
1.1778174
1.1780722
1.1782968
1.1784908
1.1786543
1.1787877
1.1788914
1.1789663
1.1790114
1.1790289
1.1790216
1.1789904
1.1789373
1.1788639
1.178772
1.1786632
1.1785391
1.1784015
1.1782518
1.1780916
1.177922
1.1777444
1.1775598
1.1773693
1.1771736
1.1769735
1.1767696
1.1765624
1.1763521
1.1761392
1.1759238
1.1757059
1.1754856
1.1752627
1.1750368
1.174807
1.174572
1.1743301
1.1740791
1.1738179
1.173544
1.1732598
1.1729383
1.1726766
1.1720699
1.1723443
1.1702666
1.1730671
1.160703
1.1667045
1.1647029
1.1666661
1.1661219
1.1672544
1.1672855
1.1680841
1.1683864
1.169037
1.1694776
1.1700665
1.1705751
1.1711427
1.1716821
1.1722423
1.1727916
1.1733448
1.17389
1.17443
1.1749594
1.1754772
1.1759798
1.1764652
1.1769304
1.1773732
1.1777911
1.1781821
1.1785441
1.1788755
1.179175
1.1794413
1.1796739
1.1798722
1.1800363
1.1801665
1.1802634
1.1803278
1.180361
1.1803643
1.1803397
1.1802844
1.1802054
1.1801036
1.1799813
1.1798405
1.1796831
1.1795111
1.1793265
1.179131
1.1789262
1.1787137
1.1784949
1.1782709
1.178043
1.177812
1.1775787
1.1773438
1.1771079
1.1768713
1.1766343
1.1763969
1.1761595
1.1759218
1.1756839
1.1754455
1.175206
1.1749646
1.1747199
1.1744702
1.1742132
1.1739474
1.1736714
1.1733812
1.1730748
1.1727754
1.1722628
1.1723894
1.1705222
1.1731903
1.1623673
1.1683803
1.1663892
1.1684377
1.1679159
1.1691111
1.1691838
1.1700325
1.1703838
1.1710788
1.1715683
1.1721987
1.1727519
1.1733576
1.1739352
1.1745282
1.1751077
1.175686
1.1762519
1.176807
1.177346
1.1778671
1.1783667
1.1788423
1.179291
1.1797102
1.1800976
1.1804513
1.1807693
1.1810505
1.1812938
1.1814986
1.1816647
1.1817924
1.1818823
1.1819355
1.1819531
1.1819368
1.1818885
1.1818102
1.1817041
1.1815701
1.1814123
1.1812337
1.1810367
1.1808238
1.1805971
1.1803589
1.1801111
1.1798557
1.1795943
1.1793285
1.1790597
1.178789
1.1785175
1.178246
1.1779754
1.177706
1.1774385
1.1771729
1.1769096
1.1766484
1.1763895
1.1761327
1.1758777
1.1756243
1.1753719
1.1751196
1.174866
1.1746093
1.1743472
1.174078
1.1738
1.1735083
1.1732118
1.1728883
1.1724574
1.1724522
1.1707958
1.1733331
1.1642575
1.1703094
1.1683232
1.170463
1.1699727
1.1712349
1.1713582
1.1722608
1.1726686
1.1734117
1.1739553
1.1746304
1.1752312
1.1758768
1.1764934
1.1771187
1.1777267
1.1783268
1.1789088
1.1794729
1.1800138
1.1805291
1.1810151
1.181469
1.1818878
1.1822692
1.1826109
1.1829113
1.183169
1.1833833
1.1835537
1.1836804
1.183764
1.1838056
1.1838066
1.1837688
1.1836944
1.1835857
1.1834454
1.1832761
1.1830803
1.1828605
1.1826177
1.1823572
1.1820814
1.1817932
1.1814947
1.1811885
1.1808764
1.1805604
1.1802422
1.1799232
1.1796047
1.1792879
1.1789736
1.1786626
1.1783555
1.1780528
1.1777547
1.1774614
1.1771728
1.176889
1.1766097
1.1763347
1.1760638
1.1757965
1.1755321
1.1752699
1.1750084
1.1747458
1.1744797
1.1742085
1.1739293
1.1736395
1.1733491
1.173014
1.1726523
1.172532
1.1710929
1.1734807
1.1663918
1.1724964
1.1705229
1.1727608
1.1723117
1.1736457
1.1738298
1.1747906
1.175263
1.1760584
1.1766617
1.1773845
1.1780355
1.1787219
1.1793768
1.1800322
1.1806648
1.1812811
1.1818715
1.1824352
1.1829668
1.1834633
1.1839211
1.1843373
1.184709
1.1850343
1.1853114
1.1855391
1.1857169
1.1858448
1.1859233
1.1859537
1.1859373
1.1858764
1.1857734
1.185631
1.1854522
1.1852402
1.1849983
1.1847298
1.1844379
1.1841266
1.1837943
1.1834486
1.1830917
1.1827266
1.1823557
1.1819812
1.1816052
1.1812294
1.1808554
1.1804845
1.180118
1.1797567
1.1794015
1.1790528
1.1787112
1.1783769
1.1780501
1.1777307
1.1774187
1.1771138
1.1768157
1.1765242
1.1762387
1.1759588
1.1756839
1.175413
1.1751448
1.1748775
1.1746089
1.174337
1.1740583
1.1737729
1.1734863
1.1731506
1.1728458
1.1726279
1.171407
1.1736308
1.1687843
1.1749554
1.1730043
1.17535
1.1749553
1.1763672
1.1766244
1.1776487
1.1781948
1.179047
1.179715
1.1804881
1.1811905
1.1819168
1.1826073
1.1832878
1.1839375
1.1845604
1.1851475
1.1856968
1.1862028
1.1866626
1.1870725
1.18743
1.1877326
1.1879791
1.1881684
1.1883005
1.1883758
1.1883955
1.1883615
1.1882759
1.1881416
1.1879619
1.1877402
1.1874803
1.1871861
1.1868615
1.1865105
1.1861369
1.1857443
1.1853374
1.184914
1.1844819
1.1840437
1.1836023
1.1831599
1.1827188
1.1822808
1.1818474
1.1814201
1.1810001
1.1805882
1.1801852
1.1797917
1.1794081
1.1790346
1.1786713
1.1783182
1.1779752
1.1776419
1.1773181
1.1770033
1.1766971
1.1763989
1.1761082
1.1758243
1.1755463
1.1752729
1.1750024
1.1747328
1.1744617
1.1741853
1.1739063
1.1736226
1.1732955
1.1730354
1.172738
1.1717259
1.173771
1.1714834
1.1777195
1.1758012
1.1782643
1.1779381
1.179434
1.179777
1.18087
1.1814982
1.182411
1.1831474
1.1839714
1.1847239
1.1854862
1.1862054
1.1869018
1.1875564
1.1881709
1.1887369
1.1892515
1.1897097
1.1901084
1.1904448
1.1907167
1.1909229
1.1910632
1.1911378
1.191148
1.1910959
1.1909841
1.1908158
1.1905949
1.1903254
1.1900117
1.1896586
1.1892705
1.1888523
1.1884085
1.1879436
1.1874615
1.1869663
1.1864626
1.1859491
1.1854319
1.1849144
1.1843993
1.1838885
1.1833842
1.1828877
1.1824006
1.1819238
1.1814583
1.1810049
1.1805639
1.1801358
1.1797206
1.1793185
1.1789294
1.1785531
1.1781893
1.1778375
1.1774973
1.1771681
1.1768495
1.1765407
1.1762412
1.1759502
1.1756669
1.17539
1.175118
1.174849
1.1745802
1.1743085
1.1740372
1.1737571
1.1734457
1.1732192
1.1728611
1.1720415
1.1739079
1.1745044
1.1808182
1.1789454
1.181537
1.1812965
1.1828825
1.1833258
1.1844926
1.1852109
1.1861872
1.1869933
1.1878662
1.1886634
1.189453
1.1901887
1.1908851
1.1915252
1.1921088
1.1926281
1.1930799
1.1934601
1.1937662
1.1939963
1.1941499
1.1942272
1.1942296
1.1941593
1.1940195
1.193814
1.1935472
1.1932241
1.1928499
1.1924301
1.1919703
1.1914759
1.1909525
1.1904053
1.1898392
1.189259
1.1886687
1.1880723
1.1874745
1.1868737
1.1862754
1.185683
1.1850988
1.1845247
1.1839621
1.1834123
1.1828764
1.1823552
1.1818492
1.1813588
1.1808844
1.1804259
1.1799833
1.1795566
1.1791453
1.1787493
1.1783679
1.1780006
1.1776469
1.1773061
1.1769776
1.1766607
1.1763546
1.1760586
1.1757719
1.1754934
1.1752216
1.1749549
1.1746902
1.1744254
1.174163
1.1738882
1.1735981
1.1733953
1.1729949
1.1723513
1.17404
1.1778801
1.1842894
1.1824785
1.185211
1.1850769
1.1867592
1.1873177
1.1885627
1.1893769
1.190417
1.19129
1.1922044
1.1930345
1.1938352
1.1945664
1.1952377
1.1958342
1.1963543
1.1967914
1.1971429
1.1974059
1.1975796
1.1976642
1.197661
1.1975727
1.1974029
1.1971563
1.1968382
1.1964544
1.1960115
1.1955159
1.1949743
1.1943933
1.1937795
1.1931389
1.1924775
1.1918008
1.1911137
1.190421
1.1897264
1.1890338
1.1883476
1.1876654
1.1869924
1.1863317
1.1856852
1.1850543
1.18444
1.1838434
1.1832649
1.1827051
1.1821643
1.1816425
1.1811397
1.1806557
1.1801903
1.1797432
1.1793139
1.1789018
1.1785064
1.178127
1.177763
1.1774135
1.1770778
1.1767552
1.176445
1.1761462
1.1758583
1.17558
1.1753103
1.1750475
1.1747888
1.174533
1.1742805
1.1740139
1.1737488
1.1735611
1.1731376
1.1726552
1.1741618
1.1816545
1.1881792
1.186451
1.1893367
1.1893331
1.1911164
1.1918067
1.1931342
1.1940451
1.1951435
1.1960733
1.197013
1.1978537
1.1986381
1.1993316
1.1999402
1.2004512
1.200863
1.2011708
1.2013738
1.2014716
1.2014659
1.2013599
1.2011579
1.2008656
1.2004894
1.2000366
1.1995149
1.1989324
1.1982971
1.197617
1.1968998
1.196153
1.1953834
1.1945974
1.193801
1.1929994
1.1921974
1.1913993
1.1906081
1.1898277
1.1890618
1.1883066
1.1875676
1.186847
1.1861466
1.1854669
1.1848088
1.1841725
1.1835586
1.1829669
1.1823975
1.1818501
1.1813245
1.1808203
1.180337
1.179874
1.1794308
1.1790067
1.1786011
1.178213
1.1778418
1.1774866
1.1771466
1.176821
1.1765091
1.1762099
1.1759228
1.1756468
1.175381
1.1751238
1.1748727
1.1746277
1.1743861
1.1741312
1.173893
1.1737122
1.1732849
1.1729534
1.174268
1.1858802
1.1925427
1.1909223
1.19397
1.1941253
1.1960138
1.196848
1.1982615
1.1992639
1.2004036
1.2013681
1.202304
1.2031185
1.2038437
1.2044506
1.204943
1.2053115
1.2055561
1.2056755
1.205672
1.205549
1.2053122
1.2049685
1.2045259
1.2039936
1.2033809
1.2026979
1.2019543
1.2011599
1.2003241
1.1994556
1.1985626
1.1976527
1.1967327
1.1958087
1.1948861
1.1939696
1.1930634
1.1921708
1.1912944
1.1904378
1.1896033
1.1887853
1.1879906
1.1872203
1.1864753
1.1857559
1.1850623
1.1843946
1.1837526
1.1831361
1.1825447
1.1819779
1.1814353
1.1809161
1.1804198
1.1799456
1.1794929
1.1790608
1.1786486
1.1782553
1.1778802
1.1775223
1.1771808
1.1768549
1.1765437
1.1762465
1.1759624
1.1756907
1.1754304
1.1751803
1.1749385
1.1747056
1.1744759
1.1742367
1.1740259
1.1738464
1.1734311
1.1732358
1.174358
1.1906261
1.1974453
1.1959769
1.1991981
1.19955
1.2015518
1.2025129
1.2039826
1.2050659
1.2062211
1.2071815
1.2080663
1.2087973
1.2093994
1.20985
1.2101537
1.2103061
1.2103111
1.2101727
1.2098981
1.209496
1.2089767
1.2083516
1.2076327
1.2068323
1.2059627
1.2050357
1.2040627
1.2030542
1.20202
1.200969
1.199909
1.1988471
1.1977894
1.1967411
1.1957066
1.19469
1.1936942
1.1927216
1.191774
1.1908549
1.1899642
1.1890955
1.1882567
1.1874474
1.1866681
1.1859185
1.1851983
1.1845074
1.183845
1.1832108
1.182604
1.182024
1.18147
1.1809412
1.1804368
1.179956
1.1794979
1.1790617
1.1786465
1.1782514
1.1778755
1.1775178
1.1771776
1.1768539
1.1765459
1.1762528
1.1759738
1.1757082
1.1754553
1.1752136
1.1749826
1.1747626
1.1745458
1.1743257
1.1741418
1.1739616
1.1735712
1.1734929
1.1744281
1.1960204
1.2030055
1.2017636
1.2051451
1.2056908
1.2077565
1.2088705
1.2103822
1.2114934
1.2126093
1.2134952
1.2142496
1.2148099
1.2151972
1.2153981
1.2154212
1.2152696
1.2149538
1.2144845
1.2138755
1.2131411
1.2122969
1.2113583
1.2103406
1.2092587
1.2081262
1.2069559
1.2057595
1.2045474
1.2033287
1.2021113
1.2009021
1.1997069
1.1985306
1.1973771
1.1962497
1.1951511
1.1940833
1.1930471
1.1920444
1.1910774
1.1901432
1.1892374
1.1883665
1.1875293
1.1867259
1.1859555
1.1852176
1.1845115
1.1838363
1.1831913
1.1825756
1.1819882
1.1814282
1.1808948
1.180387
1.1799038
1.1794444
1.1790078
1.178593
1.1781992
1.1778255
1.1774708
1.1771343
1.1768152
1.1765126
1.1762257
1.1759537
1.1756961
1.1754519
1.1752201
1.175001
1.1747942
1.1745911
1.1743925
1.174234
1.174054
1.1736999
1.1737121
1.1744728
1.2022763
1.2093534
1.2083662
1.2118253
1.2126362
1.2147901
1.2159772
1.2174688
1.2185292
1.2195069
1.2202104
1.2207189
1.2209898
1.2210455
1.220885
1.2205244
1.2199772
1.2192619
1.2183973
1.2174036
1.2163005
1.2151077
1.2138433
1.2125244
1.2111664
1.2097831
1.2083867
1.2069877
1.2055951
1.2042163
1.2028577
1.2015245
1.2002208
1.1989497
1.1977139
1.1965151
1.195355
1.1942339
1.1931518
1.1921104
1.1911106
1.1901464
1.1892165
1.1883249
1.1874707
1.186653
1.185871
1.1851236
1.18441
1.1837291
1.1830797
1.182461
1.1818717
1.1813109
1.1807776
1.1802706
1.179789
1.1793318
1.1788982
1.178487
1.1780974
1.1777284
1.1773791
1.1770487
1.1767363
1.1764411
1.1761622
1.175899
1.1756508
1.1754167
1.1751961
1.1749896
1.174796
1.1746072
1.1744309
1.1742953
1.1741201
1.1738077
1.1738871
1.174492
1.2093681
1.2164714
1.2158023
1.219428
1.220484
1.2226583
1.2238409
1.225177
1.2260551
1.2267483
1.2271181
1.2272312
1.227069
1.2266613
1.2260229
1.2251807
1.2241591
1.2229853
1.2216849
1.2202829
1.2188024
1.2172645
1.2156879
1.2140888
1.2124815
1.2108779
1.2092879
1.2077198
1.2061801
1.2046742
1.2032061
1.2017788
1.2003948
1.1990554
1.1977617
1.1965142
1.1953132
1.1941577
1.1930473
1.1919836
1.1909655
1.1899837
1.1890415
1.1881403
1.1872789
1.1864561
1.1856708
1.1849217
1.1842076
1.1835273
1.1828795
1.1822631
1.1816769
1.1811198
1.1805906
1.1800883
1.1796118
1.1791602
1.1787325
1.1783276
1.1779446
1.1775827
1.177241
1.1769186
1.1766147
1.1763285
1.1760591
1.1758061
1.1755686
1.1753458
1.1751374
1.1749441
1.1747636
1.1745896
1.1744352
1.1743191
1.1741518
1.173883
1.1740181
1.1744846
1.2175161
1.2246824
1.224453
1.2281024
1.2292067
1.2312263
1.2322938
1.233303
1.2338106
1.2340291
1.2338774
1.2334238
1.2326779
1.2316826
1.2304695
1.2290762
1.2275364
1.225883
1.2241451
1.2223488
1.2205168
1.2186684
1.2168199
1.2149845
1.2131732
1.2113944
1.209655
1.2079601
1.2063133
1.2047175
1.2031744
1.201685
1.2002498
1.1988686
1.1975411
1.1962669
1.1950447
1.1938726
1.1927505
1.1916798
1.1906555
1.1896673
1.188724
1.187823
1.1869635
1.1861438
1.1853626
1.1846185
1.18391
1.1832359
1.1825948
1.1819854
1.1814066
1.1808571
1.1803357
1.1798414
1.1793731
1.1789298
1.1785105
1.1781142
1.1777401
1.1773872
1.1770547
1.1767418
1.1764478
1.1761718
1.1759132
1.1756714
1.1754455
1.1752349
1.1750394
1.1748595
1.174692
1.1745334
1.1743989
1.1742962
1.1741388
1.1739234
1.1740944
1.1744375
1.2271094
1.2341791
1.234305
1.2377633
1.238843
1.2404463
1.2410976
1.2415126
1.2413794
1.2408876
1.2400103
1.238828
1.2373769
1.2357129
1.2338799
1.2319216
1.229875
1.2277728
1.2256421
1.2235057
1.2213818
1.2192849
1.2172263
1.2152148
1.2132566
1.2113564
1.2095173
1.2077411
1.2060289
1.2043809
1.2027968
1.2012758
1.1998169
1.1984185
1.1970795
1.1957983
1.1945723
1.1933996
1.1922812
1.1912155
1.1901934
1.1892121
1.1882765
1.1873844
1.1865344
1.1857248
1.1849541
1.1842206
1.183523
1.1828599
1.1822298
1.1816315
1.1810636
1.180525
1.1800145
1.179531
1.1790734
1.1786407
1.178232
1.1778462
1.1774826
1.1771402
1.1768183
1.1765162
1.1762331
1.1759682
1.1757211
1.175491
1.1752773
1.1750793
1.1748971
1.1747306
1.1745763
1.1744336
1.1743171
1.1742246
1.1740819
1.1739205
1.1740942
1.174338
1.238473
1.2448797
1.2451932
1.2481425
1.2488266
1.2496808
1.2495708
1.249088
1.2480531
1.2466497
1.2449025
1.2429046
1.2407106
1.2383819
1.235965
1.2335011
1.2310225
1.2285552
1.2261192
1.2237298
1.2213983
1.2191325
1.2169379
1.214818
1.2127746
1.2108085
1.2089194
1.2071065
1.2053684
1.2037034
1.2021095
1.2005847
1.1991266
1.197733
1.196402
1.1951309
1.1939164
1.1927577
1.1916556
1.1906048
1.1895942
1.1886289
1.1877091
1.1868332
1.1859993
1.1852057
1.1844508
1.183733
1.1830508
1.1824027
1.1817874
1.1812035
1.1806497
1.1801249
1.1796278
1.1791574
1.1787126
1.1782924
1.177896
1.1775223
1.1771706
1.1768399
1.1765297
1.1762391
1.1759675
1.1757143
1.1754789
1.1752608
1.1750592
1.1748739
1.1747048
1.1745513
1.1744103
1.1742832
1.1741821
1.1740975
1.1739724
1.1738605
1.1740205
1.1741797
1.2508806
1.2564063
1.2565856
1.2585498
1.2584057
1.2580752
1.2568342
1.2551745
1.2530473
1.2506313
1.247987
1.2452058
1.2423444
1.2394552
1.236575
1.233733
1.2309497
1.2282399
1.2256135
1.2230768
1.2206331
1.218284
1.2160296
1.2138686
1.2117993
1.2098193
1.207926
1.2061163
1.2043874
1.2027362
1.2011597
1.1996547
1.1982184
1.1968481
1.1955412
1.1942941
1.1931041
1.1919717
1.1908954
1.1898658
1.1888757
1.1879337
1.1870364
1.1861825
1.18537
1.1845971
1.1838624
1.183164
1.1825006
1.1818708
1.181273
1.1807061
1.1801687
1.1796597
1.179178
1.1787224
1.178292
1.1778857
1.1775028
1.1771422
1.1768033
1.1764851
1.176187
1.1759084
1.1756486
1.1754071
1.1751833
1.1749768
1.1747869
1.1746135
1.1744566
1.1743151
1.1741869
1.1740746
1.1739867
1.1739095
1.1738038
1.17373
1.1738662
1.1739541
1.2637112
1.268177
1.2677606
1.2679711
1.2664428
1.2645152
1.2618929
1.2589574
1.2557504
1.2524195
1.2490275
1.2456422
1.2423027
1.2390402
1.2358736
1.2328154
1.2298726
1.2270482
1.2243429
1.2217553
1.2192827
1.2169217
1.2146684
1.2125186
1.210468
1.2085123
1.2066474
1.2048691
1.2031734
1.2015568
1.2000153
1.1985457
1.1971447
1.1958095
1.1945366
1.1933223
1.1921656
1.1910671
1.1900206
1.189015
1.1880541
1.1871393
1.1862688
1.1854406
1.1846528
1.1839038
1.1831919
1.1825156
1.1818734
1.1812638
1.1806856
1.1801374
1.1796181
1.1791265
1.1786614
1.1782219
1.177807
1.1774157
1.1770471
1.1767005
1.1763749
1.1760698
1.1757843
1.1755179
1.17527
1.1750401
1.1748276
1.1746322
1.1744533
1.1742909
1.1741448
1.174014
1.1738971
1.1737976
1.1737202
1.1736505
1.1735647
1.1735205
1.1736287
1.1736609
1.2766632
1.2779535
1.27617
1.2739086
1.2706621
1.2670821
1.2631935
1.2592203
1.2552269
1.251298
1.2474702
1.2437739
1.2402225
1.2368238
1.2335789
1.2304862
1.2275413
1.2247392
1.2220735
1.2195378
1.2171254
1.21483
1.2126455
1.2105661
1.2085863
1.206701
1.2049053
1.2031948
1.2015651
1.2000123
1.1985325
1.1971223
1.1957786
1.1944981
1.1932767
1.1921122
1.1910051
1.1899532
1.1889464
1.187978
1.1870567
1.1861794
1.1853446
1.1845504
1.183795
1.1830769
1.1823944
1.1817461
1.1811306
1.1805465
1.1799926
1.1794676
1.1789704
1.1784998
1.1780549
1.1776346
1.177238
1.1768642
1.1765123
1.1761817
1.1758714
1.1755808
1.1753093
1.1750562
1.1748211
1.1746033
1.1744025
1.1742182
1.17405
1.1738978
1.1737614
1.1736398
1.1735325
1.1734426
1.173372
1.1733077
1.1732384
1.1732163
1.1733027
1.173301
1.2844847
1.2821707
1.2786912
1.2745606
1.270086
1.2655392
1.2610197
1.2566256
1.2523895
1.2483379
1.2444757
1.2408038
1.2373165
1.2340067
1.2308655
1.2278838
1.2250527
1.2223632
1.2198075
1.217378
1.2150676
1.2128694
1.2107772
1.208785
1.2068875
1.2050796
1.2033566
1.2017141
1.2001482
1.198655
1.1972309
1.1958729
1.1945781
1.1933427
1.1921637
1.1910406
1.1899739
1.1889561
1.1879761
1.1870406
1.1861496
1.1853013
1.1844939
1.1837257
1.182995
1.1823002
1.18164
1.1810129
1.1804175
1.1798526
1.1793169
1.1788093
1.1783287
1.1778739
1.1774441
1.1770382
1.1766553
1.1762946
1.1759552
1.1756365
1.1753375
1.1750578
1.1747966
1.1745533
1.1743274
1.1741184
1.173926
1.1737495
1.1735887
1.1734435
1.1733135
1.1731979
1.1730968
1.1730121
1.1729438
1.172884
1.1728292
1.1728105
1.1728541
1.1728513
1.2790887
1.2756342
1.2718395
1.2674872
1.263039
1.2586247
1.2543337
1.250211
1.2462702
1.2425185
1.2389519
1.2355648
1.2323487
1.229295
1.2263946
1.2236386
1.2210188
1.218527
1.2161557
1.2138981
1.2117484
1.2097008
1.2077499
1.2058907
1.2041186
1.202429
1.200818
1.1992816
1.1978163
1.1964186
1.1950855
1.1938144
1.1926021
1.1914453
1.1903422
1.1892932
1.1882946
1.1873364
1.1864168
1.185541
1.1847068
1.1839126
1.1831567
1.1824376
1.1817537
1.1811037
1.1804861
1.1798997
1.1793432
1.1788154
1.1783152
1.1778414
1.177393
1.1769691
1.1765686
1.1761907
1.1758344
1.1754991
1.1751838
1.1748879
1.1746107
1.1743514
1.1741095
1.1738844
1.1736756
1.1734826
1.1733049
1.1731421
1.1729939
1.1728601
1.1727403
1.1726341
1.1725415
1.1724633
1.1723991
1.1723454
1.1723022
1.1722821
1.172293
1.1722948
1.2488142
1.2538074
1.2535156
1.2524005
1.2501802
1.2475865
1.2447106
1.2417519
1.2387654
1.2358156
1.2329269
1.2301207
1.227406
1.2247889
1.2222711
1.2198528
1.2175325
1.215308
1.2131766
1.211135
1.2091796
1.2073073
1.2055146
1.2037985
1.2021559
1.2005838
1.1990795
1.1976403
1.1962634
1.1949465
1.1936874
1.1924839
1.1913329
1.1902321
1.189182
1.1881821
1.1872241
1.1862996
1.1854176
1.1845756
1.1837728
1.1830072
1.1822778
1.1815831
1.1809218
1.1802926
1.1796944
1.1791258
1.1785859
1.1780736
1.1775876
1.1771272
1.1766912
1.1762787
1.1758889
1.1755209
1.1751738
1.1748469
1.1745394
1.1742506
1.1739798
1.1737264
1.1734897
1.1732692
1.1730643
1.1728745
1.1726995
1.1725386
1.1723917
1.1722584
1.1721382
1.1720311
1.1719367
1.1718553
1.1717863
1.1717291
1.1716841
1.1716534
1.1716381
1.1716342
1.253413
1.253477
1.2539321
1.2539285
1.2530846
1.2512519
1.2484129
1.2448481
1.2407868
1.2364195
1.2320101
1.2275037
1.2231072
1.2187798
1.2146363
1.2107895
1.2072106
1.2040377
1.2011893
1.1986484
1.196409
1.1944316
1.1926926
1.1911724
1.1898346
1.1886295
1.1875398
1.1865455
1.185658
1.1848894
1.1841946
1.1835503
1.18295
1.1823853
1.1818507
1.1813423
1.1808574
1.1803946
1.1799534
1.1795302
1.1791246
1.1787375
1.1783662
1.178012
1.1776756
1.177356
1.1770523
1.1767638
1.1764897
1.1762296
1.1759825
1.1757482
1.1755251
1.1753136
1.1751111
1.1749194
1.1747332
1.1745587
1.1743835
1.1742242
1.1740524
1.1739089
1.1737292
1.1736073
1.173401
1.1733163
1.1730515
1.1730349
1.1726504
1.1727667
1.1721682
1.1725243
1.171557
1.1723362
1.1707614
1.1722471
1.1696716
1.1722983
1.1681683
1.1725894
1.0987407
1.1037619
1.1114318
1.1200907
1.1291455
1.1379413
1.145179
1.1511221
1.156331
1.1608463
1.1646911
1.1680339
1.1709219
1.1734189
1.1755911
1.1774216
1.1789961
1.1802782
1.1813479
1.182165
1.1828173
1.183259
1.183576
1.1837176
1.1837444
1.1836586
1.1834905
1.1832621
1.1829924
1.1826826
1.1823376
1.1819669
1.1815748
1.1811728
1.1807686
1.1803674
1.1799728
1.1795877
1.1792158
1.1788562
1.1785086
1.1781751
1.1778553
1.1775471
1.1772535
1.1769734
1.1767063
1.1764516
1.1762089
1.1759778
1.1757575
1.1755478
1.1753475
1.175157
1.1749737
1.1747997
1.1746297
1.1744697
1.1743082
1.1741605
1.1740007
1.1738657
1.1736974
1.1735801
1.173386
1.1733004
1.1730523
1.1730269
1.1726684
1.1727618
1.1721992
1.1725221
1.1715995
1.1723396
1.1708041
1.1722598
1.1697014
1.1723361
1.1681705
1.1726512
1.2082557
1.209108
1.2114686
1.2141724
1.2148356
1.2139032
1.2123809
1.2105971
1.2086643
1.206698
1.204731
1.2028194
1.2009613
1.1991903
1.197499
1.1958984
1.1944035
1.1930014
1.1917325
1.1905823
1.1895086
1.1885425
1.1876113
1.1867935
1.186058
1.1853969
1.1848285
1.1842649
1.1837188
1.1831058
1.1825371
1.1820091
1.1815116
1.1810439
1.1806005
1.1801787
1.1797761
1.1793915
1.1790249
1.1786689
1.1783299
1.1780066
1.1776959
1.1773998
1.1771175
1.1768478
1.1765906
1.1763455
1.176112
1.17589
1.1756785
1.1754775
1.1752855
1.175103
1.1749274
1.1747608
1.1745978
1.1744444
1.174289
1.1741469
1.1739924
1.1738617
1.1736981
1.1735832
1.1733942
1.1733083
1.1730652
1.1730374
1.172685
1.1727701
1.1722235
1.1725232
1.1716313
1.1723322
1.1708451
1.1722477
1.1697424
1.1723302
1.1682008
1.1726638
1.167401
1.1674398
1.1703495
1.1756821
1.1787548
1.1797111
1.1802011
1.1806254
1.1810095
1.1814348
1.1818688
1.1823057
1.1826885
1.1830482
1.1831785
1.1835722
1.1835842
1.1839058
1.1837936
1.1839887
1.183783
1.1838665
1.1836033
1.1835526
1.1832568
1.1830281
1.1826889
1.1823866
1.1820499
1.181708
1.1813586
1.1810051
1.18065
1.1802954
1.1799437
1.1795967
1.1792563
1.1789241
1.1786002
1.1782852
1.1779821
1.1776905
1.1774099
1.1771406
1.1768823
1.1766352
1.1763991
1.1761738
1.1759589
1.1757542
1.1755588
1.1753729
1.175195
1.1750256
1.1748621
1.1747067
1.1745539
1.1744101
1.1742632
1.1741292
1.1739815
1.1738575
1.173699
1.17359
1.1734041
1.1733236
1.1730819
1.1730588
1.1727071
1.1727961
1.1722461
1.1725533
1.1716535
1.1723647
1.1708635
1.1722809
1.1697612
1.1723594
1.1682155
1.1726904
1.1752982
1.1772099
1.1815745
1.1861297
1.187589
1.1878288
1.1875603
1.1873959
1.1872023
1.1870436
1.186826
1.1866257
1.1863897
1.1861701
1.1859248
1.185668
1.1854043
1.1851131
1.1848274
1.1844892
1.1841952
1.1837972
1.1834769
1.1830782
1.1827349
1.1823641
1.1820172
1.1816625
1.1813173
1.1809754
1.1806368
1.1803035
1.1799764
1.1796557
1.1793414
1.1790339
1.1787336
1.178441
1.1781552
1.1778769
1.1776085
1.1773494
1.1770994
1.1768584
1.1766267
1.1764044
1.1761915
1.1759877
1.1757929
1.1756069
1.1754291
1.1752595
1.1750968
1.1749414
1.174791
1.1746475
1.1745059
1.174372
1.1742344
1.1741085
1.1739684
1.1738507
1.1736984
1.1735938
1.1734131
1.173335
1.1730978
1.173075
1.1727268
1.1728151
1.1722712
1.1725724
1.1716816
1.172382
1.1708961
1.1722957
1.1697899
1.1723764
1.1682364
1.17271
1.1686931
1.1704709
1.1749983
1.179826
1.181865
1.1821787
1.1819372
1.1820286
1.1820143
1.1820833
1.1820443
1.1820419
1.1819845
1.1819481
1.1818743
1.1818103
1.1817196
1.1816351
1.1815285
1.1814275
1.1812999
1.1811878
1.1810426
1.1809023
1.1807355
1.1805618
1.1803704
1.1801705
1.1799602
1.1797417
1.1795152
1.1792835
1.1790478
1.1788094
1.1785694
1.1783291
1.17809
1.1778532
1.1776184
1.1773875
1.1771629
1.1769441
1.1767313
1.176525
1.1763255
1.1761333
1.1759481
1.1757703
1.1755997
1.1754361
1.1752791
1.1751287
1.1749839
1.1748449
1.1747096
1.1745799
1.1744509
1.1743284
1.1742013
1.1740844
1.1739529
1.1738422
1.1736967
1.173597
1.1734219
1.1733468
1.1731138
1.1730924
1.1727495
1.1728357
1.1722955
1.1725942
1.1717081
1.172404
1.1709208
1.1723165
1.1698153
1.1723952
1.1682554
1.1727288
1.1677543
1.169946
1.1749238
1.1794151
1.1808762
1.1811331
1.1810214
1.1810086
1.1809114
1.1808922
1.1808021
1.1807749
1.1806908
1.1806486
1.1805694
1.1805049
1.1804131
1.1803305
1.1802295
1.1801285
1.1800163
1.1798964
1.1797698
1.179635
1.1794942
1.179347
1.1791937
1.1790348
1.178871
1.1787018
1.1785272
1.1783491
1.1781679
1.1779843
1.1777986
1.1776117
1.1774246
1.177238
1.1770508
1.1768661
1.1766852
1.1765077
1.1763339
1.1761642
1.1759993
1.1758392
1.1756843
1.1755347
1.1753903
1.1752512
1.1751169
1.1749874
1.1748619
1.1747407
1.1746218
1.174507
1.1743917
1.1742813
1.1741655
1.1740582
1.1739358
1.1738322
1.1736942
1.1735993
1.1734304
1.1733577
1.1731307
1.1731086
1.172771
1.1728548
1.1723219
1.1726142
1.1717367
1.1724233
1.1709518
1.1723338
1.1698426
1.1724121
1.1682753
1.1727457
1.1651657
1.1676505
1.1729494
1.1771858
1.1783685