/*--------------------------------*- C++ -*----------------------------------*\
  =========                 |
  \\      /  F ield         | OpenFOAM: The Open Source CFD Toolbox
   \\    /   O peration     | Website:  https://openfoam.org
    \\  /    A nd           | Version:  6
     \\/     M anipulation  |
\*---------------------------------------------------------------------------*/
FoamFile
{
    version     2.0;
    format      ascii;
    class       volScalarField;
    location    "350";
    object      T;
}
// * * * * * * * * * * * * * * * * * * * * * * * * * * * * * * * * * * * * * //

dimensions      [0 0 0 1 0 0 0];

internalField   nonuniform List<scalar> 
16000
(
297.29007
296.02898
296.48109
296.30198
296.45878
296.42709
296.50434
296.51821
296.57068
296.60113
296.64611
296.68381
296.72704
296.76835
296.81195
296.85542
296.90004
296.94503
296.99071
297.03683
297.08339
297.13027
297.1774
297.22467
297.27197
297.3192
297.36624
297.41295
297.45921
297.50489
297.54983
297.59391
297.63699
297.67894
297.7192
297.7581
297.79551
297.83133
297.86537
297.89755
297.92779
297.95601
297.98214
298.00613
298.02795
298.04757
298.06497
298.08014
298.0931
298.10388
298.11249
298.119
298.12346
298.12594
298.12653
298.12531
298.12236
298.11778
298.11168
298.10416
298.09528
298.08513
298.07374
298.06126
298.04762
298.03335
298.01803
298.00328
297.98708
297.97409
297.95676
297.94882
297.92562
297.93133
297.89277
297.93807
297.86087
297.98214
297.84708
298.03786
297.30367
296.05231
296.52308
296.3411
296.5037
296.4719
296.55234
296.56784
296.62282
296.65563
296.70273
296.7429
296.78829
296.83203
296.87785
296.92367
296.97049
297.01772
297.06555
297.11375
297.16231
297.21109
297.25999
297.3089
297.3577
297.40625
297.45443
297.50208
297.54906
297.59523
297.64043
297.68452
297.72736
297.76878
297.8087
297.84682
297.88287
297.9171
297.94939
297.97961
298.00767
298.03353
298.05714
298.07848
298.09753
298.11428
298.12875
298.14096
298.15094
298.15874
298.1644
298.168
298.16962
298.16933
298.16725
298.16345
298.15803
298.1511
298.14277
298.13313
298.12228
298.11027
298.09716
298.08304
298.06794
298.05213
298.03559
298.01915
298.00221
297.98695
297.97006
297.95814
297.93914
297.93595
297.9076
297.9343
297.87801
297.97203
297.86493
298.02191
297.33749
296.09998
296.58333
296.39959
296.56664
296.53671
296.61968
296.63799
296.69511
296.73084
296.78019
296.82318
296.87096
296.91738
296.96564
297.014
297.06323
297.11284
297.16293
297.21332
297.26392
297.31461
297.36526
297.41574
297.4659
297.51561
297.56469
297.613
297.66037
297.70664
297.75166
297.79526
297.83731
297.87766
297.91616
297.9527
297.9872
298.0191
298.04879
298.07624
298.10133
298.12402
298.14429
298.16215
298.17762
298.19072
298.20149
298.20997
298.21624
298.22036
298.2224
298.22246
298.22063
298.21701
298.21171
298.20484
298.1965
298.1868
298.17585
298.16375
298.1506
298.13646
298.12139
298.10544
298.08867
298.07125
298.05332
298.03534
298.01733
298.00036
297.98319
297.96882
297.95139
297.94341
297.9207
297.93497
297.89344
297.96764
297.88066
298.02078
297.39021
296.17204
296.66224
296.47824
296.64937
296.62191
296.7074
296.7289
296.78835
296.82728
296.87908
296.92511
296.97545
297.02472
297.07558
297.1266
297.17832
297.23038
297.28276
297.33531
297.38791
297.44041
297.49266
297.54451
297.59579
297.64634
297.69597
297.74452
297.79181
297.83767
297.88193
297.92443
297.96502
298.00357
298.03994
298.07403
298.10574
298.13503
298.1614
298.18521
298.20655
298.22529
298.24146
298.25511
298.26629
298.27504
298.28146
298.28561
298.28758
298.28748
298.2854
298.28144
298.27573
298.26837
298.25949
298.2492
298.23762
298.22486
298.21103
298.19624
298.18058
298.16411
298.14689
298.12896
298.11038
298.09126
298.07177
298.05226
298.03294
298.01446
297.99645
297.98027
297.9632
297.95178
297.93284
297.9384
297.90654
297.96581
297.89365
298.01992
297.46185
296.2703
296.76056
296.57774
296.75231
296.72839
296.8162
296.84155
296.90341
296.94597
297.00042
297.0498
297.10296
297.15531
297.20896
297.26281
297.31717
297.37176
297.42649
297.48121
297.53575
297.58995
297.64363
297.69662
297.74871
297.79974
297.84949
297.89778
297.94443
297.98925
298.03207
298.07273
298.11109
298.14702
298.1804
298.21116
298.23921
298.2645
298.28707
298.30638
298.32301
298.33696
298.34819
298.35683
298.36295
298.36664
298.36802
298.36719
298.36427
298.35939
298.35266
298.34422
298.33418
298.32269
298.30986
298.29583
298.28072
298.26462
298.24767
298.22997
298.21161
298.19264
298.17313
298.1531
298.1326
298.11172
298.09061
298.06955
298.04884
298.02895
298.0099
297.99231
297.97502
297.96131
297.94429
297.94435
297.91903
297.96606
297.90557
298.02364
297.55263
296.39424
296.87867
296.69866
296.87611
296.85679
296.94684
296.9767
297.04117
297.0878
297.14522
297.19825
297.25451
297.31018
297.36685
297.42369
297.48081
297.53799
297.59507
297.6519
297.70825
297.76395
297.81879
297.87256
297.92505
297.97604
298.02533
298.07272
298.118
298.161
298.20153
298.23946
298.27466
298.307
298.33642
298.36284
298.38623
298.40658
298.42391
298.43821
298.44916
298.45743
298.46292
298.46575
298.46609
298.46404
298.45975
298.45336
298.44503
298.43489
298.42309
298.40977
298.39507
298.37914
298.3621
298.34408
298.32522
298.30561
298.28537
298.26461
298.24342
298.22185
298.19995
298.17774
298.15526
298.13256
298.10979
298.08717
298.06504
298.04377
298.02358
298.00476
297.98691
297.97149
297.95545
297.95118
297.93111
297.96799
297.91698
298.02914
297.6638
296.5398
297.01745
296.8421
297.0219
297.00838
297.10068
297.13576
297.20313
297.25429
297.31501
297.37203
297.43169
297.49091
297.55081
297.61076
297.67072
297.7305
297.78986
297.84864
297.90658
297.96347
298.01906
298.07312
298.12542
298.17572
298.2238
298.26945
298.31246
298.35267
298.38991
298.42405
298.45498
298.48263
298.50695
298.52792
298.54555
298.55988
298.57097
298.5789
298.58357
298.58522
298.58412
298.58039
298.57422
298.56579
298.55525
298.54279
298.52858
298.51278
298.49555
298.47704
298.45741
298.4368
298.41535
298.39318
298.37042
298.34717
298.32354
298.29964
298.27554
298.25131
298.22697
298.20255
298.17806
298.15354
298.1291
298.10495
298.08139
298.05879
298.03743
298.0175
297.99894
297.98227
297.96663
297.95903
297.94293
297.97162
297.92853
298.03599
297.79807
296.69627
297.17915
297.01035
297.19187
297.18519
297.27976
297.32064
297.3912
297.44725
297.51161
297.5729
297.63623
297.69918
297.76244
297.82557
297.88836
297.95065
298.01212
298.07258
298.13173
298.18932
298.24508
298.29875
298.35007
298.39879
298.44468
298.48753
298.52715
298.56339
298.5961
298.62518
298.65058
298.67226
298.69023
298.70452
298.71519
298.72236
298.72613
298.72666
298.72412
298.71825
298.70978
298.69877
298.68548
298.6701
298.65283
298.63388
298.61342
298.59165
298.56874
298.54484
298.52011
298.49469
298.46871
298.4423
298.41558
298.38865
298.3616
298.33454
298.30753
298.28063
298.25386
298.22724
298.20075
298.17444
298.14837
298.12272
298.09778
298.0739
298.05138
298.03042
298.01108
297.99344
297.97786
297.96769
297.95461
297.97625
297.9398
298.04287
297.95703
296.88315
297.36439
297.20412
297.38692
297.38823
297.48525
297.53259
297.60676
297.66816
297.73658
297.80243
297.86974
297.9366
298.00336
298.06967
298.13522
298.1998
298.26307
298.32477
298.38456
298.44217
298.49728
298.54962
298.59891
298.6449
298.68736
298.72609
298.76094
298.79177
298.8185
298.84108
298.85949
298.87378
298.88402
298.8903
298.89277
298.8916
298.88696
298.87909
298.86818
298.85423
298.83766
298.81878
298.79782
298.77505
298.75067
298.72492
298.69798
298.67005
298.64131
298.61191
298.58201
298.55174
298.52122
298.49059
298.45993
298.42935
298.39893
298.36875
298.33888
298.30937
298.28023
298.25146
298.22305
298.19501
298.16738
298.1403
298.11405
298.08895
298.06532
298.04341
298.02329
298.00491
297.98913
297.97702
297.96619
297.98155
297.95101
298.0496
298.14019
297.09186
297.57398
297.42443
297.60831
297.61888
297.71876
297.7733
297.85165
297.91888
297.99185
298.06259
298.13415
298.20505
298.27536
298.34474
298.41282
298.47932
298.54385
298.6061
298.6657
298.72234
298.77568
298.82543
298.87131
298.91308
298.95054
298.98354
299.01194
299.03569
299.05475
299.06916
299.07898
299.08434
299.08537
299.08229
299.07529
299.06462
299.05055
299.03335
299.01327
298.99055
298.96529
298.93803
298.90902
298.87855
298.84683
298.8141
298.78057
298.74643
298.71184
298.67696
298.64194
298.60689
298.57193
298.53717
298.50269
298.46857
298.43489
298.40171
298.3691
298.33708
298.30568
298.27487
298.24464
298.21497
298.18588
298.15749
298.13002
298.10379
298.07914
298.05633
298.03545
298.01651
298.00039
297.98688
297.97762
297.98711
297.96167
298.05733
298.34844
297.32955
297.81008
297.67355
297.85835
297.87942
297.98267
298.04511
298.12828
298.2018
298.27978
298.35568
298.4317
298.50665
298.58038
298.65255
298.72267
298.79043
298.85538
298.91715
298.97536
299.02965
299.07968
299.12518
299.16587
299.20156
299.2321
299.25739
299.27738
299.2921
299.30161
299.30603
299.30554
299.30034
299.2907
299.27689
299.25922
299.238
299.21358
299.18627
299.15638
299.12433
299.08996
299.05402
299.01673
298.97842
298.9393
298.8996
298.85952
298.81924
298.77893
298.73872
298.69874
298.65909
298.61988
298.58117
298.54306
298.5056
298.46885
298.43286
298.39767
298.36332
298.3298
298.29711
298.2652
298.23404
298.20364
298.17406
298.1455
298.11825
298.09267
298.06904
298.04748
298.02809
298.01154
297.99712
297.98889
297.9931
297.97229
298.06335
298.57896
297.5965
298.07457
297.9535
298.13932
298.17224
298.27956
298.35065
298.43935
298.51962
298.60305
298.68428
298.76481
298.84363
298.92042
298.99475
299.06609
299.13405
299.19814
299.25794
299.31305
299.36312
299.40782
299.4469
299.48017
299.50748
299.52878
299.54407
299.55341
299.55694
299.55484
299.54737
299.5348
299.51747
299.49574
299.46997
299.44056
299.4079
299.37238
299.33439
299.29428
299.25253
299.20888
299.16416
299.1186
299.07251
299.0261
298.97959
298.93317
298.88701
298.84123
298.79596
298.7513
298.70734
298.66414
298.62179
298.58031
298.53978
298.5002
298.46164
298.42411
298.38763
298.35221
298.31781
298.2844
298.25193
298.22038
298.18978
298.16028
298.13216
298.10575
298.08139
298.05922
298.03947
298.02245
298.00751
297.99976
297.99934
297.98324
298.06995
298.83155
297.89598
298.37037
298.26737
298.45447
298.50058
298.61281
298.69326
298.7882
298.87557
298.96474
299.05126
299.13608
299.21825
299.2973
299.37273
299.44396
299.51049
299.57183
299.62754
299.67724
299.72059
299.75734
299.78731
299.81041
299.82662
299.83601
299.83872
299.83496
299.82501
299.80922
299.78796
299.76165
299.73073
299.69566
299.65691
299.61495
299.57022
299.52317
299.4742
299.42369
299.37213
299.31934
299.26597
299.21236
299.15876
299.10538
299.05242
299.00003
298.94834
298.89749
298.84755
298.7986
298.7507
298.70391
298.65825
298.61376
298.57047
298.52839
298.48754
298.44794
298.4096
298.37251
298.33663
298.30192
298.26834
298.23582
298.20439
298.17414
298.1453
298.11821
298.0932
298.07051
298.05045
298.03299
298.01785
298.01013
298.00565
297.99297
298.07467
299.11644
298.23133
298.70096
298.61876
298.80761
298.86821
298.98632
299.07676
299.17856
299.27322
299.36813
299.45957
299.54801
299.63249
299.71243
299.78722
299.85624
299.91897
299.97491
300.02365
300.06485
300.0983
300.12384
300.14144
300.15116
300.15316
300.14769
300.13507
300.1157
300.09003
300.05855
300.02179
299.9803
299.93462
299.88532
299.83291
299.77793
299.72086
299.66217
299.60226
299.54152
299.48042
299.41879
299.35719
299.29596
299.23534
299.17549
299.11658
299.05874
299.00206
298.94663
298.89252
298.83976
298.78839
298.73843
298.6899
298.6428
298.59713
298.5529
298.51011
298.46875
298.42883
298.39034
298.35323
298.31746
298.28297
298.24971
298.21765
298.18685
298.15748
298.12985
298.10432
298.0812
298.06085
298.04299
298.02788
298.01986
298.01191
298.00218
298.07841
299.43457
298.60652
299.07039
299.01189
299.20324
299.27961
299.40465
299.50557
299.6146
299.71641
299.81661
299.91202
300.00271
300.08767
300.16624
300.23772
300.3015
300.35706
300.40398
300.44194
300.47075
300.49036
300.50081
300.50228
300.49506
300.47953
300.45617
300.42552
300.38817
300.34475
300.29592
300.24233
300.18465
300.12349
300.05949
299.99321
299.92519
299.85593
299.78589
299.71545
299.64498
299.57493
299.50505
299.43586
299.36768
299.30071
299.23507
299.17088
299.10823
299.04718
298.98779
298.93008
298.87406
298.81975
298.76713
298.71619
298.66692
298.6193
298.57332
298.52894
298.48617
298.44499
298.40538
298.3673
298.33072
298.29557
298.26178
298.22931
298.19816
298.16847
298.14049
298.11455
298.09109
298.07046
298.05228
298.03734
298.0288
298.01813
298.01059
298.08094
299.78995
299.02654
299.4837
299.45194
299.64673
299.74
299.87307
299.9847
300.10083
300.20899
300.31325
300.41074
300.50126
300.58373
300.65745
300.72171
300.77598
300.81984
300.85304
300.87546
300.88717
300.88835
300.87936
300.86066
300.83282
300.7965
300.75243
300.70136
300.64409
300.58141
300.51412
300.44295
300.36865
300.29189
300.2133
300.13345
300.05288
299.97205
299.89138
299.81118
299.73182
299.6537
299.57639
299.50049
299.42622
299.35373
299.2831
299.21441
299.1477
299.083
299.02031
298.95965
298.90098
298.84429
298.78954
298.73671
298.68574
298.63662
298.58928
298.54371
298.49989
298.45778
298.41736
298.37859
298.34145
298.30587
298.27177
298.23911
298.20784
298.17805
298.14991
298.12374
298.10002
298.0791
298.06068
298.04594
298.03663
298.02414
298.01893
298.08179
300.18629
299.49785
299.94738
299.94516
300.14435
300.25521
300.39716
300.51913
300.64153
300.7541
300.85996
300.95628
301.04273
301.11819
301.18201
301.23364
301.27271
301.29907
301.31276
301.31403
301.30328
301.2811
301.24818
301.20536
301.15351
301.09358
301.02654
300.95335
300.87496
300.79229
300.70619
300.61747
300.52686
300.43504
300.3426
300.25007
300.15793
300.06659
299.97638
299.88755
299.80045
299.71536
299.63166
299.55008
299.47071
299.39367
299.31896
299.24663
299.17667
299.10907
299.04382
298.98087
298.92018
298.8617
298.80539
298.75117
298.699
298.64881
298.60056
298.55419
298.50967
298.46697
298.42605
298.38688
298.34943
298.31365
298.27947
298.24682
298.21565
298.18599
298.15792
298.1317
298.10784
298.08663
298.06802
298.05344
298.04324
298.02977
298.02641
298.08068
300.62647
300.02802
300.46924
300.4998
300.70489
300.83329
300.98402
301.1129
301.23966
301.35337
301.45652
301.54653
301.62296
301.68489
301.7319
301.76374
301.78045
301.78233
301.7699
301.74388
301.70517
301.65479
301.59388
301.5236
301.44515
301.35972
301.26847
301.17249
301.07282
300.9704
300.8661
300.7607
300.65488
300.54924
300.44431
300.34052
300.23827
300.13786
300.03953
299.94347
299.85
299.75916
299.67028
299.58418
299.50081
299.42022
299.3424
299.26732
299.19495
299.12524
299.05815
298.9936
298.93152
298.87185
298.81451
298.75943
298.70653
298.65574
298.60698
298.56021
298.51536
298.4724
298.4313
298.39201
298.3545
298.31874
298.28467
298.25223
298.22137
298.19204
298.16427
298.13826
298.11439
298.09294
298.07415
298.05971
298.04873
298.03474
298.03282
298.07796
301.11807
300.62773
301.05821
301.12458
301.33727
301.47935
301.63731
301.77145
301.89717
302.00604
302.09932
302.17503
302.23286
302.27233
302.29353
302.29681
302.28286
302.2526
302.20721
302.14799
302.0764
301.99391
301.90203
301.80225
301.69597
301.58454
301.46919
301.35105
301.23112
301.11031
300.98939
300.86904
300.74984
300.63226
300.51671
300.40351
300.29293
300.18519
300.08038
299.97867
299.88029
299.78499
299.69229
299.60285
299.5166
299.43351
299.35353
299.27661
299.20266
299.13161
299.06339
298.9979
298.93505
298.87476
298.81693
298.76148
298.70831
298.65734
298.60849
298.56169
298.51687
298.47398
298.43299
298.39385
298.35653
298.32101
298.28724
298.25518
298.22478
298.19597
298.16874
298.14318
298.11954
298.09796
298.079
298.06449
298.05271
298.03863
298.0379
298.07357
301.67774
301.3176
301.72941
301.83248
302.03852
302.20055
302.36057
302.49385
302.61045
302.70481
302.77764
302.82781
302.85566
302.86153
302.84639
302.81147
302.75831
302.68864
302.60434
302.50732
302.39951
302.28275
302.15882
302.02935
301.89582
301.75957
301.62178
301.48348
301.34554
301.20871
301.07362
300.94077
300.81059
300.68341
300.55948
300.439
300.32212
300.20891
300.09937
299.99365
299.89187
299.79345
299.69822
299.60664
299.51859
299.43401
299.3528
299.27488
299.20014
299.12849
299.05981
298.994
298.93097
298.87059
298.81277
298.7574
298.7044
298.65366
298.60509
298.55862
298.51416
298.47167
298.43108
298.39235
298.35547
298.32039
298.2871
298.25556
298.22575
298.1976
298.17106
298.14619
298.12306
298.10163
298.08264
298.06774
298.05465
298.04031
298.04232
298.06785
302.31542
302.0891
302.47455
302.6098
302.84508
303.00761
303.15546
303.27435
303.36801
303.43299
303.47068
303.48091
303.46527
303.42526
303.36304
303.2809
303.18135
303.06688
302.94
302.80306
302.65827
302.50763
302.35296
302.19582
302.03759
301.87943
301.72233
301.56708
301.41436
301.26469
301.11849
300.97608
300.8377
300.7035
300.5736
300.44808
300.32695
300.21015
300.09763
299.98955
299.88582
299.78554
299.689
299.59637
299.50756
299.42242
299.34085
299.26273
299.18793
299.11634
299.04783
298.98228
298.91957
298.85959
298.80224
298.74739
298.69494
298.6448
298.59686
298.55104
298.50726
298.46545
298.42554
298.3875
298.35127
298.31684
298.2842
298.25332
298.22419
298.19677
298.17104
298.14702
298.12462
298.10373
298.08508
298.06967
298.0548
298.04036
298.04579
298.06102
303.03942
302.95225
303.3465
303.51611
303.72497
303.87365
304.00125
304.08747
304.14119
304.15896
304.14448
304.09921
304.0265
303.92939
303.81136
303.67576
303.52586
303.36473
303.19515
303.01961
302.84029
302.65903
302.47743
302.29678
302.11816
301.94241
301.77023
301.60212
301.43849
301.27961
301.12569
300.97683
300.83311
300.69452
300.56105
300.43267
300.30926
300.19066
300.07683
299.96793
299.86351
299.76249
299.66578
299.57314
299.48448
299.39964
299.31848
299.24087
299.16666
299.09573
299.02793
298.96315
298.90124
298.84211
298.78562
298.73166
298.68012
298.63091
298.58392
298.53905
298.49622
298.45536
298.4164
298.37927
298.34394
298.31037
298.27855
298.24846
298.22011
298.19348
298.16859
298.14545
298.12392
298.1039
298.08605
298.07069
298.055
298.04063
298.04483
298.05302
303.87025
303.95762
304.31789
304.48978
304.67727
304.79155
304.87156
304.90099
304.89044
304.83967
304.75467
304.63924
304.49851
304.33695
304.15903
303.96869
303.76951
303.56456
303.35647
303.1474
302.93914
302.73313
302.53048
302.33208
302.13857
301.95043
301.76799
301.59148
301.42101
301.25664
301.09835
300.94608
300.79976
300.65925
300.52444
300.39519
300.27127
300.15249
300.03891
299.93043
299.82618
299.72581
299.62985
299.5381
299.4504
299.3666
299.28653
299.21004
299.137
299.06724
299.00064
298.93707
298.87638
298.81846
298.76319
298.71046
298.66014
298.61215
298.56637
298.52271
298.48109
298.44143
298.40364
298.36767
298.33345
298.30096
298.27015
298.24102
298.21357
298.1878
298.16375
298.14145
298.12077
298.1017
298.08481
298.06983
298.05408
298.03996
298.04289
298.0446
304.82873
305.08108
305.38744
305.53365
305.66081
305.70727
305.70696
305.65098
305.55218
305.41431
305.2456
305.05197
304.83968
304.61393
304.37932
304.13966
303.89807
303.65707
303.41862
303.18424
302.95504
302.73186
302.51527
302.30565
302.10322
301.90809
301.72027
301.53972
301.36632
301.19992
301.04037
300.88746
300.74099
300.60076
300.46657
300.33818
300.21529
300.09779
299.98575
299.87873
299.77559
299.67681
299.58244
299.49234
299.4063
299.32416
299.24576
299.17093
299.09953
299.03141
298.96643
298.90445
298.84533
298.78897
298.73523
298.68401
298.63518
298.58866
298.54434
298.50212
298.46192
298.42366
298.38726
298.35265
298.31976
298.28855
298.25898
298.23102
298.20464
298.17986
298.15671
298.13523
298.11532
298.09713
298.08114
298.06676
298.05172
298.03841
298.03957
298.03618
305.90217
306.2726
306.49275
306.56905
306.59523
306.53627
306.42393
306.25847
306.05511
305.82127
305.56644
305.29737
305.02017
304.7395
304.45907
304.18167
303.90936
303.64365
303.38554
303.13573
302.89462
302.6624
302.43913
302.22474
302.01911
301.82202
301.63326
301.45256
301.27966
301.11427
300.95611
300.80491
300.66037
300.52226
300.39031
300.2642
300.14366
300.02869
299.91919
299.8143
299.7132
299.61678
299.52472
299.43689
299.35309
299.27315
299.1969
299.12418
299.05484
298.98873
298.92571
298.86565
298.80842
298.75389
298.70195
298.65249
298.60539
298.56056
298.51791
298.47732
298.43874
298.40206
298.36722
298.33415
298.30277
298.27304
298.24491
298.21832
298.19325
298.16969
298.14764
298.12709
298.108
298.09056
298.07516
298.06117
298.04719
298.03605
298.03506
298.02874
307.15541
307.44524
307.53167
307.48508
307.36493
307.16697
306.92118
306.63688
306.32948
306.00773
305.67991
305.35155
305.02694
304.70898
304.39968
304.10032
303.81167
303.53411
303.26775
303.01252
302.76821
302.53455
302.31118
302.09774
301.89383
301.69908
301.51309
301.33549
301.1659
301.00397
300.84937
300.70175
300.56082
300.4263
300.29787
300.17517
300.05808
299.94663
299.84031
299.73798
299.63998
299.54649
299.45733
299.37229
299.29121
299.2139
299.14021
299.06997
299.00304
298.93927
298.87853
298.82067
298.76559
298.71316
298.66326
298.61579
298.57064
298.52771
298.48691
298.44815
298.41136
298.37644
298.34332
298.31195
298.28224
298.25416
298.22763
298.20262
298.17909
298.157
298.13635
298.11707
298.09913
298.08269
298.06795
298.05429
298.041
298.03108
298.02871
298.02411
308.41685
308.43634
308.32268
308.09887
307.80457
307.46126
307.09187
306.70904
306.32383
305.94278
305.5706
305.21003
304.86275
304.52953
304.21068
303.9061
303.61549
303.3384
303.07432
302.82266
302.58284
302.3543
302.13646
301.92881
301.73082
301.54202
301.36196
301.19019
301.02633
300.86998
300.72078
300.5784
300.44254
300.3129
300.1891
300.07089
299.9583
299.85116
299.74851
299.64961
299.55534
299.46542
299.3797
299.29798
299.22009
299.14586
299.07513
299.00776
298.9436
298.88251
298.82436
298.76902
298.71638
298.66632
298.61873
298.5735
298.53054
298.48975
298.45103
298.41431
298.3795
298.34653
298.31533
298.28582
298.25795
298.23167
298.20692
298.18365
298.16182
298.14141
298.12238
298.10468
298.08828
298.07331
298.05981
298.04722
298.03526
298.02629
298.02201
298.01269
309.03338
308.85196
308.52981
308.14328
307.72063
307.28615
306.85303
306.42937
306.01984
305.62663
305.2508
304.89249
304.55141
304.22695
303.91841
303.62499
303.3459
303.08036
302.82765
302.58707
302.35792
302.13961
301.93157
301.73325
301.54416
301.36382
301.1918
301.02768
300.87107
300.72162
300.57897
300.44282
300.31288
300.18882
300.0703
299.95725
299.84972
299.74706
299.64808
299.55345
299.46321
299.37717
299.29515
299.21698
299.14251
299.07156
299.004
298.93967
298.87846
298.82021
298.76482
298.71215
298.66211
298.61456
298.56942
298.52658
298.48594
298.44742
298.41092
298.37637
298.34369
298.3128
298.28364
298.25613
298.23023
298.20586
298.183
298.16157
298.14155
298.12291
298.10561
298.0896
298.07486
298.06148
298.04942
298.03832
298.02814
298.02032
298.01539
298.00775
308.29867
308.23877
307.90188
307.52594
307.11421
306.70083
306.29254
305.8966
305.51537
305.15011
304.8011
304.46811
304.1507
303.84824
303.56008
303.28554
303.02393
302.77458
302.53686
302.31024
302.09416
301.88811
301.69159
301.50412
301.32525
301.15457
300.99167
300.83619
300.68779
300.54612
300.41089
300.28183
300.15867
300.04106
299.92878
299.82186
299.71998
299.62216
299.52816
299.43853
299.35307
299.2716
299.19396
299.12001
299.04957
298.98252
298.9187
298.858
298.80028
298.74542
298.6933
298.64381
298.59685
298.55231
298.51009
298.47009
298.43223
298.39643
298.36258
298.33063
298.30049
298.27209
298.24536
298.22025
298.1967
298.17464
298.15404
298.13483
298.11699
298.10048
298.08525
298.07129
298.05856
298.0471
298.03686
298.02768
298.0196
298.01321
298.00864
298.00367
305.89053
306.13628
306.16128
306.05349
305.84476
305.59167
305.31116
305.01912
304.72371
304.43036
304.14251
303.8622
303.59071
303.32872
303.07658
302.83435
302.60197
302.37926
302.16595
301.96172
301.76625
301.57917
301.40017
301.22889
301.06501
300.90823
300.75824
300.61478
300.47755
300.34632
300.22084
300.10091
299.98621
299.87651
299.77182
299.67213
299.5767
299.48457
299.39667
299.31277
299.23276
299.15648
299.08379
299.01455
298.94863
298.88591
298.82625
298.76954
298.71567
298.66452
298.61599
298.56997
298.52637
298.4851
298.44605
298.40914
298.37429
298.34142
298.31045
298.2813
298.25391
298.2282
298.20412
298.18161
298.16061
298.14106
298.12292
298.10615
298.0907
298.07654
298.06363
298.05195
298.04148
298.0322
298.02408
298.01709
298.01125
298.00666
298.00334
298.00097
308.28102
308.34777
307.87965
307.11635
306.19214
305.3116
304.55126
303.91059
303.36619
302.90042
302.46627
302.08203
301.73681
301.42224
301.12576
300.85383
300.59679
300.36283
300.14641
299.95626
299.77704
299.62376
299.48059
299.35405
299.23735
299.13803
299.04621
298.96424
298.88893
298.82381
298.76595
298.71305
298.66421
298.61859
298.57567
298.53501
298.49632
298.45934
298.42378
298.38977
298.35728
298.32595
298.29596
298.26743
298.23993
298.21354
298.18828
298.16414
298.14109
298.11909
298.09811
298.07809
298.059
298.04079
298.02343
298.00689
297.99106
297.97599
297.96144
297.94771
297.93412
297.9216
297.90841
297.89714
297.88353
297.87412
297.85891
297.8532
297.8357
297.83681
297.81322
297.82768
297.7921
297.82715
297.77476
297.83926
297.77615
297.86531
297.81744
297.9029
305.9433
305.30191
304.64795
303.83958
302.96012
302.2024
301.61802
301.19742
300.89904
300.672
300.48955
300.33411
300.19542
300.06727
299.94227
299.82855
299.7131
299.61031
299.50613
299.41557
299.32289
299.24323
299.16151
299.09289
299.02162
298.96248
298.90304
298.84848
298.79595
298.74827
298.70338
298.66046
298.61912
298.57923
298.54075
298.50365
298.46785
298.43334
298.39994
298.36799
298.33738
298.30789
298.27947
298.25256
298.2266
298.20167
298.17779
298.15496
298.13314
298.11232
298.09243
298.07345
298.05533
298.03803
298.02151
298.00576
297.99064
297.97622
297.96226
297.94906
297.93594
297.92382
297.911
297.9
297.88665
297.8774
297.86236
297.85626
297.83909
297.84049
297.81713
297.8314
297.79581
297.83121
297.77807
297.84307
297.7785
297.87068
297.81756
297.90991
300.24168
300.1671
299.6058
298.79147
298.3553
298.29613
298.34911
298.43346
298.53027
298.62567
298.712
298.78616
298.84773
298.89584
298.92918
298.96101
298.9717
298.98787
298.97426
298.96317
298.93504
298.91641
298.88368
298.85901
298.82434
298.79333
298.75717
298.72253
298.69143
298.65933
298.62484
298.59072
298.55658
298.52285
298.48967
298.45718
298.42551
298.39469
298.36459
298.33616
298.30845
298.28157
298.25587
298.23106
298.20715
298.18422
298.16223
298.14116
298.121
298.10171
298.08326
298.06562
298.04874
298.03263
298.01719
298.00246
297.98822
297.97471
297.96145
297.94903
297.9364
297.925
297.9124
297.90213
297.88867
297.88029
297.86394
297.85937
297.84222
297.84447
297.81976
297.83574
297.79783
297.83598
297.77895
297.84905
297.77907
297.87651
297.81784
297.91574
302.72065
302.72911
302.06065
300.73585
299.87263
299.65722
299.59154
299.54703
299.51034
299.45698
299.39822
299.33903
299.28438
299.2289
299.22896
299.13913
299.14299
299.04839
299.06018
298.96946
298.98042
298.89569
298.90327
298.82407
298.82528
298.75515
298.72489
298.68318
298.65412
298.61765
298.58292
298.54961
298.51718
298.48562
298.45493
298.42506
298.39601
298.36776
298.34043
298.31415
298.28851
298.26364
298.23967
298.21655
298.19431
298.17292
298.1524
298.1327
298.11382
298.09575
298.07844
298.06187
298.04599
298.03081
298.01622
298.00228
297.98876
297.97591
297.96321
297.95133
297.93911
297.92814
297.91578
297.90586
297.89248
297.88437
297.86782
297.86369
297.84614
297.84873
297.82303
297.84011
297.80131
297.84006
297.78277
297.85267
297.78153
297.88074
297.81922
297.92018
301.86795
301.44773
300.4328
299.19556
298.73379
298.62543
298.65318
298.66
298.66864
298.66701
298.67299
298.6762
298.681
298.68284
298.68441
298.68323
298.68126
298.67647
298.67045
298.66619
298.65164
298.65203
298.63366
298.6283
298.60518
298.59363
298.57352
298.55364
298.5306
298.50851
298.48592
298.46271
298.43911
298.41532
298.39148
298.36771
298.34414
298.32084
298.29806
298.27591
298.25403
298.23262
298.21182
298.19165
298.17214
298.15328
298.13511
298.11759
298.10073
298.08453
298.06894
298.05397
298.03957
298.02575
298.01239
297.99959
297.98709
297.97517
297.96328
297.95216
297.94053
297.93018
297.9182
297.90879
297.89555
297.88794
297.87112
297.86774
297.84896
297.85296
297.82655
297.84445
297.80416
297.84414
297.78439
297.8576
297.78292
297.88561
297.82003
297.92471
301.95533
301.54336
300.46578
299.21433
298.62277
298.54979
298.5762
298.57568
298.57679
298.5672
298.56946
298.57062
298.57279
298.5724
298.57219
298.56939
298.56653
298.56155
298.55643
298.54816
298.54162
298.52932
298.5202
298.50604
298.49493
298.47955
298.465
298.44946
298.43368
298.417
298.39985
298.38221
298.36418
298.34588
298.32738
298.30877
298.29012
298.2715
298.25316
298.23511
298.21708
298.19931
298.18189
298.16488
298.1483
298.13219
298.11655
298.10139
298.08673
298.07255
298.05884
298.04561
298.0328
298.02044
298.00842
297.99683
297.98542
297.97448
297.96345
297.95311
297.94212
297.93236
297.92082
297.91186
297.89885
297.89159
297.87518
297.87172
297.85235
297.85726
297.83026
297.84872
297.80745
297.84838
297.7876
297.86186
297.78486
297.89016
297.82105
297.92906
301.5991
301.09629
299.90412
298.7101
298.27721
298.207
298.24247
298.25214
298.271
298.2789
298.29189
298.29876
298.30825
298.3151
298.32247
298.32836
298.33372
298.33806
298.34138
298.34416
298.34524
298.34642
298.34544
298.34425
298.34086
298.33704
298.33166
298.32518
298.31747
298.30894
298.2996
298.28933
298.27828
298.26658
298.25432
298.24157
298.22846
298.21506
298.20163
298.18815
298.17444
298.16075
298.14716
298.13372
298.1205
298.10751
298.09478
298.08234
298.07019
298.05835
298.04679
298.03554
298.02455
298.01386
298.00336
297.99314
297.98296
297.97313
297.96307
297.95359
297.94334
297.93423
297.92319
297.91472
297.902
297.8951
297.8787
297.87572
297.85644
297.86135
297.83386
297.85284
297.81052
297.85252
297.78981
297.86625
297.78662
297.89466
297.822
297.93327
301.44667
300.86841
299.57765
298.44298
298.09826
298.05506