/*--------------------------------*- C++ -*----------------------------------*\
  =========                 |
  \\      /  F ield         | OpenFOAM: The Open Source CFD Toolbox
   \\    /   O peration     | Website:  https://openfoam.org
    \\  /    A nd           | Version:  6
     \\/     M anipulation  |
\*---------------------------------------------------------------------------*/
FoamFile
{
    version     2.0;
    format      ascii;
    class       volVectorField;
    location    "350";
    object      U;
}
// * * * * * * * * * * * * * * * * * * * * * * * * * * * * * * * * * * * * * //

dimensions      [0 1 -1 0 0 0 0];

internalField   nonuniform List<vector> 
16000
(
(152.88423 1.2653183e-15 -17.677278)
(161.70435 -1.1247949e-15 -11.477475)
(158.33346 4.3565226e-18 -16.724485)
(159.91534 3.9371097e-18 -12.47007)
(158.60551 0 -15.616145)
(159.04553 -9.0001303e-16 -13.167362)
(158.39286 8.5225348e-16 -14.824442)
(158.4251 0 -13.529055)
(158.01389 -1.8597156e-19 -14.298346)
(157.87774 1.7592893e-19 -13.640839)
(157.55931 3.3337055e-19 -13.937314)
(157.34704 -6.4676315e-16 -13.594071)
(157.06135 6.1330438e-16 -13.657941)
(156.81304 4.8309744e-18 -13.452615)
(156.53505 5.5194638e-16 -13.406908)
(156.26796 -5.239498e-16 -13.25273)
(155.98818 -9.9587871e-16 -13.154315)
(155.70997 9.4516247e-16 -13.011991)
(155.4257 0 -12.884707)
(155.14031 8.541176e-16 -12.737557)
(154.85177 -8.1221989e-16 -12.59039)
(154.56197 -7.7338899e-16 -12.431634)
(154.27073 -7.3660683e-19 -12.267564)
(153.97908 -3.6114606e-19 -12.09454)
(153.68748 6.5573528e-16 -11.914451)
(153.39675 0 -11.72625)
(153.1076 6.0513734e-16 -11.53055)
(152.82085 -5.6667317e-16 -11.327171)
(152.5373 -5.3566381e-19 -11.116439)
(152.25783 -5.1056691e-19 -10.898523)
(151.9833 -4.9874545e-16 -10.67377)
(151.71461 4.7487922e-16 -10.44253)
(151.45266 -1.4178443e-17 -10.205335)
(151.19833 -1.2680449e-17 -9.9627226)
(150.9525 8.2558974e-16 -9.7152813)
(150.71598 -1.5760805e-15 -9.4636834)
(150.48957 7.5161012e-16 -9.2085979)
(150.27398 1.1218856e-17 -8.9507696)
(150.06993 1.0711199e-17 -8.6910367)
(149.87806 0 -8.4302869)
(149.69893 -1.2200606e-18 -8.1694015)
(149.53301 1.1654585e-18 -7.9092769)
(149.38071 -5.6926174e-16 -7.6508191)
(149.24239 5.4593654e-16 -7.3949264)
(149.11828 5.1985203e-16 -7.142468)
(149.00856 -4.977662e-16 -6.8942799)
(148.91332 -9.292758e-19 -6.6511532)
(148.83257 0 -6.4138186)
(148.76625 4.3522976e-16 -6.1829412)
(148.71423 -4.1624195e-16 -5.9591102)
(148.6763 0 -5.7428332)
(148.65218 0 -5.5345293)
(148.64151 2.2796754e-17 -5.3345291)
(148.64388 -1.3632692e-18 -5.1430836)
(148.65883 2.0894583e-17 -4.9603441)
(148.68593 0 -4.7863701)
(148.72464 0 -4.6211455)
(148.77433 0 -4.4645774)
(148.83432 0 -4.3164901)
(148.90386 -3.5857106e-17 -4.176662)
(148.98229 -3.2361023e-17 -4.0447799)
(149.06869 0 -3.9205682)
(149.16261 2.978123e-17 -3.8035337)
(149.26261 0 -3.6935217)
(149.36907 -3.0872509e-17 -3.589606)
(149.47835 -4.2494262e-16 -3.4923065)
(149.59371 4.0521482e-16 -3.3992858)
(149.70411 -3.0427146e-18 -3.3136292)
(149.82392 3.7453938e-16 -3.2282421)
(149.92033 -3.8021707e-16 -3.1550757)
(150.04633 0 -3.0706603)
(150.10318 -3.3430853e-16 -3.0179926)
(150.26601 6.4439924e-16 -2.9111034)
(150.21723 -3.1106636e-16 -2.9160696)
(150.49303 4.6856624e-18 -2.7150138)
(150.16316 0 -2.9260266)
(150.72467 -1.4008269e-16 -2.3564)
(149.81414 1.715959e-17 -3.2603858)
(150.8627 1.3142185e-16 -1.5128362)
(149.33752 -3.2050018e-17 -4.3343151)
(152.55343 -1.2750587e-15 -19.390672)
(161.40727 1.1354113e-15 -12.913977)
(157.84091 -4.2994177e-18 -18.413452)
(159.51367 1.0308692e-15 -13.911359)
(158.11647 -9.8309844e-16 -17.230839)
(158.59953 7.1741313e-18 -14.622682)
(157.89993 0 -16.368858)
(157.94334 0 -14.983803)
(157.5059 7.660261e-16 -15.783944)
(157.36603 -7.4761342e-16 -15.077242)
(157.03082 6.8705179e-16 -15.372698)
(156.80888 -6.6111857e-16 -14.998556)
(156.50982 0 -15.046498)
(156.24992 5.9043926e-16 -14.816047)
(155.95975 -5.645391e-16 -14.747801)
(155.68085 0 -14.568688)
(155.38956 0 -14.444349)
(155.10005 0 -14.27527)
(154.80504 -9.0548605e-16 -14.119633)
(154.50934 8.7407387e-16 -13.943369)
(154.21117 0 -13.765613)
(153.91242 7.9115377e-16 -13.575352)
(153.61311 -7.4063276e-16 -13.378501)
(153.31429 -7.1648903e-16 -13.17171)
(153.01658 3.1609284e-17 -12.956752)
(152.72089 6.2885224e-16 -12.732737)
(152.42802 6.3794343e-16 -12.500286)
(152.13889 -1.1874958e-15 -12.259335)
(151.8544 1.122712e-15 -12.010285)
(151.57551 -5.181166e-16 -11.753418)
(151.30313 5.1006765e-16 -11.489198)
(151.0382 -9.7232489e-16 -11.218121)
(150.78165 9.4162867e-16 -10.940782)
(150.53439 -8.704145e-16 -10.657833)
(150.29727 4.216218e-16 -10.370076)
(150.07112 0 -10.078351)
(149.8567 2.4007452e-17 -9.7835365)
(149.6547 -1.1442837e-17 -9.4865219)
(149.4657 -7.1037259e-16 -9.1881976)
(149.29024 7.0922097e-16 -8.8895857)
(149.12876 0 -8.5917333)
(148.98161 -6.0870589e-16 -8.2956575)
(148.84906 3.6198897e-17 -8.0023616)
(148.73128 1.1103841e-15 -7.7128444)
(148.62836 -5.3032521e-16 -7.428063)
(148.5403 -5.0679424e-16 -7.14892)
(148.46702 5.1448281e-16 -6.8762646)
(148.40838 -4.0495905e-16 -6.6108709)
(148.36414 8.2943715e-16 -6.3534333)
(148.33401 -4.2289937e-16 -6.1045586)
(148.31765 0 -5.8647602)
(148.31465 0 -5.6344532)
(148.32456 -2.3110261e-17 -5.4139529)
(148.34685 -7.0762188e-16 -5.2034857)
(148.38097 6.5595321e-16 -5.0031792)
(148.4264 6.0750825e-16 -4.8130526)
(148.4826 -3.9508162e-20 -4.633043)
(148.54892 -6.6821596e-16 -4.4630126)
(148.62463 0 -4.302738)
(148.70903 3.4044555e-17 -4.1519302)
(148.80139 -3.2636271e-17 -4.0102339)
(148.90094 -6.2530242e-17 -3.8772688)
(149.00702 -4.4941099e-16 -3.7525533)
(149.11868 7.7855195e-20 -3.6356968)
(149.23552 4.1331441e-16 -3.526011)
(149.35563 0 -3.4233371)
(149.4794 -4.0580073e-16 -3.3263772)
(149.60141 3.8964874e-16 -3.2360884)
(149.72615 -4.6773133e-17 -3.1489914)
(149.83825 3.8190887e-16 -3.0703624)
(149.96056 -6.9104428e-16 -2.9882056)
(150.04527 3.7390184e-16 -2.9256357)
(150.17942 3.1964828e-16 -2.8319987)
(150.19345 -1.1043939e-19 -2.8109837)
(150.39416 -3.1958869e-16 -2.6441826)
(150.19185 2.6810685e-16 -2.7916628)
(150.60595 -2.7125289e-16 -2.3126519)
(149.8962 -1.6703623e-17 -3.0826919)
(150.72792 1.6041799e-17 -1.5097888)
(149.45714 3.1208395e-17 -4.0792971)
(152.06817 1.2892695e-15 -21.137222)
(160.93556 -7.1173676e-21 -14.41468)
(157.20989 -1.1207244e-15 -20.106362)
(158.96341 1.037274e-15 -15.426109)
(157.48991 7.7621884e-18 -18.849062)
(158.0001 9.2864137e-16 -16.143505)
(157.26147 -1.7738791e-15 -17.923067)
(157.30669 1.2715801e-17 -16.49058)
(156.84677 7.9383484e-16 -17.285359)
(156.69787 1.1740408e-17 -16.55317)
(156.34673 -7.2388753e-16 -16.826692)
(156.11194 6.7527611e-16 -16.432372)
(155.79914 0 -16.452782)
(155.52571 0 -16.200404)
(155.22263 -5.7722276e-16 -16.102773)
(154.93071 5.4781028e-16 -15.898048)
(154.62724 0 -15.742978)
(154.3258 1.5466159e-17 -15.544613)
(154.01971 -1.468176e-17 -15.356504)
(153.71356 8.6612711e-16 -15.147725)
(153.40591 4.6848702e-19 -14.935383)
(153.09864 -7.8308986e-16 -14.709796)
(152.79195 7.5757015e-16 -14.476124)
(152.48701 -7.3201589e-16 -14.231555)
(152.18455 -7.18971e-16 -13.97765)
(151.88559 6.8418481e-16 -13.713773)
(151.59106 1.9793159e-17 -13.44055)
(151.30198 3.7653158e-17 -13.158086)
(151.01933 3.5871176e-17 -12.866883)
(150.74415 -5.6364442e-16 -12.567379)
(150.47741 4.8806162e-16 -12.260184)
(150.22009 5.275367e-16 -11.945956)
(149.97315 -4.730914e-16 -11.625467)
(149.73746 -4.5127575e-16 -11.29956)
(149.51385 8.6049e-16 -10.969147)
(149.30311 -8.2068668e-16 -10.635234)
(149.10591 -3.6712282e-16 -10.298903)
(148.92288 7.4670908e-16 -9.9612858)
(148.75448 0 -9.6234714)
(148.60109 -6.8005842e-16 -9.2865128)
(148.46299 6.0832568e-16 -8.9515765)
(148.34037 0 -8.6198313)
(148.2333 -3.69447e-17 -8.2923678)
(148.14176 0 -7.9702498)
(148.06563 6.7433207e-17 -7.6545045)
(148.00473 0 -7.3460727)
(147.95878 -3.0727669e-17 -7.0458245)
(147.92743 4.7849237e-20 -6.7545435)
(147.91027 1.1222307e-16 -6.472914)
(147.90684 0 -6.2015215)
(147.91663 0 -5.9408461)
(147.93911 0 -5.6912595)
(147.9737 0 -5.4530272)
(148.01977 0 -5.2263092)
(148.07669 8.5604033e-17 -5.0111776)
(148.14384 4.0916411e-17 -4.8075941)
(148.22064 6.2634855e-16 -4.6154188)
(148.30642 -5.9934311e-16 -4.434444)
(148.40047 -7.1694876e-17 -4.2643803)
(148.50205 0 -4.1048632)
(148.61045 6.5659221e-17 -3.9554722)
(148.72496 5.6580378e-16 -3.8157426)
(148.84487 -5.4190037e-16 -3.6851512)
(148.96942 0 -3.5631742)
(149.09799 -5.526504e-17 -3.4491795)
(149.22935 -1.0589023e-16 -3.3426785)
(149.36284 4.0589081e-16 -3.2427978)
(149.49543 -3.8923895e-16 -3.1494437)
(149.62741 4.6652662e-17 -3.0609029)
(149.7513 -3.5804806e-16 -2.9788883)
(149.87544 8.7016598e-20 -2.8979206)
(149.97769 2.8876426e-16 -2.8281826)
(150.10013 0 -2.7441425)
(150.15061 0 -2.7029832)
(150.30825 1.8289677e-17 -2.5686331)
(150.19274 1.7617356e-17 -2.6544436)
(150.49903 2.9620796e-17 -2.2619455)
(149.93888 -1.1437317e-16 -2.8905282)
(150.62434 1.1399089e-16 -1.49606)
(149.48128 -6.0320811e-17 -3.8746065)
(151.43432 3.1164243e-17 -22.927563)
(160.29087 9.2478619e-18 -15.946024)
(156.43 1.1576831e-15 -21.835703)
(158.26343 4.8016469e-19 -16.97297)
(156.71126 -1.0118247e-15 -20.496926)
(157.24813 -9.535611e-16 -17.694243)
(156.46909 9.0357961e-16 -19.501518)
(156.51464 -1.3342568e-17 -18.023454)
(156.03138 8.224849e-16 -18.806684)
(155.87191 -7.425723e-16 -18.049928)
(155.50415 -7.2719375e-16 -18.296383)
(155.25534 1.3569844e-15 -17.881146)
(154.92816 -6.5376954e-16 -17.869998)
(154.64045 1.9407929e-17 -17.59362)
(154.32399 0 -17.463143)
(154.01873 0 -17.229933)
(153.70297 -5.3161476e-16 -17.040785)
(153.3897 4.8909593e-16 -16.809824)
(153.07289 0 -16.585791)
(152.75692 9.4149316e-16 -16.340946)
(152.44071 -8.9488609e-16 -16.090423)
(152.12614 4.1561635e-20 -15.825835)
(151.81365 0 -15.551659)
(151.50448 -4.6762735e-17 -15.26561)
(151.19953 -7.116952e-16 -14.969098)
(150.89993 6.3478133e-16 -14.661747)
(150.60674 -6.8539554e-16 -14.344241)
(150.32106 5.7567989e-16 -14.016876)
(150.04397 -3.6536873e-17 -13.6803)
(149.77654 -3.4864108e-17 -13.33514)
(149.51982 -4.9796936e-16 -12.982186)
(149.27479 4.7429361e-16 -12.622296)
(149.04239 0 -12.256439)
(148.82346 0 -11.885656)
(148.61878 0 -11.511072)
(148.429 -5.2272084e-17 -11.133871)
(148.2547 -4.977125e-17 -10.755265)
(148.09632 8.07615e-16 -10.376557)
(147.95421 -9.0473206e-17 -9.9991017)
(147.82858 -6.4807098e-16 -9.6241163)
(147.71947 4.1205922e-17 -9.2527688)
(147.62687 6.2949433e-16 -8.8863294)
(147.55063 -5.2546717e-16 -8.5260005)
(147.4905 -5.7327773e-16 -8.1728709)
(147.44614 -6.8419977e-17 -7.8279963)
(147.41714 9.7927974e-16 -7.4923322)
(147.403 -3.739035e-16 -7.1667288)
(147.40318 -5.9488589e-17 -6.8519428)
(147.41709 3.9783679e-16 -6.5486136)
(147.44408 -5.4278926e-16 -6.2572686)
(147.4835 -4.1470432e-16 -5.9783215)
(147.53467 3.9615613e-16 -5.712069)
(147.59689 0 -5.4586972)
(147.66948 7.2315134e-16 -5.218281)
(147.7517 -7.7744514e-16 -4.9908013)
(147.84287 0 -4.7761426)
(147.94236 6.3131665e-16 -4.5740832)
(148.04953 -9.8084515e-16 -4.3843236)
(148.16364 5.0501168e-16 -4.2064993)
(148.28397 5.5188548e-16 -4.0401666)
(148.40984 -1.3208935e-16 -3.884829)
(148.54055 -5.0501305e-16 -3.7399461)
(148.67545 -4.8306276e-16 -3.6049305)
(148.81385 5.7790946e-16 -3.4791712)
(148.95511 -4.4239327e-16 -3.3620054)
(149.09831 1.0595518e-16 -3.2527956)
(149.24251 4.0548548e-16 -3.1507676)
(149.38564 -3.8819623e-16 -3.0554116)
(149.52649 5.5785596e-16 -2.9656376)
(149.66068 0 -2.8816684)
(149.79042 0 -2.800865)
(149.90521 0 -2.7272441)
(150.02442 0 -2.6481766)
(150.09972 1.5055058e-16 -2.5937341)
(150.23042 -2.8882244e-16 -2.4828204)
(150.17643 3.4689537e-16 -2.5205867)
(150.40978 -3.6612593e-16 -2.2018599)
(149.9623 4.967577e-16 -2.7051074)
(150.53557 -3.7298389e-16 -1.4700414)
(149.49584 -1.088714e-19 -3.6353137)
(150.65076 1.3493011e-15 -24.754511)
(159.45821 5.3502701e-19 -17.508847)
(155.49683 -1.1944605e-15 -23.589501)
(157.40617 0 -18.556914)
(155.77676 -1.6099562e-17 -22.163202)
(156.33455 -3.0361225e-17 -19.278579)
(155.51661 0 -21.095027)
(155.55768 -8.4336348e-16 -19.583049)
(155.05159 8.2475858e-16 -20.340649)
(154.87809 -8.0611308e-16 -19.565229)
(154.49332 7.408304e-16 -19.775306)
(154.2282 -3.5235628e-20 -19.340271)
(153.88586 0 -19.291336)
(153.58243 6.1326169e-16 -18.989143)
(153.25189 -6.0066296e-16 -18.821006)
(152.93253 0 -18.555972)
(152.60416 5.4221998e-16 -18.328336)
(152.27898 -5.4714915e-16 -18.060709)
(151.95173 4.8971051e-16 -17.796327)
(151.62656 4.3672389e-16 -17.511001)
(151.3028 -8.5725997e-16 -17.217775)
(150.98234 -2.628688e-17 -16.909633)
(150.66588 5.0108925e-17 -16.590402)
(150.35474 -9.1357597e-20 -16.258355)
(150.05002 0 -15.914797)
(149.75295 -8.3073876e-20 -15.559648)
(149.4647 0 -15.193702)
(149.18646 3.9145579e-17 -14.817489)
(148.91939 0 -14.431845)
(148.66459 3.5435528e-17 -14.037629)
(148.42312 0 -13.635854)
(148.19594 0 -13.227615)
(147.98393 6.1387364e-17 -12.814108)
(147.78785 0 -12.396606)
(147.60836 -4.4562087e-16 -11.976445)
(147.44597 4.7763302e-16 -11.555013)
(147.30106 0 -11.133733)
(147.17388 -4.8204396e-17 -10.71402)
(147.06454 -6.4405961e-16 -10.297324)
(146.97303 6.1399726e-16 -9.8851212)
(146.89918 -6.6925955e-16 -9.4786846)
(146.84267 7.1805726e-16 -9.0792341)
(146.80311 -7.6105474e-16 -8.6880541)
(146.77999 5.8076191e-16 -8.3062542)
(146.77273 -1.3860941e-16 -7.9348506)
(146.78066 6.6054203e-17 -7.574777)
(146.80308 -1.2606847e-16 -7.2268228)
(146.83923 1.2043087e-16 -6.8916706)
(146.88831 -4.5953732e-16 -6.5698758)
(146.94953 9.8692709e-16 -6.2618666)
(147.02208 -3.5648032e-20 -5.9679533)
(147.10516 -4.9978825e-16 -5.6883228)
(147.19798 1.909223e-16 -5.4230505)
(147.29975 0 -5.1721012)
(147.40971 0 -4.9353397)
(147.5271 0 -4.7125498)
(147.65128 -6.3509833e-16 -4.5034141)
(147.7816 4.5519572e-16 -4.307532)
(147.91736 1.4491852e-16 -4.1244479)
(148.05785 -1.3853303e-16 -3.9536365)
(148.20242 1.3234442e-16 -3.7945196)
(148.35043 -7.5905684e-16 -3.6464825)
(148.50126 9.6743757e-16 -3.5088699)
(148.65429 -1.0404463e-15 -3.3809999)
(148.80893 9.9476913e-16 -3.2621579)
(148.96442 -2.1151022e-16 -3.1516191)
(149.11983 -6.0653957e-16 -3.0486032)
(149.27351 0 -2.9524107)
(149.42376 -1.8495958e-16 -2.8621492)
(149.56753 1.7700338e-16 -2.777404)
(149.70426 0 -2.696738)
(149.82889 0 -2.6211357)
(149.94932 -1.5524553e-16 -2.5450205)
(150.04127 -2.9736139e-16 -2.4815191)
(150.15715 -2.8478869e-16 -2.3874694)
(150.14565 6.8282444e-17 -2.3872061)
(150.32693 -6.5468734e-17 -2.1310881)
(149.96788 2.5137674e-16 -2.5199017)
(150.45045 -6.0115569e-17 -1.4348223)
(149.48021 2.2707418e-16 -3.4097726)
(149.71424 1.347127e-15 -26.6156)
(158.43423 -1.2241006e-15 -19.103255)
(154.4023 1.8378367e-17 -25.368856)
(156.38283 0 -20.177257)
(154.67724 1.6349263e-17 -23.847021)
(155.24995 1.0189817e-15 -20.894363)
(154.39424 -9.0703233e-16 -22.701106)
(154.42594 -5.539097e-17 -21.165309)
(153.8972 0 -21.883171)
(153.70634 -7.9610455e-16 -21.093134)
(153.30398 7.0353317e-17 -21.257503)
(153.0205 2.1921626e-17 -20.802054)
(152.66221 6.3653832e-16 -20.708838)
(152.34194 0 -20.377573)
(151.99681 6.1226213e-16 -20.166417)
(151.66301 -1.1261817e-15 -19.865054)
(151.32211 1.1043532e-15 -19.593812)
(150.98544 -4.917371e-16 -19.284474)
(150.6486 0 -18.974561)
(150.31551 2.9596308e-17 -18.643501)
(149.98595 -9.0162328e-16 -18.302327)
(149.66184 1.7143181e-15 -17.945378)
(149.34413 -1.6814726e-15 -17.575925)
(149.03427 8.7232151e-16 -17.192803)
(148.73352 -7.3815361e-16 -16.797296)
(148.44322 7.0194583e-16 -16.389654)
(148.16465 0 -15.970841)
(147.89907 -5.9645625e-16 -15.541667)
(147.64766 6.0551224e-16 -15.103211)
(147.41154 7.2165984e-17 -14.656609)
(147.19171 6.8718233e-17 -14.203138)
(146.98907 -5.8850903e-16 -13.744162)
(146.80438 9.3400405e-16 -13.281137)
(146.63826 1.5794044e-19 -12.815579)
(146.49116 -9.0405538e-16 -12.349057)
(146.36338 5.3840222e-16 -11.88316)
(146.25507 0 -11.419486)
(146.16621 3.9113103e-16 -10.959621)
(146.09661 -4.659769e-16 -10.505084)
(146.04595 0 -10.057395)
(146.01381 -6.7740307e-16 -9.6180224)
(145.99954 8.0854893e-17 -9.1881734)
(146.00247 5.385879e-16 -8.7690386)
(146.02183 0 -8.3617502)
(146.05674 1.3989477e-16 -7.9672328)
(146.10631 6.6755665e-16 -7.5863366)
(146.16959 -5.0934352e-16 -7.2197515)
(146.24563 1.2072008e-19 -6.8680336)
(146.33346 -4.6345657e-16 -6.5316119)
(146.43213 8.8437228e-16 -6.2107752)
(146.5407 -6.0632165e-20 -5.9056934)
(146.65827 -1.0063691e-16 -5.6164124)
(146.78397 -1.9202015e-16 -5.3428684)
(146.91695 1.8337231e-16 -5.0848922)
(147.05643 1.7500574e-16 -4.8422187)
(147.20164 6.6789243e-16 -4.6145067)
(147.35189 -6.377189e-16 -4.4013318)
(147.50658 0 -4.2021922)
(147.66503 0 -4.0165288)
(147.8266 1.3873104e-16 -3.843734)
(147.99067 5.2995134e-16 -3.6831474)
(148.15665 -2.5318434e-16 -3.5340816)
(148.32398 -4.8336026e-16 -3.3958159)
(148.49212 -2.3077866e-16 -3.2676059)
(148.66054 2.2055664e-16 -3.1486838)
(148.82861 4.213267e-16 -3.0382627)
(148.99547 8.0498669e-16 -2.9355279)
(149.15975 -3.8464057e-16 -2.8396807)
(149.31967 3.6744273e-16 -2.7498631)
(149.47268 -7.0245135e-16 -2.6653954)
(149.61714 -3.356306e-16 -2.5852607)
(149.75023 3.2093937e-16 -2.509159)
(149.87426 1.5338897e-16 -2.4348091)
(149.97827 1.4668844e-16 -2.3659547)
(150.08602 -2.806103e-16 -2.2833394)
(150.1066 1.3426188e-16 -2.2536075)
(150.24781 1.2848151e-16 -2.0508287)
(149.96372 -4.9234004e-16 -2.3370038)
(150.37296 2.942676e-16 -1.3906578)
(149.45291 0 -3.1774117)
(148.60981 2.1692656e-17 -28.507995)
(157.23153 -1.2065114e-15 -20.73042)
(153.12985 3.6824465e-17 -27.171208)
(155.1762 1.1200932e-15 -21.83323)
(153.39709 -1.0650379e-15 -25.543668)
(153.97803 1.0361381e-15 -22.538705)
(153.08677 -5.9541061e-17 -24.313949)
(153.10403 2.8152698e-17 -22.764598)
(152.55339 0 -23.427295)
(152.34193 8.1016297e-16 -22.625757)
(151.92173 -8.638114e-16 -22.734451)
(151.61806 0 -22.256722)
(151.24333 7.3458218e-16 -22.112146)
(150.90542 -6.5580775e-16 -21.747354)
(150.54555 6.2300646e-16 -21.487098)
(150.19738 -6.281481e-16 -21.143819)
(149.84451 4.9162027e-16 -20.82301)
(149.49734 -1.0673738e-15 -20.465932)
(149.1524 5.0696959e-16 -20.104429)
(148.81344 -4.8214953e-16 -19.721494)
(148.48064 5.1539508e-16 -19.326308)
(148.15605 -5.4528241e-17 -18.914524)
(147.84084 -5.1852173e-17 -18.488988)
(147.53662 -4.9192003e-17 -18.049113)
(147.24477 0 -17.596256)
(146.96675 4.4515019e-17 -17.131043)
(146.70391 6.7860642e-16 -16.654681)
(146.45754 -7.2603508e-16 -16.168318)
(146.2288 5.3763613e-16 -15.673331)
(146.01874 -1.4596477e-16 -15.17118)
(145.82826 -6.2606344e-16 -14.663447)
(145.65812 -1.4864373e-19 -14.151795)
(145.50887 -5.0464999e-16 -13.637956)
(145.38089 4.8039341e-16 -13.123702)
(145.27437 1.1451165e-16 -12.610824)
(145.18932 -1.0884148e-16 -12.101102)
(145.12556 0 -11.596288)
(145.08272 -3.9542088e-16 -11.098072)
(145.06028 4.7076784e-16 -10.60807)
(145.05757 -7.1782485e-16 -10.127773)
(145.07377 8.5510668e-16 -9.658674)
(145.10801 -1.6283471e-16 -9.2020168)
(145.15924 7.7638548e-16 -8.7588237)
(145.2264 -1.3323043e-15 -8.3301592)
(145.30835 -1.4113526e-16 -7.9168342)
(145.40396 4.0363186e-16 -7.5195352)
(145.51206 0 -7.1388056)
(145.63152 1.2245521e-16 -6.7750254)
(145.76121 0 -6.4284514)
(145.90006 -2.2244428e-16 -6.0991956)
(146.04704 0 -5.7872537)
(146.20116 -4.0444703e-16 -5.4925024)
(146.36151 1.9293959e-16 -5.2147159)
(146.52724 -3.6792736e-16 -4.953572)
(146.69752 -1.7542297e-16 -4.7086637)
(146.87163 0 -4.4795117)
(147.04888 0 -4.2655782)
(147.22869 0 -4.066256)
(147.41048 -5.8141296e-16 -3.8808837)
(147.59364 2.7762791e-16 -3.7087692)
(147.77761 1.4381418e-19 -3.5491755)
(147.96189 5.0531774e-16 -3.4013463)
(148.14598 0 -3.2645016)
(148.32941 6.9012077e-16 -3.1378428)
(148.51172 -6.587493e-16 -3.0205547)
(148.69239 -2.0942002e-16 -2.9118035)
(148.8707 -1.9987986e-16 -2.8107362)
(149.04545 7.6364156e-16 -2.716494)
(149.21496 -3.6451251e-16 -2.6282012)
(149.37691 -5.2178116e-16 -2.5450619)
(149.52924 1.9652997e-19 -2.4661493)
(149.6699 1.9096476e-19 -2.3907385)
(149.79871 1.5140151e-15 -2.3177631)
(149.91158 -5.7841684e-16 -2.2463911)
(150.01561 5.5231791e-16 -2.1713652)
(150.06059 0 -2.1195606)
(150.17098 5.0405645e-16 -1.9610056)
(149.94901 -4.8231476e-16 -2.156893)
(150.29513 0 -1.3384653)
(149.41532 2.1378274e-16 -2.9510857)
(147.31809 1.3851246e-15 -30.436194)
(155.93005 -2.5316416e-15 -22.393097)
(151.66882 -3.8577386e-17 -28.985796)
(153.77412 -7.1918228e-19 -23.515902)
(151.92502 1.0817667e-15 -27.240999)
(152.50646 -1.0221809e-15 -24.201643)
(151.58212 1.9670509e-15 -25.922536)
(151.57935 -9.1649223e-16 -24.369779)
(151.00743 0 -24.961952)
(150.77199 0 -24.150905)
(150.33354 9.7610965e-17 -24.19409)
(150.00792 -7.4081729e-16 -23.690895)
(149.61626 7.4633355e-16 -23.487631)
(149.26013 0 -23.083618)
(148.88564 0 -22.76754)
(148.52364 6.0111578e-16 -22.375635)
(148.15992 -4.9921615e-16 -21.998426)
(147.804 0 -21.586546)
(147.45332 5.1511554e-16 -21.166475)
(147.11153 -4.8913569e-16 -20.724598)
(146.77926 -5.8050891e-17 -20.268501)
(146.45864 5.5176748e-17 -19.795102)
(146.1511 5.245266e-17 -19.306986)
(145.85837 0 -18.804173)
(145.58196 0 -18.288203)
(145.32338 0 -17.76014)
(145.084 0 -17.221522)
(144.86506 0 -16.673886)
(144.66764 6.9957332e-16 -16.118974)
(144.49264 -5.1763827e-16 -15.558606)
(144.34075 0 -14.994706)
(144.21246 6.0266601e-16 -14.42925)
(144.10803 1.238446e-19 -13.864249)
(144.02752 9.7366131e-20 -13.30172)
(143.97075 -9.2363577e-16 -12.743646)
(143.93732 4.3975016e-16 -12.19196)
(143.92666 5.2351783e-16 -11.648516)
(143.93798 -3.9869086e-16 -11.115054)
(143.97038 -3.7967733e-16 -10.593193)
(144.02276 -3.6157885e-16 -10.084422)
(144.09394 -1.7202306e-16 -9.5900489)
(144.18273 6.5617896e-16 -9.1112732)
(144.28771 -1.5638479e-16 -8.649023)
(144.40756 -4.4669756e-16 -8.2041122)
(144.54088 1.4186741e-16 -7.7772042)
(144.68632 6.7599033e-16 -7.3687564)
(144.84254 -2.5776678e-16 -6.9791093)
(145.00824 2.4558707e-16 -6.6084241)
(145.18219 -2.3394626e-16 -6.2567428)
(145.36323 2.2293551e-16 -5.9239692)
(145.55026 0 -5.6098964)
(145.74228 -1.5173277e-19 -5.3142114)
(145.93836 -1.9311492e-16 -5.03651)
(146.13766 1.841032e-16 -4.7763059)
(146.33939 -3.5123734e-16 -4.533043)
(146.54286 0 -4.3061032)
(146.74743 -3.1924017e-16 -4.0948308)
(146.95258 3.0417069e-16 -3.8985126)
(147.15781 -1.1607679e-15 -3.7163966)
(147.36259 5.5361943e-16 -3.5477065)
(147.56644 5.2766023e-16 -3.3916378)
(147.76894 -2.5166115e-16 -3.2473724)
(147.96966 4.7981415e-16 -3.11408)
(148.16822 -9.1522879e-16 -2.9909174)
(148.36424 -4.3629288e-16 -2.8770316)
(148.55731 8.3234741e-16 -2.771554)
(148.7468 9.6415534e-20 -2.6736004)
(148.93174 3.7844413e-16 -2.582273)
(149.11055 3.6085495e-16 -2.4966709)
(149.28109 0 -2.4159326)
(149.44116 9.8417255e-16 -2.3391211)
(149.58879 -1.8776799e-15 -2.2654465)
(149.7229 9.546526e-20 -2.1939755)
(149.84244 8.5386634e-16 -2.1223712)
(149.94554 -1.3574764e-15 -2.0521308)
(150.00911 2.0529426e-19 -1.9850094)
(150.09567 2.4715323e-16 -1.8618641)
(149.92791 -4.7164433e-16 -1.979327)
(150.22007 1.1251149e-15 -1.2809109)
(149.37421 -2.0759997e-16 -2.7262026)
(145.82975 0 -32.396252)
(154.41303 -1.2873006e-15 -24.0778)
(150.01279 1.233711e-15 -30.803942)
(152.16746 3.6247907e-17 -25.221311)
(150.25134 1.1339315e-15 -28.932848)
(150.8238 -3.1679768e-17 -25.876768)
(149.86821 -9.8355962e-16 -27.519748)
(149.8388 8.7362748e-16 -25.972108)
(149.24556 -8.8237011e-16 -26.478191)
(148.98232 -8.8920989e-16 -25.657435)
(148.52477 -4.2212671e-19 -25.624901)
(148.17537 7.5178359e-16 -25.090953)
(147.76626 1.3071617e-19 -24.820833)
(147.39164 -6.7706892e-16 -24.370112)
(147.00305 6.4206317e-16 -23.990302)
(146.62841 7.6335184e-17 -23.541511)
(146.2558 6.5147795e-16 -23.099787)
(145.89388 -5.4940969e-16 -22.624698)
(145.54106 -5.2213863e-16 -22.13789)
(145.2009 4.3354564e-16 -21.628899)
(144.87446 -4.7114788e-16 -21.104041)
(144.56399 4.4736964e-16 -20.561452)
(144.27112 -4.2536713e-16 -20.003646)
(143.99768 3.028242e-16 -19.431297)
(143.74524 0 -18.846259)
(143.51529 7.3046146e-16 -18.250097)
(143.30912 -6.9412984e-16 -17.644765)
(143.12783 -6.6024846e-16 -17.032251)
(142.97228 -2.1684536e-19 -16.414708)
(142.84309 5.9685935e-16 -15.794348)
(142.74064 5.6782902e-16 -15.173444)
(142.66503 -5.3999511e-16 -14.554281)
(142.61609 1.2860513e-16 -13.939123)
(142.59343 -4.8880738e-16 -13.330185)
(142.59638 8.1400582e-16 -12.72959)
(142.62409 -4.4255794e-16 -12.139352)
(142.67547 -7.3718997e-16 -11.561343)
(142.7493 4.0089275e-16 -10.997269)
(142.84418 0 -10.448671)
(142.95863 -1.8179888e-16 -9.9168981)
(143.0911 -6.9166319e-16 -9.403047)
(143.23997 6.5869627e-16 -8.9081542)
(143.40357 7.8379569e-16 -8.4329476)
(143.58032 -7.4678348e-16 -7.9779368)
(143.76861 -2.8417395e-16 -7.5435593)
(143.9669 6.7760144e-16 -7.130001)
(144.17371 2.579168e-16 -6.7373413)
(144.38765 2.4595168e-16 -6.3654869)
(144.60742 2.34227e-16 -6.0142302)
(144.83183 -1.4787708e-19 -5.6832418)
(145.05978 -6.3788075e-16 -5.3720951)
(145.29027 6.0747279e-16 -5.0802745)
(145.52242 3.8576546e-16 -4.8071909)
(145.75542 -7.3565077e-16 -4.5521916)
(145.98857 3.503192e-16 -4.3145719)
(146.22124 -6.6768552e-16 -4.0935821)
(146.45288 1.590744e-15 -3.8884494)
(146.68303 -3.0336727e-16 -3.698365)
(146.91131 -2.8899179e-16 -3.5224983)
(147.13727 -2.7529905e-16 -3.3599956)
(147.36054 0 -3.2099969)
(147.58079 -7.5018112e-16 -3.0716335)
(147.79766 -4.763412e-16 -2.9440362)
(148.01087 1.3623953e-15 -2.8263287)
(148.22012 4.3262467e-16 -2.7176313)
(148.42509 -4.1224374e-16 -2.6170534)
(148.62529 -1.5711764e-15 -2.5236903)
(148.81989 -3.7406444e-16 -2.4366212)
(149.00752 3.5671671e-16 -2.3549263)
(149.18616 0 -2.2776963)
(149.3536 9.7077235e-16 -2.2039839)
(149.5077 -6.1673333e-16 -2.1330208)
(149.64717 8.8120222e-16 -2.0635977)
(149.77176 -8.3937233e-16 -1.9935699)
(149.87584 1.7065087e-19 -1.9262971)
(149.95317 5.0807787e-16 -1.8499838)
(150.02175 2.4195586e-16 -1.754408)
(149.90195 0 -1.8050945)
(150.1438 -2.1956888e-16 -1.2198695)
(149.33535 0 -2.5059137)
(144.13402 -1.4465612e-15 -34.387507)
(152.69086 -4.0870835e-17 -25.788162)
(148.14461 -3.9213346e-17 -32.628387)
(150.33849 -3.6755795e-17 -26.949111)
(148.35856 -3.4837627e-17 -30.616497)
(148.9116 -1.0557969e-15 -27.559658)
(147.92662 1.061369e-15 -29.099576)
(147.86372 5.9056454e-17 -27.562726)
(147.24899 9.5253027e-16 -27.966408)
(146.9543 -7.4262817e-16 -27.132624)
(146.47692 -1.0060188e-16 -27.013274)
(146.10241 8.1098419e-16 -26.440595)
(145.67583 -7.6827395e-16 -26.094126)
(145.28326 0 -25.587008)
(144.88204 0 -25.133986)
(144.49716 -6.9488981e-16 -24.618224)
(144.11901 4.3931921e-16 -24.102328)
(143.75551 0 -23.554127)
(143.40599 -5.9436904e-16 -22.991113)
(143.07395 1.002472e-15 -22.405712)
(142.76086 3.0036585e-19 -21.803342)
(142.46905 -7.9093806e-16 -21.183328)
(142.20032 4.2925823e-16 -20.54833)
(141.95647 -7.1412163e-16 -19.89973)
(141.73905 8.7178152e-16 -19.239833)
(141.5494 -9.2191131e-17 -18.570776)
(141.38859 0 -17.895006)
(141.25743 0 -17.215004)
(141.15641 4.7372812e-16 -16.533359)
(141.08571 1.2669487e-19 -15.852678)
(141.04522 1.4303495e-16 -15.175557)
(141.03449 -1.0856265e-15 -14.504543)
(141.05282 5.1644911e-16 -13.842088)
(141.09921 -4.9081505e-16 -13.190521)
(141.17244 5.8364489e-16 -12.552007)
(141.27107 -4.4398014e-16 -11.928531)
(141.39349 6.333622e-16 -11.321869)
(141.53794 0 -10.733579)
(141.70258 0 -10.165)
(141.88549 3.6383288e-16 -9.6172214)
(142.08477 -1.7326896e-16 -9.091103)
(142.29842 -8.2391778e-16 -8.587349)
(142.52462 -1.5675617e-16 -8.1063598)
(142.7615 1.0453783e-15 -7.6483429)
(143.00733 2.8437369e-16 -7.2134203)
(143.26044 -1.0828169e-15 -6.8014692)
(143.51929 0 -6.412261)
(143.78245 -7.3603645e-16 -6.0454206)
(144.04863 4.6750269e-16 -5.70047)
(144.31664 2.2264821e-16 -5.3768338)
(144.58545 4.2366181e-16 -5.0738597)
(144.85412 -8.0743443e-16 -4.7908295)
(145.12186 7.6879692e-16 -4.5269732)
(145.38794 -1.0988206e-15 -4.281479)
(145.65177 3.488454e-16 -4.0535038)
(145.91283 3.3222752e-16 -3.8421793)
(146.17066 0 -3.6466278)
(146.42493 0 -3.4659596)
(146.67534 5.739087e-16 -3.2992772)
(146.92159 5.4651294e-16 -3.1456675)
(147.16339 -5.2085175e-16 -3.0042271)
(147.4005 4.9553295e-16 -2.8740518)
(147.6327 -4.7210119e-16 -2.7542462)
(147.85975 4.4939353e-16 -2.6439145)
(148.08146 -1.2844028e-15 -2.5421633)
(148.29758 -8.1508664e-16 -2.4480925)
(148.50775 1.1643087e-15 -2.3607897)
(148.71132 3.6941088e-16 -2.2793267)
(148.90707 0 -2.2027735)
(149.0932 6.6942005e-16 -2.1301875)
(149.26745 -6.3737043e-16 -2.0606392)
(149.42754 0 -1.993343)
(149.57217 -5.7735412e-16 -1.9268126)
(149.70063 -5.4947427e-16 -1.8598069)
(149.80694 0 -1.7945911)
(149.89387 0 -1.7145265)
(149.94967 0 -1.639643)
(149.87319 -4.5098196e-16 -1.6352234)
(150.06982 0 -1.1560562)
(149.29719 -7.7481442e-16 -2.288013)
(142.21029 -4.594683e-17 -36.408875)
(150.73616 0 -27.520091)
(146.04391 -1.233997e-15 -34.451343)
(148.2652 1.2341364e-15 -28.693493)
(146.22543 0 -32.282903)
(146.74771 -1.0726406e-15 -29.240276)
(145.73526 9.5068692e-16 -30.651033)
(145.63197 0 -29.127673)
(144.99549 8.5278393e-16 -29.412302)
(144.66617 -9.145707e-16 -28.558891)
(144.1685 5.0901694e-17 -28.340731)
(143.76837 7.2516097e-16 -27.718521)
(143.32517 -9.1169808e-17 -27.284663)
(142.91648 -6.0730635e-16 -26.70912)
(142.50559 5.7634368e-16 -26.171603)
(142.11471 7.8714018e-17 -25.576832)
(141.73647 -5.1821402e-16 -24.975427)
(141.37816 0 -24.342676)
(141.03995 6.6519386e-17 -23.692719)
(140.72534 1.898334e-16 -23.020621)
(140.43609 -1.2024694e-16 -22.331308)
(140.17455 -2.278158e-16 -21.625301)
(139.94252 0 -20.905625)
(139.74168 1.0282307e-16 -20.174454)
(139.57336 -9.7271465e-17 -19.434657)
(139.43859 9.2364705e-17 -18.689007)
(139.33801 0 -17.940493)
(139.27192 -1.6716815e-16 -17.192099)
(139.24024 -4.7583899e-16 -16.446831)
(139.24253 4.5150162e-16 -15.707636)
(139.27799 -1.4287779e-16 -14.977365)
(139.3455 0 -14.25872)
(139.44363 3.8777207e-16 -13.554225)
(139.57072 -6.1424275e-16 -12.866184)
(139.72486 1.1716166e-16 -12.196664)
(139.90399 -2.2223964e-16 -11.547468)