/*--------------------------------*- C++ -*----------------------------------*\
| =========                 |                                                 |
| \\      /  F ield         | OpenFOAM: The Open Source CFD Toolbox           |
|  \\    /   O peration     | Version:  5.0                                   |
|   \\  /    A nd           | Web:      www.OpenFOAM.org                      |
|    \\/     M anipulation  |                                                 |
\*---------------------------------------------------------------------------*/
FoamFile
{
    version     2.0;
    format      ascii;
    class       volVectorField;
    location    "10000";
    object      U;
}
// * * * * * * * * * * * * * * * * * * * * * * * * * * * * * * * * * * * * * //

dimensions      [0 1 -1 0 0 0 0];

internalField   nonuniform List<vector> 
12225
(
(-0.0318981 -0.000321382 0)
(0.00501601 -0.0328937 0)
(0.0287838 -0.0163976 0)
(0.0121889 -0.00506726 0)
(0.00983814 -0.000574802 0)
(-0.00655356 0.00137523 0)
(-0.0392723 0.00409418 0)
(-0.0728216 0.00453825 0)
(-0.0894118 0.00263509 0)
(-0.0853725 0.00013074 0)
(-0.0660673 -0.00201526 0)
(-0.0371843 -0.00380203 0)
(-0.00472764 -0.0046952 0)
(0.0261696 -0.0033913 0)
(0.0507798 -0.0015467 0)
(0.0653791 0.000212311 0)
(0.0701248 0.00141959 0)
(0.068554 0.000320599 0)
(-0.0377287 0.0206798 0)
(-0.00335963 -0.0249663 0)
(0.0591837 0.0146927 0)
(0.0241693 0.00288654 0)
(-0.0112237 0.00820263 0)
(-0.0697324 0.013213 0)
(-0.117591 0.0144425 0)
(-0.141942 0.00903911 0)
(-0.141912 0.00103884 0)
(-0.126886 -0.00626978 0)
(-0.100766 -0.0123325 0)
(-0.0657496 -0.0171229 0)
(-0.026935 -0.0194675 0)
(0.0109012 -0.0170945 0)
(0.0429361 -0.0118376 0)
(0.0656299 -0.00636426 0)
(0.078638 -0.00230055 0)
(0.0843323 -0.00133036 0)
(-0.0355254 0.0174836 0)
(-0.00270567 -0.0555129 0)
(0.0470041 0.0157866 0)
(-0.0155533 0.0115448 0)
(-0.0634603 0.022087 0)
(-0.127502 0.0268013 0)
(-0.161436 0.0222496 0)
(-0.171191 0.0108094 0)
(-0.166922 -0.00147273 0)
(-0.152198 -0.0125859 0)
(-0.126446 -0.0223014 0)
(-0.0924424 -0.0298821 0)
(-0.0539917 -0.0335753 0)
(-0.0155918 -0.0309643 0)
(0.0182516 -0.022461 0)
(0.0430168 -0.0129374 0)
(0.0575203 -0.00611561 0)
(0.0637867 -0.003905 0)
(-0.0391663 0.0182794 0)
(-0.00649281 -0.0783433 0)
(0.0131513 0.0113951 0)
(-0.0584117 0.0256061 0)
(-0.114995 0.0390852 0)
(-0.165906 0.0387603 0)
(-0.18636 0.027369 0)
(-0.192754 0.0113932 0)
(-0.189194 -0.00446541 0)
(-0.175028 -0.0194642 0)
(-0.150994 -0.0329134 0)
(-0.118768 -0.0434671 0)
(-0.0813486 -0.0487441 0)
(-0.0427516 -0.0460627 0)
(-0.0077825 -0.0352411 0)
(0.0189517 -0.0207659 0)
(0.0343413 -0.0101933 0)
(0.0394355 -0.00578278 0)
(-0.0491732 0.00874685 0)
(-0.0153098 -0.0922058 0)
(-0.0208268 0.0279592 0)
(-0.0994619 0.0445386 0)
(-0.153002 0.0550943 0)
(-0.190031 0.0478907 0)
(-0.204716 0.03119 0)
(-0.210685 0.0118872 0)
(-0.207037 -0.00746692 0)
(-0.19432 -0.0262405 0)
(-0.172925 -0.0434379 0)
(-0.143673 -0.0572983 0)
(-0.108434 -0.0647819 0)
(-0.0702806 -0.062586 0)
(-0.0337386 -0.0497096 0)
(-0.00419227 -0.030246 0)
(0.0135722 -0.0139074 0)
(0.0177462 -0.00672841 0)
(-0.0394671 0.0685219 0)
(-0.0284159 -0.102447 0)
(-0.0592094 0.04425 0)
(-0.13561 0.0648709 0)
(-0.178893 0.0686794 0)
(-0.205912 0.055048 0)
(-0.21785 0.0345045 0)
(-0.222209 0.0121728 0)
(-0.218498 -0.0104035 0)
(-0.207892 -0.0325386 0)
(-0.19016 -0.0533072 0)
(-0.165254 -0.0706718 0)
(-0.133787 -0.0810803 0)
(-0.0974928 -0.0804636 0)
(-0.0598625 -0.0666508 0)
(-0.0262707 -0.0425699 0)
(-0.00342354 -0.0183945 0)
(0.00160178 -0.00692844 0)
(0.00778415 0.167927 0)
(-0.0386685 -0.0862296 0)
(-0.0974656 0.0618558 0)
(-0.163246 0.0836082 0)
(-0.195164 0.0795966 0)
(-0.214932 0.0608383 0)
(-0.223462 0.0371334 0)
(-0.225444 0.0121101 0)
(-0.221994 -0.0130094 0)
(-0.213964 -0.0378821 0)
(-0.200714 -0.0618166 0)
(-0.181387 -0.0827314 0)
(-0.155368 -0.0967387 0)
(-0.122879 -0.099014 0)
(-0.0858771 -0.0861188 0)
(-0.0486798 -0.0591687 0)
(-0.0184646 -0.0272977 0)
(-0.00520052 -0.00697026 0)
(0.0672792 0.0608638 0)
(-0.0567795 -0.0292745 0)
(-0.127139 0.0785694 0)
(-0.180555 0.0991219 0)
(-0.202831 0.0879709 0)
(-0.215999 0.0650948 0)
(-0.220128 0.0386657 0)
(-0.219845 0.0116799 0)
(-0.216859 -0.0150804 0)
(-0.211613 -0.0418464 0)
(-0.203226 -0.0683029 0)
(-0.190244 -0.0925519 0)
(-0.171023 -0.11061 0)
(-0.144324 -0.117108 0)
(-0.110352 -0.107253 0)
(-0.0718335 -0.0802465 0)
(-0.0351103 -0.0430724 0)
(-0.0109945 -0.012495 0)
(0.0526251 0.0485814 0)
(-0.0703999 0.0101582 0)
(-0.145934 0.0964759 0)
(-0.187362 0.111318 0)
(-0.201876 0.0937991 0)
(-0.208384 0.0674003 0)
(-0.208189 0.0389157 0)
(-0.206179 0.0109423 0)
(-0.203746 -0.0164669 0)
(-0.201128 -0.0441608 0)
(-0.19737 -0.072275 0)
(-0.19078 -0.0993133 0)
(-0.179035 -0.121541 0)
(-0.15965 -0.133245 0)
(-0.131139 -0.128557 0)
(-0.0944043 -0.104553 0)
(-0.0543622 -0.0654312 0)
(-0.0210818 -0.0255571 0)
(0.0218568 0.0639482 0)
(-0.088405 0.0478471 0)
(-0.154351 0.11584 0)
(-0.184893 0.120447 0)
(-0.192518 0.0969696 0)
(-0.192957 0.0675724 0)
(-0.18957 0.037986 0)
(-0.186555 0.0100216 0)
(-0.184683 -0.0171299 0)
(-0.184124 -0.0447941 0)
(-0.184091 -0.0735551 0)
(-0.183079 -0.102528 0)
(-0.178547 -0.128499 0)
(-0.167182 -0.145905 0)
(-0.146005 -0.148012 0)
(-0.114114 -0.129942 0)
(-0.0746123 -0.0927199 0)
(-0.0359543 -0.046877 0)
(0.000913997 0.081992 0)
(-0.099305 0.0834327 0)
(-0.153435 0.133752 0)
(-0.174393 0.126528 0)
(-0.176028 0.0975942 0)
(-0.172141 0.0659794 0)
(-0.167254 0.0363065 0)
(-0.164022 0.00907103 0)
(-0.162635 -0.0172196 0)
(-0.163271 -0.0441025 0)
(-0.165524 -0.0725345 0)
(-0.168459 -0.102286 0)
(-0.169884 -0.131087 0)
(-0.166171 -0.153931 0)
(-0.153268 -0.163752 0)
(-0.128587 -0.15394 0)
(-0.093216 -0.122289 0)
(-0.0533755 -0.0749136 0)
(-0.0113584 0.102491 0)
(-0.103453 0.11405 0)
(-0.145912 0.148191 0)
(-0.159257 0.129851 0)
(-0.156592 0.0964119 0)
(-0.150812 0.0635487 0)
(-0.146136 0.0344518 0)
(-0.143408 0.00814392 0)
(-0.142377 -0.0171666 0)
(-0.143315 -0.0429731 0)
(-0.14622 -0.0703822 0)
(-0.150891 -0.0997993 0)
(-0.155904 -0.129997 0)
(-0.157946 -0.157011 0)
(-0.152443 -0.173961 0)
(-0.135544 -0.173017 0)
(-0.106485 -0.149184 0)
(-0.0691304 -0.10441 0)
(-0.0189824 0.12361 0)
(-0.101715 0.140462 0)
(-0.133611 0.158965 0)
(-0.140921 0.130776 0)
(-0.135763 0.093929 0)
(-0.130306 0.0608959 0)
(-0.126982 0.032804 0)
(-0.125079 0.00737557 0)
(-0.124326 -0.0171238 0)
(-0.125082 -0.0418831 0)
(-0.127576 -0.0679807 0)
(-0.132212 -0.0962195 0)
(-0.138555 -0.126472 0)
(-0.144165 -0.1562 0)
(-0.144558 -0.179329 0)
(-0.13506 -0.187362 0)
(-0.113379 -0.172952 0)
(-0.0812507 -0.134297 0)
(-0.0237508 0.151597 0)
(-0.0941492 0.166899 0)
(-0.115346 0.168135 0)
(-0.117982 0.130251 0)
(-0.112614 0.0910102 0)
(-0.109193 0.0586675 0)
(-0.107484 0.0315921 0)
(-0.10626 0.00674872 0)
(-0.105735 -0.0171176 0)
(-0.106251 -0.0409378 0)
(-0.10792 -0.065584 0)
(-0.111409 -0.0919598 0)
(-0.117284 -0.120922 0)
(-0.124524 -0.151849 0)
(-0.129452 -0.180382 0)
(-0.126987 -0.197994 0)
(-0.113528 -0.195159 0)
(-0.0888742 -0.166336 0)
(-0.0245798 0.183647 0)
(-0.0807627 0.191433 0)
(-0.0924023 0.175164 0)
(-0.0926242 0.12887 0)
(-0.0890365 0.0886445 0)
(-0.0878947 0.057277 0)
(-0.0870731 0.030676 0)
(-0.0861663 0.00607527 0)
(-0.0859228 -0.0173282 0)
(-0.0865573 -0.0404853 0)
(-0.0876812 -0.0640131 0)
(-0.089629 -0.0883729 0)
(-0.0935047 -0.114711 0)
(-0.099946 -0.144413 0)
(-0.106947 -0.176065 0)
(-0.109778 -0.202419 0)
(-0.104025 -0.212301 0)
(-0.0880963 -0.196638 0)
(-0.0218838 0.216603 0)
(-0.0633283 0.21268 0)
(-0.0674183 0.180161 0)
(-0.067227 0.127577 0)
(-0.0657052 0.0873052 0)
(-0.0654746 0.0563614 0)
(-0.064306 0.0296593 0)
(-0.0632039 0.00535844 0)
(-0.0632665 -0.0173518 0)
(-0.0644965 -0.0399576 0)
(-0.0658655 -0.0631686 0)
(-0.0669622 -0.0865604 0)
(-0.0686383 -0.11027 0)
(-0.0725884 -0.136575 0)
(-0.0788105 -0.167831 0)
(-0.0838696 -0.200176 0)
(-0.083406 -0.221893 0)
(-0.0755514 -0.220585 0)
(-0.016987 0.246847 0)
(-0.0445166 0.229223 0)
(-0.0430435 0.183335 0)
(-0.043087 0.126697 0)
(-0.0422521 0.0863765 0)
(-0.0412735 0.0548766 0)
(-0.0390501 0.0277218 0)
(-0.0374138 0.00427638 0)
(-0.0373754 -0.01647 0)
(-0.0389855 -0.0379547 0)
(-0.0407059 -0.0613506 0)
(-0.04162 -0.0855106 0)
(-0.0420671 -0.10853 0)
(-0.0436915 -0.131316 0)
(-0.0473932 -0.159072 0)
(-0.0513435 -0.193381 0)
(-0.0523298 -0.224002 0)
(-0.049873 -0.235052 0)
(-0.0113225 0.271046 0)
(-0.0265286 0.239398 0)
(-0.0206508 0.184133 0)
(-0.0203557 0.125187 0)
(-0.0189181 0.0842754 0)
(-0.0172965 0.0516546 0)
(-0.0149631 0.024516 0)
(-0.0120512 0.00318728 0)
(-0.0103397 -0.0145344 0)
(-0.0111751 -0.0346806 0)
(-0.0118503 -0.0580588 0)
(-0.0116759 -0.0836898 0)
(-0.0112575 -0.108044 0)
(-0.0118271 -0.129495 0)
(-0.0132143 -0.153662 0)
(-0.0140262 -0.186878 0)
(-0.0129193 -0.222082 0)
(-0.0124591 -0.240036 0)
(-0.0061813 0.285334 0)
(-0.0108147 0.240227 0)
(0.000852765 0.181167 0)
(0.00282762 0.12168 0)
(0.00607176 0.0810237 0)
(0.0087738 0.0488409 0)
(0.0110056 0.0226083 0)
(0.0144839 0.00226828 0)
(0.0168154 -0.0159675 0)
(0.018421 -0.0358087 0)
(0.0208411 -0.0590575 0)
(0.0239238 -0.0848014 0)
(0.0260584 -0.109178 0)
(0.0264435 -0.13055 0)
(0.0271883 -0.154705 0)
(0.0302207 -0.187673 0)
(0.0343291 -0.222088 0)
(0.0338386 -0.237593 0)
(-0.00216375 0.290791 0)
(0.00229811 0.227789 0)
(0.0203563 0.1738 0)
(0.0260283 0.117289 0)
(0.0306754 0.0763291 0)
(0.0346934 0.0451287 0)
(0.0381282 0.0198188 0)
(0.0416526 -0.00166635 0)
(0.0449975 -0.0221693 0)
(0.0493172 -0.043784 0)
(0.0548557 -0.0677648 0)
(0.0600626 -0.0923013 0)
(0.0628334 -0.114107 0)
(0.0642148 -0.134978 0)
(0.0682183 -0.162442 0)
(0.0752725 -0.19742 0)
(0.0799825 -0.225649 0)
(0.0748169 -0.227524 0)
(0.00101435 0.290261 0)
(0.0132166 0.205292 0)
(0.0375591 0.160863 0)
(0.0495405 0.110255 0)
(0.0564642 0.0703735 0)
(0.0614927 0.0392793 0)
(0.0662076 0.0136324 0)
(0.0711397 -0.00894781 0)
(0.0763769 -0.0305153 0)
(0.0825073 -0.0530593 0)
(0.0888007 -0.0766035 0)
(0.0928017 -0.0983774 0)
(0.094228 -0.118046 0)
(0.0976796 -0.141999 0)
(0.106246 -0.17492 0)
(0.114314 -0.207197 0)
(0.11221 -0.219476 0)
(0.0943364 -0.198755 0)
(0.00320987 0.283183 0)
(0.0227027 0.180535 0)
(0.0538862 0.141664 0)
(0.0749528 0.0992621 0)
(0.0864051 0.063535 0)
(0.0933704 0.0334025 0)
(0.0994401 0.00752599 0)
(0.105337 -0.0154911 0)
(0.111149 -0.0377687 0)
(0.11687 -0.0604341 0)
(0.120552 -0.0817377 0)
(0.121253 -0.100695 0)
(0.123705 -0.122664 0)
(0.133099 -0.153903 0)
(0.14414 -0.187596 0)
(0.144007 -0.204896 0)
(0.124371 -0.190809 0)
(0.0875231 -0.145448 0)
(0.00306444 0.27156 0)
(0.0292525 0.156211 0)
(0.0680928 0.116877 0)
(0.0987983 0.0837621 0)
(0.115928 0.054418 0)
(0.126039 0.0269569 0)
(0.133616 0.00219745 0)
(0.139406 -0.0204249 0)
(0.143848 -0.0425801 0)
(0.145931 -0.0634787 0)
(0.145022 -0.082079 0)
(0.146356 -0.103162 0)
(0.156787 -0.133715 0)
(0.170921 -0.168285 0)
(0.172307 -0.188117 0)
(0.149665 -0.177412 0)
(0.104886 -0.135147 0)
(0.0518327 -0.0749826 0)
(0.000660788 0.259574 0)
(0.0330866 0.131328 0)
(0.0801473 0.0891531 0)
(0.117773 0.0653588 0)
(0.139156 0.0422032 0)
(0.15232 0.0184006 0)
(0.160962 -0.00350143 0)
(0.165667 -0.0240355 0)
(0.166508 -0.0438402 0)
(0.164126 -0.0621658 0)
(0.16524 -0.0832224 0)
(0.177923 -0.113949 0)
(0.195655 -0.149225 0)
(0.197953 -0.170183 0)
(0.170527 -0.160914 0)
(0.116711 -0.120728 0)
(0.053198 -0.0634984 0)
(0.00321802 -0.0107484 0)
(-0.00231631 0.249896 0)
(0.037061 0.103001 0)
(0.0921668 0.0627195 0)
(0.131371 0.0486362 0)
(0.153667 0.0306696 0)
(0.168593 0.0105637 0)
(0.177443 -0.00768257 0)
(0.179821 -0.0248388 0)
(0.177924 -0.0422479 0)
(0.181096 -0.0638448 0)
(0.198294 -0.0951989 0)
(0.21989 -0.130472 0)
(0.221735 -0.15122 0)
(0.187186 -0.142125 0)
(0.122245 -0.103413 0)
(0.0491646 -0.0499938 0)
(-0.00589838 -0.00314739 0)
(-0.0197225 0.012482 0)
(-0.00303073 0.24264 0)
(0.0491185 0.0755801 0)
(0.109338 0.0405077 0)
(0.143345 0.031683 0)
(0.16225 0.0197587 0)
(0.176612 0.00747953 0)
(0.185041 -0.00586403 0)
(0.188595 -0.0230197 0)
(0.19785 -0.0464915 0)
(0.221728 -0.0784423 0)
(0.245875 -0.111987 0)
(0.243639 -0.130719 0)
(0.199118 -0.121161 0)
(0.120884 -0.08403 0)
(0.0397176 -0.0355495 0)
(-0.0157501 0.0032629 0)
(-0.0233147 0.0106883 0)
(-0.0226118 0.0120078 0)
(-0.000119369 0.225981 0)
(0.090543 0.0506136 0)
(0.147123 0.0372526 0)
(0.167982 0.0171581 0)
(0.182738 -0.00188976 0)
(0.196639 -0.0112337 0)
(0.208419 -0.0198105 0)
(0.225837 -0.0375074 0)
(0.254171 -0.0650961 0)
(0.275483 -0.0930168 0)
(0.261825 -0.107382 0)
(0.203099 -0.0973526 0)
(0.111271 -0.0632204 0)
(0.0237429 -0.0209463 0)
(-0.0232851 0.00692982 0)
(-0.0259742 0.00895514 0)
(-0.0222505 0.00755952 0)
(-0.0178816 0.00693461 0)
(0.0112346 0.209812 0)
(0.176875 -0.009805 0)
(0.221324 0.0392343 0)
(0.223278 0.035538 0)
(0.237717 0.0127531 0)
(0.260946 -0.0034699 0)
(0.281176 -0.0201263 0)
(0.301076 -0.0446927 0)
(0.304987 -0.0691057 0)
(0.270225 -0.079864 0)
(0.191725 -0.0698361 0)
(0.0903727 -0.0417519 0)
(0.000733455 -0.00676688 0)
(-0.0269827 0.00676413 0)
(-0.027405 0.00731801 0)
(-0.0205956 0.00412981 0)
(-0.016501 0.00356475 0)
(-0.0124841 0.00352268 0)
(0.0399173 0.133595 0)
(0.296615 -0.105646 0)
(0.338817 -0.0458041 0)
(0.321065 -0.0164234 0)
(0.328363 -0.0177546 0)
(0.338 -0.0221579 0)
(0.338556 -0.0310614 0)
(0.312789 -0.0435801 0)
(0.246591 -0.0497402 0)
(0.1505 -0.0409848 0)
(0.0522775 -0.0192149 0)
(-0.0238014 0.00346967 0)
(-0.0262661 0.00480887 0)
(-0.0257488 0.00406243 0)
(-0.0183821 0.00228522 0)
(-0.0139357 0.00118287 0)
(-0.0111967 0.00137496 0)
(-0.00826596 0.0014021 0)
(0.133124 0.322892 0)
(0.345279 0.0150723 0)
(0.360946 -0.00598852 0)
(0.319178 -0.00111302 0)
(0.292983 -0.00201661 0)
(0.271639 -0.00574533 0)
(0.224232 -0.0109859 0)
(0.147057 -0.0152342 0)
(0.0533925 -0.0112611 0)
(-0.0143945 0.000857798 0)
(-0.0229063 0.00423514 0)
(-0.0255856 0.00220563 0)
(-0.0160489 0.000716248 0)
(-0.0128739 0.000368323 0)
(-0.00848834 0.000125294 0)
(-0.00672165 5.18487e-05 0)
(-0.00535898 0.000156553 0)
(-0.00381147 0.000183138 0)
(-8.56318e-05 0.000124521 6.1032e-22)
(-6.85895e-05 0.000219131 0)
(-7.46795e-05 0.000359262 0)
(-7.85852e-05 0.000452974 0)
(-0.000115728 0.000491916 0)
(-0.000212752 0.000464077 0)
(-0.000379078 0.00036036 0)
(-0.000598236 0.000207592 0)
(-0.000861365 5.29097e-05 0)
(-0.00122763 -6.89172e-05 7.1883e-22)
(-0.00179343 -0.000103465 0)
(-0.0026843 -2.38172e-05 0)
(-0.00403897 0.000260824 0)
(-0.00585603 0.00078902 0)
(-0.00806017 0.00146756 0)
(-0.0105802 0.00205876 0)
(-0.0132625 0.00249299 0)
(-0.015949 0.00258681 0)
(-0.0185148 0.0024399 1.75628e-22)
(-0.0207803 0.00210983 0)
(-0.022638 0.00174881 0)
(-0.0240738 0.00107186 -6.57068e-23)
(-0.0250146 0.000255562 0)
(-0.0253816 -0.000307595 0)
(-0.0252689 -0.000810065 0)
(-0.024631 -0.00144287 5.41031e-23)
(-0.0236236 -0.00180203 0)
(-0.0222657 -0.00219758 0)
(-0.0205736 -0.00266789 0)
(-0.0187547 -0.00257074 0)
(-0.0168661 -0.00235806 0)
(-0.0149111 -0.00220621 1.30604e-22)
(-0.0128952 -0.00209108 0)
(-0.0107995 -0.00199059 -1.25917e-22)
(-0.00861337 -0.00192139 0)
(-0.00635579 -0.00183086 0)
(-0.00403732 -0.00169973 0)
(-0.00167265 -0.00159338 0)
(0.000662808 -0.00142268 0)
(0.00293111 -0.0012754 0)
(0.00508528 -0.00115969 0)
(0.00715587 -0.00113627 0)
(0.00909704 -0.000994018 0)
(0.0109112 -0.000787457 0)
(0.0125303 -0.000566253 0)
(0.013904 -0.000531641 0)
(0.0150806 -0.000561538 0)
(0.0160532 -0.000532836 -7.74091e-24)
(0.0167965 -0.000492734 0)
(0.0173015 -0.000472828 -3.71584e-23)
(0.0175829 -0.000483398 -5.00353e-23)
(0.0176144 -0.000454323 6.08963e-23)
(0.0173701 -0.000351609 7.04713e-23)
(0.0167656 -2.65743e-05 -7.70899e-23)
(0.0159412 -0.000168367 8.21611e-23)
(0.0148317 -0.000688887 9.0133e-23)
(0.0135887 -0.000837127 0)
(0.0120351 -0.000487477 0)
(0.0103103 0.000396693 9.95117e-23)
(0.00844376 0.000738499 0)
(0.00656401 0.000706885 0)
(0.00469 0.000551441 0)
(0.00309557 0.000482988 0)
(0.00181798 0.000240024 0)
(0.000818497 8.14297e-05 0)
(9.83234e-05 1.11081e-05 7.56001e-23)
(-0.000369268 -5.16995e-06 0)
(-0.000661451 -2.41618e-05 0)
(-0.000832016 -3.45855e-05 0)
(-0.000922402 -3.98012e-05 0)
(-0.000963941 -4.25366e-05 0)
(-0.000970643 -4.4892e-05 0)
(-0.000949786 -4.88808e-05 -1.22477e-23)
(-0.000904771 -5.48921e-05 0)
(-0.000835898 -6.26618e-05 0)
(-0.000744869 -7.1266e-05 -2.60853e-24)
(-0.000635803 -7.74165e-05 -7.61984e-24)
(-0.000515836 -7.88701e-05 0)
(-0.000395006 -7.41847e-05 0)
(-0.000285703 -6.31658e-05 0)
(-0.000198684 -4.8097e-05 0)
(-0.000138496 -3.31481e-05 0)
(-0.000101582 -2.06719e-05 0)
(-8.14474e-05 -1.06284e-05 0)
(-6.94261e-05 -2.34128e-06 -2.49115e-23)
(-5.67472e-05 3.18599e-06 2.45844e-23)
(-5.03148e-05 9.29539e-06 0)
(-4.88224e-05 1.69768e-05 3.32031e-23)
(-6.0607e-05 2.60367e-05 0)
(-0.000102082 4.26394e-05 1.14984e-23)
(-0.000148057 5.11829e-05 0)
(-0.000211343 5.68401e-05 0)
(-0.000286206 5.56514e-05 1.19473e-23)
(-0.000357042 4.14329e-05 0)
(-0.000417911 4.72417e-05 -1.77241e-23)
(-0.000467798 5.12661e-05 0)
(-0.000513718 4.36435e-05 -1.4696e-23)
(-0.00054962 3.52415e-05 0)
(-0.000574988 2.62359e-05 0)
(-0.000590534 1.59746e-05 0)
(-0.000594431 4.97943e-06 8.55309e-24)
(-0.000589198 -3.06538e-06 0)
(-0.000576913 -7.93498e-06 -5.56536e-24)
(-0.000561045 -1.16241e-05 4.38861e-24)
(-0.000542088 -1.55164e-05 0)
(-0.00052116 -1.71414e-05 0)
(-0.000500616 -1.70923e-05 0)
(-0.000479074 -1.71916e-05 1.24871e-24)
(-0.000457393 -1.9563e-05 0)
(-0.00043202 -2.21336e-05 0)
(-0.000406508 -2.20391e-05 0)
(-0.000380099 -2.34669e-05 0)
(-0.000352861 -2.31676e-05 -3.85486e-25)
(-0.000327088 -2.10531e-05 6.28703e-25)
(-0.000301939 -2.04609e-05 -8.20962e-25)
(-0.000276698 -2.01509e-05 9.75765e-25)
(-0.000251767 -1.93432e-05 1.06981e-24)
(-0.000228432 -1.7918e-05 0)
(-0.000206777 -1.64638e-05 0)
(-0.000186464 -1.48885e-05 -9.86327e-25)
(-0.000167888 -1.33581e-05 0)
(-0.000150931 -1.20739e-05 0)
(-0.000135286 -1.09211e-05 0)
(-0.000120966 -9.70534e-06 0)
(-0.000108241 -8.3162e-06 0)
(-9.72813e-05 -7.17453e-06 0)
(-8.78976e-05 -5.8745e-06 6.18858e-25)
(-8.05537e-05 -4.62657e-06 -5.75565e-25)
(-7.43523e-05 -3.71534e-06 0)
(-6.93792e-05 -3.06822e-06 0)
(-6.54078e-05 -2.25849e-06 0)
(-6.15212e-05 -1.55972e-06 0)
(-5.78006e-05 -1.8544e-06 0)
(-5.39747e-05 -2.05696e-06 0)
(-5.00319e-05 -2.17639e-06 0)
(-4.59973e-05 -2.24491e-06 0)
(-4.18855e-05 -2.27293e-06 0)
(-3.76929e-05 -2.27072e-06 1.2694e-24)
(-3.34135e-05 -2.24029e-06 0)
(-2.90316e-05 -2.18789e-06 0)
(-2.45331e-05 -2.1033e-06 0)
(-1.99352e-05 -1.97938e-06 0)
(-1.53066e-05 -1.77712e-06 0)
(-1.07993e-05 -1.47449e-06 0)
(-6.74176e-06 -1.08055e-06 0)
(-3.32982e-06 -6.18443e-07 1.76832e-24)
(-8.14039e-07 -2.2428e-07 1.73168e-24)
(6.28015e-07 -3.82972e-08 0)
(1.35116e-06 3.72765e-08 0)
(1.60966e-06 9.89985e-08 1.08914e-24)
(1.73455e-06 1.17494e-07 -1.05424e-24)
(1.98163e-06 2.43446e-08 9.16596e-25)
(2.44999e-06 -6.9136e-08 -7.01572e-25)
(2.93891e-06 -8.77798e-08 -5.14708e-25)
(3.29432e-06 -5.22376e-08 0)
(3.54015e-06 -1.71302e-08 0)
(3.55403e-06 9.19561e-08 0)
(3.19496e-06 2.04256e-07 1.86687e-25)
(2.5076e-06 1.96289e-07 0)
(1.93115e-06 1.14689e-07 0)
(1.60893e-06 4.57727e-08 0)
(1.49835e-06 1.20879e-08 0)
(1.48857e-06 -1.76176e-09 -1.32761e-25)
(1.51364e-06 -1.04182e-08 0)
(1.54731e-06 -1.78097e-08 -6.07114e-26)
(1.57024e-06 -2.24394e-08 1.23665e-26)
(1.57166e-06 -2.20722e-08 0)
(1.56728e-06 -9.18243e-09 0)
(1.52482e-06 9.80379e-09 0)
(1.45237e-06 2.89668e-08 0)
(1.35021e-06 4.33624e-08 0)
(1.22508e-06 5.09362e-08 0)
(1.09513e-06 5.3758e-08 2.56465e-25)
(9.62256e-07 5.28948e-08 2.63219e-25)
(8.34173e-07 5.03675e-08 0)
(7.11102e-07 4.5908e-08 0)
(5.99569e-07 4.31163e-08 0)
(4.91547e-07 3.92866e-08 0)
(3.92059e-07 3.51448e-08 0)
(2.88834e-07 3.30944e-08 0)
(-7.55271e-05 0.000300592 6.43866e-22)
(-5.46981e-05 -3.61109e-05 0)
(-0.00010372 0.000199835 -1.51447e-21)
(-0.000207653 0.000352287 0)
(-0.000447829 0.000503113 0)
(-0.000875644 0.000683932 0)
(-0.00152655 0.000875951 0)
(-0.00241468 0.00112156 0)
(-0.00358906 0.00152519 -1.12495e-21)
(-0.00515771 0.0022103 4.82457e-22)
(-0.00724534 0.00323702 -8.05053e-22)
(-0.00990905 0.00453742 6.7056e-22)
(-0.0130259 0.00591678 0)
(-0.0163852 0.00714231 0)
(-0.0197078 0.00801493 0)
(-0.0228218 0.00840142 0)
(-0.0255056 0.00826082 0)
(-0.0277017 0.00764548 0)
(-0.0292884 0.00664283 -1.16295e-22)
(-0.0302269 0.00541264 0)
(-0.0305627 0.00405811 0)
(-0.030407 0.00265815 -8.6309e-23)
(-0.0298051 0.00127307 0)
(-0.0288453 -3.03966e-05 0)
(-0.0276106 -0.00121237 0)
(-0.026174 -0.00224041 3.33348e-23)
(-0.0244763 -0.0030861 0)
(-0.022561 -0.00374223 0)
(-0.0204263 -0.00421013 0)
(-0.0181211 -0.0045186 -4.05136e-22)
(-0.0155873 -0.00471745 0)
(-0.012949 -0.00486323 -2.71137e-22)
(-0.0102647 -0.00497776 0)
(-0.00743717 -0.00506551 -2.81585e-22)
(-0.00455882 -0.00512507 0)
(-0.00188179 -0.00519492 5.95261e-22)
(0.00089076 -0.0051731 -6.12756e-22)
(0.00317989 -0.00508702 0)
(0.00542099 -0.0049921 -4.51329e-22)
(0.00776762 -0.00479445 -3.62566e-22)
(0.010153 -0.00446555 2.78907e-22)
(0.0123898 -0.00418327 0)
(0.014499 -0.00402151 0)
(0.0165792 -0.00369401 -2.16989e-22)
(0.0185301 -0.00324108 0)
(0.020275 -0.00268476 0)
(0.0218117 -0.00212249 0)
(0.0230534 -0.00155472 3.67219e-23)
(0.0240241 -0.00101184 0)
(0.0247115 -0.000455221 7.84356e-23)
(0.0251301 0.000119462 -1.1894e-22)
(0.0252673 0.000692188 -1.05001e-22)
(0.0251866 0.00123965 -1.10602e-22)
(0.0249359 0.00177138 1.12326e-22)
(0.02447 0.002263 -1.09974e-22)
(0.0238613 0.00279246 -3.7547e-22)
(0.0229435 0.00327232 0)
(0.0217994 0.00368114 0)
(0.0203169 0.00390325 1.27815e-22)
(0.0186196 0.00398119 2.02456e-22)
(0.0166635 0.00391905 0)
(0.0144718 0.00372946 0)
(0.0120447 0.00336527 0)
(0.00956955 0.002864 0)
(0.00713667 0.0022874 1.90159e-22)
(0.00487892 0.00169901 1.03006e-22)
(0.0029194 0.00115305 0)
(0.00135731 0.000707121 0)
(0.000219272 0.000392632 0)
(-0.000536406 0.000201144 0)
(-0.00102185 8.6778e-05 0)
(-0.00131952 1.01524e-05 0)
(-0.0014825 -4.73962e-05 1.4771e-22)
(-0.00154791 -9.65549e-05 0)
(-0.00153505 -0.000143864 0)
(-0.00145517 -0.00018753 1.37299e-22)
(-0.00131771 -0.000223492 -1.24527e-22)
(-0.0011362 -0.000244476 -2.48325e-22)
(-0.000930747 -0.000241716 0)
(-0.000730145 -0.000209323 0)
(-0.000565336 -0.000155798 0)
(-0.000449152 -0.000104546 0)
(-0.000377509 -6.42707e-05 0)
(-0.000336549 -3.66729e-05 0)
(-0.000315746 -2.07574e-05 -1.1305e-22)
(-0.000314766 -1.56786e-05 1.04042e-22)
(-0.000333259 1.87852e-06 0)
(-0.00036195 2.37314e-05 1.17994e-22)
(-0.00040637 4.20137e-05 0)
(-0.000441717 6.65112e-05 5.42501e-23)
(-0.00047765 8.4242e-05 0)
(-0.000513163 8.92394e-05 0)
(-0.000541756 8.92677e-05 2.39724e-23)
(-0.000568816 8.33777e-05 0)
(-0.000593865 7.43769e-05 -1.35726e-23)
(-0.000616744 6.41517e-05 0)
(-0.00063523 5.19109e-05 -8.45953e-24)
(-0.000647959 3.82344e-05 0)
(-0.00065412 2.42438e-05 1.24358e-23)
(-0.000653444 1.0798e-05 0)
(-0.0006469 -2.20892e-06 -4.36123e-24)
(-0.000634883 -1.32422e-05 0)
(-0.00061853 -2.10835e-05 2.47128e-24)
(-0.000599484 -2.55322e-05 -1.82722e-24)
(-0.000579302 -2.78461e-05 0)
(-0.000558282 -2.87751e-05 0)
(-0.00053676 -2.95566e-05 0)
(-0.000513694 -3.09337e-05 -4.97623e-25)
(-0.000489311 -3.31361e-05 1.07455e-24)
(-0.000463494 -3.51456e-05 0)
(-0.000436806 -3.62369e-05 -6.06613e-25)
(-0.000409266 -3.66797e-05 4.46821e-25)
(-0.00038157 -3.61983e-05 4.86388e-25)
(-0.00035432 -3.52558e-05 -2.87692e-25)
(-0.000327326 -3.41377e-05 3.63428e-25)
(-0.000301296 -3.35062e-05 -3.99792e-25)
(-0.000276433 -3.21642e-05 -6.10482e-25)
(-0.000253155 -2.97908e-05 0)
(-0.000231237 -2.74458e-05 0)
(-0.000210148 -2.52959e-05 4.24565e-25)
(-0.000190067 -2.31366e-05 0)
(-0.000171328 -2.11513e-05 0)
(-0.000154024 -1.92684e-05 0)
(-0.000138291 -1.72325e-05 3.88986e-25)
(-0.00012428 -1.4997e-05 0)
(-0.000112106 -1.27225e-05 0)
(-0.000101677 -1.04615e-05 -3.39601e-25)
(-9.29953e-05 -8.47238e-06 -1.06219e-25)
(-8.56555e-05 -6.8887e-06 -4.30101e-25)
(-7.9474e-05 -5.72514e-06 -4.28215e-25)
(-7.41827e-05 -4.96149e-06 4.29422e-25)
(-6.94075e-05 -4.60059e-06 0)
(-6.49745e-05 -4.5264e-06 0)
(-6.07274e-05 -4.53066e-06 8.78247e-25)
(-5.65518e-05 -4.54756e-06 0)
(-5.24112e-05 -4.55915e-06 9.14457e-25)
(-4.83099e-05 -4.55867e-06 0)
(-4.42494e-05 -4.56001e-06 -5.78137e-25)
(-4.02285e-05 -4.57074e-06 0)
(-3.62282e-05 -4.60015e-06 0)
(-3.22141e-05 -4.64068e-06 -1.13193e-24)
(-2.81498e-05 -4.66462e-06 0)
(-2.39829e-05 -4.60718e-06 0)
(-1.96703e-05 -4.40878e-06 0)
(-1.51422e-05 -3.93491e-06 0)
(-1.06573e-05 -3.27641e-06 7.46746e-25)
(-6.22718e-06 -2.36441e-06 -8.94702e-25)
(-2.63786e-06 -1.47343e-06 0)
(-2.60974e-07 -6.78032e-07 0)
(1.07081e-06 -2.30751e-07 -2.57956e-25)
(1.82727e-06 -2.63455e-07 1.12601e-25)
(2.44995e-06 -4.52298e-07 4.84227e-26)
(3.0283e-06 -5.10878e-07 -8.62641e-26)
(3.56356e-06 -4.30729e-07 1.64744e-25)
(4.08239e-06 -3.16379e-07 0)
(4.43626e-06 -1.73769e-07 0)
(4.62682e-06 6.70368e-08 6.33363e-25)
(4.6399e-06 3.25957e-07 4.58755e-25)
(4.49948e-06 4.71418e-07 0)
(4.1073e-06 3.86319e-07 0)
(3.73217e-06 1.87846e-07 0)
(3.58724e-06 3.83828e-08 4.03961e-24)
(3.59552e-06 -3.50822e-08 -2.1786e-24)
(3.63692e-06 -5.67993e-08 0)
(3.61056e-06 -3.30932e-08 -2.1069e-24)
(3.45031e-06 2.26447e-08 1.72779e-24)
(3.16358e-06 7.89955e-08 0)
(2.8059e-06 1.15462e-07 0)
(2.47724e-06 1.28888e-07 0)
(2.18419e-06 1.30572e-07 0)
(1.9343e-06 1.28427e-07 0)
(1.71438e-06 1.2567e-07 0)
(1.51093e-06 1.22859e-07 4.01886e-25)
(1.32107e-06 1.17773e-07 3.88042e-25)
(1.14413e-06 1.10639e-07 7.64059e-25)
(9.79619e-07 1.01811e-07 0)
(8.28186e-07 9.41771e-08 0)
(6.90109e-07 8.6602e-08 0)
(5.64386e-07 7.96541e-08 0)
(4.44081e-07 7.38483e-08 -1.63626e-24)
(-2.98646e-07 0.000311236 -1.27071e-21)
(5.03633e-05 0.000280534 1.52769e-21)
(-9.03574e-05 0.000660512 3.03618e-21)
(-0.000381573 0.00112874 0)
(-0.000953019 0.00171259 0)
(-0.00187466 0.00233437 0)
(-0.00310297 0.00301897 -1.08401e-21)
(-0.00464489 0.00388037 9.0506e-22)
(-0.00660606 0.00516053 1.4909e-21)
(-0.0090781 0.00694627 -1.22372e-21)
(-0.0120424 0.00904832 1.02088e-21)
(-0.0153199 0.0110745 -4.23216e-22)
(-0.0186082 0.0126609 -4.19546e-22)
(-0.0216229 0.0135395 0)
(-0.0241006 0.0135883 0)
(-0.0259128 0.0128162 3.6616e-22)
(-0.026986 0.0113266 0)
(-0.0273795 0.00931705 -6.75315e-22)
(-0.0271903 0.00700308 0)
(-0.026566 0.00461493 5.86159e-22)
(-0.0256547 0.00231659 0)
(-0.0245851 0.00019402 1.53878e-22)
(-0.0233613 -0.00171864 0)
(-0.0220123 -0.00343052 0)
(-0.0204737 -0.00500316 0)
(-0.0187175 -0.00646663 -1.70377e-22)
(-0.0167357 -0.00779492 0)
(-0.0145327 -0.00893687 0)
(-0.0121542 -0.00982326 -7.24824e-22)
(-0.00959337 -0.0104283 5.70962e-22)
(-0.00688776 -0.0107393 -1.20342e-21)
(-0.00408074 -0.01083 1.48856e-21)
(-0.00114286 -0.0107859 -1.84744e-21)
(0.00155938 -0.0105944 1.06434e-21)
(0.00368171 -0.0102008 0)
(0.00564449 -0.00969159 -2.19469e-21)
(0.00782666 -0.00930528 6.05193e-22)
(0.010021 -0.0089689 0)
(0.0125085 -0.0088882 3.86505e-22)
(0.0149976 -0.00881095 3.02705e-22)
(0.0175858 -0.00869517 -6.77229e-22)
(0.0200451 -0.00830529 3.20283e-22)
(0.0224953 -0.00783474 -2.21456e-22)
(0.0247608 -0.00725307 1.74972e-22)
(0.0268204 -0.00657128 0)
(0.0286493 -0.00578634 0)
(0.0302512 -0.00492429 0)
(0.0316062 -0.00400197 0)
(0.0327205 -0.00305048 -1.5674e-22)
(0.0335895 -0.00209612 1.93664e-22)
(0.0342019 -0.00115335 1.74866e-22)
(0.0345642 -0.000232536 0)
(0.0346537 0.000669562 0)
(0.0344774 0.00155444 0)
(0.034033 0.00239344 0)
(0.033304 0.00317837 -4.2561e-23)
(0.032287 0.0039331 0)
(0.0310357 0.00468189 0)
(0.0295928 0.00539292 -1.57406e-22)
(0.0279604 0.00599235 -1.42658e-22)
(0.0260821 0.00641669 0)
(0.0239209 0.00663267 0)
(0.0214684 0.00660773 2.87602e-22)
(0.0187588 0.00632529 0)
(0.0158453 0.00579817 -3.56922e-22)
(0.0128249 0.00506533 -1.06215e-22)
(0.00983276 0.00418761 -2.53539e-22)
(0.00702043 0.00324849 0)
(0.00453027 0.00234339 0)
(0.0024758 0.00155882 0)
(0.000915845 0.0009503 5.09108e-22)
(-0.000159465 0.000525194 0)
(-0.000833105 0.000228055 0)
(-0.00122753 -1.03666e-06 6.28654e-22)
(-0.00141917 -0.00018106 0)
(-0.00146416 -0.000329198 -2.67802e-22)
(-0.00139699 -0.000440572 0)
(-0.00124988 -0.000509974 2.36955e-22)
(-0.00105412 -0.000521709 0)
(-0.000851706 -0.000458252 0)
(-0.000686793 -0.000336942 0)
(-0.000582155 -0.000216334 0)
(-0.000548863 -0.000128098 0)
(-0.00052965 -6.39255e-05 0)
(-0.000532391 -2.51611e-05 0)
(-0.00054928 1.24547e-06 0)
(-0.000567017 3.21171e-05 1.33808e-22)
(-0.000586486 5.61612e-05 0)
(-0.000600362 7.55794e-05 -5.24757e-23)
(-0.00061184 9.47504e-05 0)
(-0.00062504 0.000108435 0)
(-0.000638193 0.000114474 0)
(-0.000651113 0.000113038 -1.66365e-24)
(-0.000664593 0.000104622 -1.36893e-23)
(-0.000677269 9.28509e-05 1.2936e-23)
(-0.000686847 7.84739e-05 0)
(-0.000692771 6.15291e-05 9.27273e-24)
(-0.000694744 4.25951e-05 6.6442e-24)
(-0.000692441 2.30001e-05 -6.44847e-24)
(-0.000684985 4.14685e-06 0)
(-0.000673226 -1.2936e-05 -3.6888e-24)
(-0.000657914 -2.65163e-05 -2.87904e-24)
(-0.000640308 -3.56138e-05 0)
(-0.00062121 -4.07035e-05 0)
(-0.000601268 -4.3588e-05 0)
(-0.000580064 -4.52212e-05 -1.26474e-24)
(-0.000557573 -4.69124e-05 2.14795e-24)
(-0.000533304 -4.92298e-05 0)
(-0.000507346 -5.21483e-05 9.04068e-25)
(-0.000479994 -5.46714e-05 -1.38903e-24)
(-0.000451592 -5.6212e-05 -7.79149e-25)
(-0.000422429 -5.66007e-05 -3.0328e-25)
(-0.000392843 -5.57175e-05 6.82983e-25)
(-0.000364096 -5.4671e-05 0)
(-0.000336004 -5.30199e-05 -5.81134e-25)
(-0.000309285 -5.09693e-05 0)
(-0.000285267 -4.82521e-05 1.109e-25)
(-0.0002628 -4.46076e-05 0)
(-0.000240862 -4.18047e-05 -1.88486e-25)
(-0.000219346 -3.91783e-05 0)
(-0.000198654 -3.62397e-05 0)
(-0.000179191 -3.33158e-05 0)
(-0.000161232 -3.03326e-05 -3.59913e-26)
(-0.000145017 -2.71006e-05 -2.30643e-25)
(-0.000130635 -2.36453e-05 1.39244e-25)
(-0.000118104 -2.01565e-05 -1.82588e-25)
(-0.000107313 -1.67951e-05 0)
(-9.80996e-05 -1.38223e-05 2.47524e-25)
(-9.02143e-05 -1.14263e-05 2.48585e-25)
(-8.34251e-05 -9.60257e-06 -6.76886e-26)
(-7.7487e-05 -8.34428e-06 -2.49761e-25)