/*--------------------------------*- C++ -*----------------------------------*\
  =========                 |
  \\      /  F ield         | OpenFOAM: The Open Source CFD Toolbox
   \\    /   O peration     | Website:  https://openfoam.org
    \\  /    A nd           | Version:  6
     \\/     M anipulation  |
\*---------------------------------------------------------------------------*/
FoamFile
{
    version     2.0;
    format      ascii;
    class       volVectorField;
    location    "6000";
    object      U;
}
// * * * * * * * * * * * * * * * * * * * * * * * * * * * * * * * * * * * * * //

dimensions      [0 1 -1 0 0 0 0];

internalField   nonuniform List<vector> 
12225
(
(-0.0718135 0.0118555 0)
(-0.00512789 -0.0068868 0)
(0.0026176 0.000583292 0)
(-0.00799931 0.00070904 0)
(-0.0220105 0.00173936 0)
(-0.0397286 0.00222947 0)
(-0.0542815 0.00213878 0)
(-0.0623582 0.00137547 0)
(-0.0626776 0.000573337 0)
(-0.0564529 0.00024337 0)
(-0.0451897 -0.00027058 0)
(-0.0300726 -0.00152107 0)
(-0.0116599 -0.00267833 0)
(0.00941978 -0.00335526 0)
(0.0335135 -0.00367181 0)
(0.0543315 -0.00219265 0)
(0.0703561 -0.00290475 0)
(0.0877767 -0.00643454 0)
(-0.00486188 0.0104259 0)
(-0.00911844 -0.010459 0)
(0.00349474 0.00148126 0)
(-0.013773 0.00335352 0)
(-0.0369844 0.00570861 0)
(-0.062288 0.00606191 0)
(-0.0785421 0.00446568 0)
(-0.0842244 0.00169482 0)
(-0.0813772 -0.00128223 0)
(-0.0722134 -0.00399636 0)
(-0.057929 -0.00622303 0)
(-0.0391449 -0.00810801 0)
(-0.0169329 -0.0101208 0)
(0.0078399 -0.0121162 0)
(0.0360531 -0.0135593 0)
(0.0602684 -0.00920661 0)
(0.0815413 -0.00744889 0)
(0.0985517 -0.0127925 0)
(0.0035605 0.0116022 0)
(-0.0109843 -0.0149286 0)
(-0.00299852 0.00491504 0)
(-0.0347309 0.0109332 0)
(-0.0663412 0.0145882 0)
(-0.0914816 0.012786 0)
(-0.102419 0.00739892 0)
(-0.102409 0.0011246 0)
(-0.0946485 -0.00455768 0)
(-0.0817354 -0.00917775 0)
(-0.0648783 -0.0129062 0)
(-0.0450774 -0.0162956 0)
(-0.0226684 -0.0198771 0)
(0.0022105 -0.0237016 0)
(0.0297617 -0.0260333 0)
(0.0530262 -0.0192698 0)
(0.0800884 -0.0150685 0)
(0.0839166 -0.020807 0)
(0.00430989 0.0133996 0)
(-0.0145944 -0.0127036 0)
(-0.019989 0.0108734 0)
(-0.0602932 0.0196336 0)
(-0.0905174 0.0219162 0)
(-0.107638 0.01651 0)
(-0.111772 0.00810242 0)
(-0.108567 -0.000372801 0)
(-0.099885 -0.0077848 0)
(-0.0863585 -0.0139015 0)
(-0.0693557 -0.0189731 0)
(-0.0498707 -0.0233475 0)
(-0.0282943 -0.0282798 0)
(-0.0047114 -0.0335148 0)
(0.0208836 -0.0369867 0)
(0.0454781 -0.0294706 0)
(0.0768611 -0.035642 0)
(0.0769296 -0.0208114 0)
(0.00497873 0.0153139 0)
(-0.023711 -0.00783288 0)
(-0.0419105 0.019457 0)
(-0.0820926 0.0288488 0)
(-0.105074 0.027718 0)
(-0.115662 0.0187587 0)
(-0.118195 0.00791521 0)
(-0.115023 -0.00245707 0)
(-0.105926 -0.0118586 0)
(-0.0918928 -0.0198025 0)
(-0.0744821 -0.0259556 0)
(-0.0551964 -0.0314261 0)
(-0.0347313 -0.0372863 0)
(-0.0129272 -0.0439647 0)
(0.0101872 -0.0484031 0)
(0.0332787 -0.0406263 0)
(0.0402683 -0.0275801 0)
(0.0694288 -0.0208148 0)
(0.00476727 0.0183838 0)
(-0.035612 0.00067067 0)
(-0.062127 0.0294694 0)
(-0.0969444 0.0374071 0)
(-0.113626 0.0323469 0)
(-0.122732 0.020707 0)
(-0.126144 0.00804329 0)
(-0.123014 -0.00460806 0)
(-0.113532 -0.0164581 0)
(-0.0988412 -0.0260477 0)
(-0.08073 -0.0335878 0)
(-0.0612594 -0.0396974 0)
(-0.0416939 -0.0462116 0)
(-0.0219225 -0.0540369 0)
(-0.00185044 -0.0586288 0)
(0.0144769 -0.0490685 0)
(0.0279903 -0.0291913 0)
(-0.0112053 -0.0190249 0)
(0.00228906 0.0237962 0)
(-0.0468172 0.0115176 0)
(-0.0771501 0.0397678 0)
(-0.106165 0.0448448 0)
(-0.120699 0.0365728 0)
(-0.131144 0.0231249 0)
(-0.135264 0.00820778 0)
(-0.132161 -0.00725698 0)
(-0.122542 -0.0214313 0)
(-0.107293 -0.0332853 0)
(-0.0883062 -0.0420615 0)
(-0.0682029 -0.0486056 0)
(-0.0490428 -0.055157 0)
(-0.0313137 -0.0631128 0)
(-0.0145937 -0.0686123 0)
(-0.00033367 -0.0581741 0)
(0.0147302 -0.0210892 0)
(-0.00206985 -0.00979014 0)
(-0.00213929 0.0321864 0)
(-0.0556172 0.024457 0)
(-0.0868561 0.0501761 0)
(-0.112526 0.051879 0)
(-0.128135 0.0413987 0)
(-0.139906 0.0259924 0)
(-0.144079 0.00833883 0)
(-0.141207 -0.00987007 0)
(-0.131895 -0.0270936 0)
(-0.116661 -0.041314 0)
(-0.0972145 -0.0516585 0)
(-0.0761139 -0.0584243 0)
(-0.0566562 -0.0640115 0)
(-0.0404607 -0.0716494 0)
(-0.026645 -0.078076 0)
(-0.0133029 -0.0664789 0)
(0.00361941 -0.0187497 0)
(-0.00117577 -0.00716292 0)
(-0.0071909 0.0433276 0)
(-0.0616974 0.0389729 0)
(-0.0927854 0.0609957 0)
(-0.117765 0.0595634 0)
(-0.135071 0.0470004 0)
(-0.146649 0.0291272 0)
(-0.150369 0.00862069 0)
(-0.14794 -0.0127604 0)
(-0.139666 -0.032873 0)
(-0.125751 -0.0500127 0)
(-0.106622 -0.0623124 0)
(-0.0848815 -0.0693241 0)
(-0.0645857 -0.073729 0)
(-0.0488781 -0.0796554 0)
(-0.037056 -0.0865483 0)
(-0.0238737 -0.0755425 0)
(-0.00648825 -0.0227479 0)
(0.0023194 -0.00591694 0)
(-0.0117174 0.057033 0)
(-0.065368 0.0545989 0)
(-0.0963796 0.0725636 0)
(-0.12176 0.0681339 0)
(-0.139068 0.0530678 0)
(-0.148803 0.0321404 0)
(-0.151527 0.00867569 0)
(-0.149579 -0.0151836 0)
(-0.143551 -0.0383013 0)
(-0.132281 -0.0584369 0)
(-0.115178 -0.0733184 0)
(-0.0940558 -0.0817279 0)
(-0.0728247 -0.0846585 0)
(-0.0564198 -0.0882217 0)
(-0.0447316 -0.0948171 0)
(-0.0321362 -0.0865121 0)
(-0.0182626 -0.0324206 0)
(0.00400608 -0.00556661 0)
(-0.015144 0.0729385 0)
(-0.0670011 0.0709455 0)
(-0.0979426 0.0848807 0)
(-0.122852 0.0771251 0)
(-0.13767 0.0585997 0)
(-0.144086 0.0344523 0)
(-0.145189 0.00894966 0)
(-0.144151 -0.0169592 0)
(-0.141029 -0.0421279 0)
(-0.133786 -0.0652434 0)
(-0.121067 -0.0840156 0)
(-0.102367 -0.0944874 0)
(-0.0813065 -0.0974563 0)
(-0.0637534 -0.0985975 0)
(-0.0495269 -0.102814 0)
(-0.037933 -0.0984389 0)
(-0.0316918 -0.0498864 0)
(0.000761704 -0.00682389 0)
(-0.0172951 0.0892433 0)
(-0.0669874 0.0867059 0)
(-0.0974046 0.0967 0)
(-0.120188 0.0851074 0)
(-0.130664 0.0626444 0)
(-0.132997 0.0357763 0)
(-0.13254 0.00896893 0)
(-0.13228 -0.0173022 0)
(-0.131669 -0.0435968 0)
(-0.129286 -0.0697642 0)
(-0.122058 -0.0918194 0)
(-0.107704 -0.10604 0)
(-0.0888665 -0.110252 0)
(-0.0707931 -0.109193 0)
(-0.0529002 -0.109266 0)
(-0.0467638 -0.100431 0)
(-0.0421031 -0.0722937 0)
(-0.00752368 -0.0120993 0)
(-0.0185028 0.106603 0)
(-0.0656346 0.10258 0)
(-0.0943263 0.108143 0)
(-0.112895 0.0915493 0)
(-0.11786 0.0646197 0)
(-0.116815 0.035598 0)
(-0.115694 0.00914281 0)
(-0.115845 -0.0167021 0)
(-0.117231 -0.0437825 0)
(-0.118647 -0.070793 0)
(-0.116989 -0.0965975 0)
(-0.109047 -0.115566 0)
(-0.0939206 -0.122201 0)
(-0.077099 -0.11979 0)
(-0.061345 -0.115769 0)
(-0.0533403 -0.106632 0)
(-0.0397318 -0.079689 0)
(-0.0121635 -0.0205922 0)
(-0.0188683 0.127219 0)
(-0.0622023 0.120333 0)
(-0.0870943 0.119866 0)
(-0.09936 0.0964202 0)
(-0.0991818 0.0645218 0)
(-0.0969119 0.0348728 0)
(-0.0962846 0.00929311 0)
(-0.0966661 -0.016192 0)
(-0.0987152 -0.0414002 0)
(-0.102087 -0.0689671 0)
(-0.10556 -0.0976966 0)
(-0.104719 -0.122147 0)
(-0.0956832 -0.135985 0)
(-0.0801207 -0.134026 0)
(-0.0632726 -0.128111 0)
(-0.0519366 -0.129386 0)
(-0.0381275 -0.0965381 0)
(-0.0126179 -0.0288115 0)
(-0.0181244 0.15064 0)
(-0.0558349 0.13898 0)
(-0.0748831 0.130401 0)
(-0.080653 0.0988278 0)
(-0.0782408 0.0633663 0)
(-0.0776888 0.0338961 0)
(-0.0778671 0.00900484 0)
(-0.0783055 -0.0143566 0)
(-0.0795413 -0.0390527 0)
(-0.0825231 -0.065004 0)
(-0.0875424 -0.0925347 0)
(-0.0921947 -0.123392 0)
(-0.0929168 -0.147995 0)
(-0.081344 -0.152163 0)
(-0.0545154 -0.136664 0)
(-0.0524171 -0.135202 0)
(-0.0515843 -0.126474 0)
(-0.0185442 -0.0439472 0)
(-0.0161501 0.17557 0)
(-0.0463754 0.156771 0)
(-0.0587013 0.13868 0)
(-0.0600367 0.0993647 0)
(-0.0588104 0.0620248 0)
(-0.0608399 0.0336905 0)
(-0.0617695 0.00959858 0)
(-0.0621855 -0.0155863 0)
(-0.0627961 -0.0392126 0)
(-0.0639371 -0.0606724 0)
(-0.0660675 -0.0854555 0)
(-0.0722501 -0.116027 0)
(-0.0812696 -0.14872 0)
(-0.0808912 -0.168066 0)
(-0.0577163 -0.154202 0)
(-0.0525155 -0.143011 0)
(-0.044735 -0.134517 0)
(-0.0235635 -0.0689449 0)
(-0.0131363 0.20009 0)
(-0.034766 0.171801 0)
(-0.0408726 0.144211 0)
(-0.0402445 0.0990996 0)
(-0.0410391 0.0624813 0)
(-0.043486 0.034533 0)
(-0.0438941 0.00759997 0)
(-0.0448372 -0.0168943 0)
(-0.0464334 -0.0387328 0)
(-0.0461307 -0.0612573 0)
(-0.045345 -0.0829168 0)
(-0.0482899 -0.105778 0)
(-0.0562807 -0.136766 0)
(-0.0632015 -0.17156 0)
(-0.0587842 -0.190537 0)
(-0.0468343 -0.169091 0)
(-0.0222591 -0.152821 0)
(-0.0189816 -0.0935209 0)
(-0.00970698 0.221308 0)
(-0.0223809 0.182252 0)
(-0.0230561 0.147059 0)
(-0.0212953 0.0983945 0)
(-0.0224301 0.0618515 0)
(-0.0228993 0.0341199 0)
(-0.0216209 0.00932781 0)
(-0.0233121 -0.0124271 0)
(-0.0250177 -0.0369442 0)
(-0.0244732 -0.0625742 0)
(-0.0237007 -0.0842263 0)
(-0.0244059 -0.102385 0)
(-0.0275958 -0.12437 0)
(-0.033967 -0.156763 0)
(-0.0346426 -0.19856 0)
(-0.0275652 -0.2159 0)
(-0.0248492 -0.176628 0)
(-0.0148808 -0.115016 0)
(-0.0063405 0.236079 0)
(-0.0103653 0.184868 0)
(-0.00566134 0.146108 0)
(-0.0018044 0.096422 0)
(-0.00215906 0.0606088 0)
(-0.00199583 0.0344406 0)
(0.00125672 0.0133774 0)
(0.00216937 -0.00426252 0)
(0.00217726 -0.0292344 0)
(0.00382414 -0.0581604 0)
(0.00413591 -0.0817903 0)
(0.00200379 -0.0986567 0)
(-0.00176207 -0.118245 0)
(-0.00585679 -0.145003 0)
(-0.00795514 -0.186035 0)
(-0.00733454 -0.211504 0)
(-0.0155373 -0.188059 0)
(-0.0117747 -0.122743 0)
(-0.00237486 0.245935 0)
(0.00144046 0.177102 0)
(0.010651 0.139139 0)
(0.0185617 0.0941736 0)
(0.0206523 0.0583022 0)
(0.0216087 0.0315226 0)
(0.0235274 0.00901854 0)
(0.0251031 -0.0105976 0)
(0.028746 -0.0318849 0)
(0.0333535 -0.0579159 0)
(0.0343295 -0.0797872 0)
(0.0317858 -0.0938644 0)
(0.0274574 -0.111592 0)
(0.024775 -0.135758 0)
(0.0229604 -0.175358 0)
(0.0206795 -0.197045 0)
(0.00129812 -0.169198 0)
(-0.0100568 -0.0939684 0)
(-0.00250073 0.240125 0)
(0.00674375 0.169265 0)
(0.0253585 0.130419 0)
(0.0399479 0.0895535 0)
(0.0454077 0.0551658 0)
(0.048074 0.0277166 0)
(0.0510668 0.00419874 0)
(0.0551012 -0.0169894 0)
(0.0595645 -0.0374093 0)
(0.0627704 -0.0598846 0)
(0.0606952 -0.0783295 0)
(0.0578405 -0.0918733 0)
(0.0563523 -0.113111 0)
(0.0614032 -0.134865 0)
(0.061251 -0.169487 0)
(0.0540728 -0.175519 0)
(0.0332055 -0.131875 0)
(-0.00406821 -0.0987254 0)
(-0.010281 0.228998 0)
(0.00196075 0.155253 0)
(0.0402681 0.10714 0)
(0.0597652 0.0777552 0)
(0.0695609 0.0508758 0)
(0.0757831 0.0258042 0)
(0.080575 0.000648125 0)
(0.0848989 -0.0223451 0)
(0.0880191 -0.0396183 0)
(0.0872724 -0.0582111 0)
(0.0814717 -0.0743016 0)
(0.0821736 -0.0912018 0)
(0.0875422 -0.121371 0)
(0.102151 -0.142769 0)
(0.0988794 -0.16674 0)
(0.0791501 -0.146572 0)
(0.0472819 -0.0856882 0)
(0.00769981 -0.06377 0)
(-0.0091811 0.273658 0)
(0.00806495 0.0820209 0)
(0.0480683 0.0764518 0)
(0.070848 0.0672773 0)
(0.0902409 0.0428074 0)
(0.100161 0.0193999 0)
(0.10416 -0.0048493 0)
(0.108537 -0.0240349 0)
(0.109816 -0.0379328 0)
(0.105186 -0.0536414 0)
(0.102357 -0.0726821 0)
(0.112691 -0.0972747 0)
(0.119764 -0.128712 0)
(0.119764 -0.142769 0)
(0.119764 -0.156265 0)
(0.074326 -0.0990667 0)
(0.0344154 -0.0281944 0)
(0.0231101 -0.026415 0)
(0.00427228 0.286091 0)
(0.0321701 0.0548074 0)
(0.0484152 0.0783014 0)
(0.0815401 0.0475211 0)
(0.108604 0.0250581 0)
(0.117139 0.014125 0)
(0.120666 -0.00254984 0)
(0.125448 -0.0274068 0)
(0.123984 -0.0373339 0)
(0.124096 -0.0533283 0)
(0.138126 -0.0817337 0)
(0.157714 -0.111301 0)
(0.168254 -0.128742 0)
(0.135098 -0.142769 0)
(0.0972179 -0.1014 0)
(0.0366936 -0.0398118 0)
(0.0218356 -0.0118386 0)
(0.0185007 -0.00183412 0)
(0.00669013 0.219287 0)
(0.0365995 0.115858 0)
(0.0508572 0.058012 0)
(0.0944073 0.0218109 0)
(0.119775 0.0149916 0)
(0.1264 0.0194078 0)
(0.13207 -0.0122048 0)
(0.136657 -0.0302265 0)
(0.14255 -0.0384889 0)
(0.163406 -0.0682542 0)
(0.189028 -0.101436 0)
(0.199492 -0.11992 0)
(0.179127 -0.116212 0)
(0.143238 -0.0822743 0)
(0.0701445 -0.0372282 0)
(0.018654 -0.00991237 0)
(0.00968269 -0.000736294 0)
(0.000227653 0.00496516 0)
(-0.00529509 0.172301 0)
(0.0181975 0.0844219 0)
(0.0717128 0.0394399 0)
(0.113533 -0.0227807 0)
(0.122498 0.00458028 0)
(0.131647 0.0143335 0)
(0.151908 -0.0155496 0)
(0.168145 -0.0399086 0)
(0.193042 -0.0592016 0)
(0.219197 -0.0869503 0)
(0.221413 -0.10697 0)
(0.189329 -0.102504 0)
(0.128012 -0.0768042 0)
(0.0690717 -0.0398518 0)
(0.0151193 -0.00279649 0)
(0.0101625 -8.91616e-05 0)
(0.00768173 0.00769842 0)
(0.00649405 0.024197 0)
(-0.00894265 0.205615 0)
(0.0578613 0.0746369 0)
(0.152707 -0.0314886 0)
(0.145922 -0.0104613 0)
(0.146798 0.0244306 0)
(0.186169 -0.00303295 0)
(0.219933 -0.034543 0)
(0.239868 -0.0494078 0)
(0.251109 -0.0673892 0)
(0.236891 -0.084578 0)
(0.186696 -0.081325 0)
(0.110801 -0.0570054 0)
(0.0358015 -0.0271227 0)
(-0.00600073 0.00384904 0)
(0.000536167 0.0188886 0)
(0.00485602 -0.000197547 0)
(0.00464162 0.0178842 0)
(0.0110427 0.0410618 0)
(0.0101313 0.285224 0)
(0.214943 -0.0275528 0)
(0.281391 -0.0173052 0)
(0.270318 -0.00171213 0)
(0.278259 -0.0099183 0)
(0.293298 -0.0259513 0)
(0.290886 -0.0356908 0)
(0.272983 -0.0484011 0)
(0.234915 -0.05804 0)
(0.16892 -0.0531686 0)
(0.086519 -0.0348539 0)
(0.013221 -0.0102695 0)
(-0.0155961 -0.003508 0)
(-0.0123276 0.00109017 0)
(-0.00759985 0.0087487 0)
(-0.0112226 -0.00257726 0)
(-0.00418417 0.0142563 0)
(0.011313 0.0358479 0)
(0.0580055 0.123088 0)
(0.290613 -0.0523835 0)
(0.285682 -0.0176996 0)
(0.260821 -0.00850056 0)
(0.260183 -0.0121286 0)
(0.259779 -0.0153064 0)
(0.237263 -0.024367 0)
(0.190355 -0.0293493 0)
(0.123704 -0.0250695 0)
(0.0510124 -0.0150353 0)
(-0.00321953 -0.0018401 0)
(-0.00824054 0.000303496 0)
(-0.014948 -0.00449381 0)
(-0.0192038 -0.00465137 0)
(-0.0192592 -0.00163352 0)
(-0.0208839 -0.000912553 0)
(-0.0144365 0.00538438 0)
(0.00521003 0.0165821 0)
(0.171207 0.262558 0)
(0.338727 -0.034673 0)
(0.278488 -0.0219356 0)
(0.205574 -0.0110428 0)
(0.179987 -0.00684672 0)
(0.16168 -0.0077442 0)
(0.120792 -0.00952476 0)
(0.0645161 -0.0076842 0)
(0.0169735 -0.00245034 0)
(-0.00269064 0.00140577 0)
(-0.00948814 0.00160585 0)
(-0.00650821 0.00142818 0)
(-0.00770746 -0.000697063 0)
(-0.0121533 -0.00144326 0)
(-0.0156887 -0.000380448 0)
(-0.0182812 -0.001008 0)
(-0.014839 0.000199526 0)
(0.000326434 0.00366185 0)
(-0.00234407 0.00457726 -6.30422e-19)
(-0.00601586 0.00656827 0)
(-0.0106121 0.00543441 0)
(-0.0109635 -0.00076163 0)
(-0.00977019 -0.00241005 0)
(-0.00741503 -0.00222386 0)
(-0.00507163 -0.00188296 0)
(-0.00349828 -0.00166735 0)
(-0.00255396 -0.00125496 0)
(-0.00237391 -0.000661565 -3.88765e-19)
(-0.00225874 -0.000572088 0)
(-0.00252379 -0.000819283 0)
(-0.00300096 -0.00143399 0)
(-0.00356841 -0.000947241 0)
(-0.00466388 -0.000624621 0)
(-0.00741765 0.00017874 0)
(-0.0116955 0.00236702 0)
(-0.018543 0.00585687 0)
(-0.0273493 0.0107474 -1.31309e-19)
(-0.0373831 0.0166302 0)
(-0.0519023 0.0225618 0)
(-0.0748096 0.027717 1.91843e-20)
(-0.0840962 0.0211503 0)
(-0.0937208 0.0123785 0)
(-0.0985683 0.00293 0)
(-0.0981126 -0.00786025 6.24485e-20)
(-0.0893698 -0.00858766 0)
(-0.0812286 -0.00660169 0)
(-0.074898 -0.00573603 0)
(-0.0690416 -0.00558364 0)
(-0.0634976 -0.00578948 0)
(-0.0585374 -0.00583929 8.24004e-20)
(-0.0538564 -0.00588282 0)
(-0.047497 -0.00707187 -8.55311e-20)
(-0.0369536 -0.0101574 0)
(-0.023704 -0.0129101 0)
(-0.0106438 -0.0115195 0)
(0.00210474 -0.00958633 0)
(0.012827 -0.00766397 0)
(0.0207719 -0.00613182 0)
(0.0261358 -0.00549723 0)
(0.0323518 -0.00649344 0)
(0.0341732 -0.00384063 0)
(0.0362363 -0.00187035 0)
(0.0371767 -0.00108236 0)
(0.0373277 -0.000900402 0)
(0.0373396 -0.000771861 0)
(0.0374196 -0.000746002 2.47594e-19)
(0.037697 -0.00130406 0)
(0.0383482 -0.0023778 2.75392e-19)
(0.0394992 -0.00329844 3.03559e-19)
(0.0409344 -0.00295135 -3.2685e-19)
(0.0418323 -0.00145568 -3.31119e-19)
(0.0410869 0.00025711 3.19841e-19)
(0.0389997 0.00102193 -3.1819e-19)
(0.0363333 0.00101446 -3.34526e-19)
(0.0334799 0.000580936 0)
(0.031073 -0.000627099 0)
(0.0293891 -0.00216983 -4.40617e-19)
(0.0285215 -0.000760211 0)
(0.0270492 0.000364554 0)
(0.0253372 0.000838041 0)
(0.0232528 0.00191767 0)
(0.0201678 0.00293564 0)
(0.0163271 0.00346516 0)
(0.0123302 0.00380502 -6.12229e-19)
(0.00805326 0.0033198 0)
(0.0050552 0.00274504 0)
(0.00310942 0.00173902 0)
(0.001496 0.000625687 0)
(0.00143939 3.06215e-05 0)
(0.00135403 -0.000205065 0)
(0.000971374 -0.000185477 3.09088e-18)
(0.000578511 -1.9557e-05 0)
(0.000236831 6.20721e-06 0)
(-1.94101e-05 1.1507e-05 -4.06811e-18)
(-0.000177623 2.43809e-06 -3.93992e-18)
(-0.000272776 -3.7989e-06 0)
(-0.000324273 -3.71571e-06 0)
(-0.000344403 -6.08915e-06 0)
(-0.000340055 -8.94962e-06 0)
(-0.000309995 -1.29728e-05 0)
(-0.000254522 -1.98046e-05 0)
(-0.000176187 -2.43647e-05 0)
(-8.42013e-05 -2.56441e-05 -4.5315e-18)
(1.84952e-06 -2.20583e-05 4.55615e-18)
(6.49924e-05 -1.46259e-05 0)
(9.84587e-05 -7.24986e-06 9.1216e-18)
(0.000102341 -1.33569e-06 0)
(8.11921e-05 2.75348e-06 9.16249e-18)
(4.55617e-05 3.19584e-06 0)
(2.84446e-06 1.70749e-06 0)
(-4.87208e-05 2.74125e-06 -9.45796e-18)
(-0.000111028 4.42239e-06 0)
(-0.000187002 4.15545e-06 9.18597e-18)
(-0.000280252 5.37933e-06 0)
(-0.000399856 1.29522e-05 8.68891e-18)
(-0.000551451 2.0843e-05 0)
(-0.000753405 4.07126e-05 0)
(-0.000956253 5.00507e-05 0)
(-0.00115953 5.52069e-05 -7.32954e-18)
(-0.00134532 4.64341e-05 0)
(-0.00151095 2.45218e-05 6.84472e-18)
(-0.00155464 -9.94867e-07 -7.01489e-18)
(-0.00161142 1.21996e-05 0)
(-0.0016548 5.37902e-05 0)
(-0.00172609 4.88982e-05 0)
(-0.00174132 2.61075e-05 -6.80577e-18)
(-0.00169967 2.21766e-05 0)
(-0.00163995 2.92418e-05 0)
(-0.00162069 4.80339e-05 0)
(-0.00163364 4.61169e-05 0)
(-0.00160157 3.0478e-05 -6.84571e-18)
(-0.0014803 2.73286e-05 6.99186e-18)
(-0.00140575 6.34889e-05 -7.09155e-18)
(-0.00129632 3.29178e-05 7.02395e-18)
(-0.00107022 -2.28757e-05 6.73861e-18)
(-0.000847974 6.5481e-05 0)
(-0.00092492 0.000157591 0)
(-0.000930685 5.74419e-05 -6.55638e-18)
(-0.000445623 -0.000127649 0)
(0.000252715 -0.000119863 0)
(0.00100311 -0.000101409 0)
(0.00176003 -0.000214636 0)
(0.00227034 -3.53638e-05 0)
(0.00239257 4.63326e-05 0)
(0.00242951 3.5922e-05 5.87526e-18)
(0.00256207 -1.74293e-06 -5.67573e-18)
(0.00275955 -3.23579e-05 0)
(0.00287415 1.30761e-05 0)
(0.00296676 7.72599e-05 0)
(0.00309647 4.81005e-05 0)
(0.00318622 3.60894e-05 0)
(0.00309824 -5.9296e-06 0)
(0.00291674 3.47604e-06 0)
(0.00269843 4.18731e-05 0)
(0.00240531 8.5579e-05 0)
(0.00193351 7.86585e-05 1.20063e-17)
(0.00158981 6.66858e-05 0)
(0.00128978 8.36655e-05 0)
(0.00087148 0.000144387 0)
(0.000474352 4.57299e-05 0)
(0.000215487 1.66799e-05 0)
(-5.66764e-06 1.15428e-05 0)
(-0.000173207 7.19282e-06 0)
(-0.000295573 2.03789e-05 1.28755e-17)
(-0.000408451 3.13801e-05 1.3426e-17)
(-0.000438562 8.56427e-06 0)
(-0.000303073 -3.13848e-05 0)
(-2.63998e-06 -5.77813e-05 1.414e-17)
(0.000371578 -5.82534e-05 -1.36999e-17)
(0.000676196 -3.31314e-05 1.30522e-17)
(0.000869433 -2.95844e-05 -1.26437e-17)
(0.00104462 -1.86276e-05 -1.20668e-17)
(0.00125083 -1.77427e-05 0)
(0.00142396 -2.87288e-05 0)
(0.00144886 3.73748e-05 0)
(0.00120264 0.000143395 1.03314e-17)
(0.000762836 0.00014624 0)
(0.000234482 9.92568e-05 0)
(-0.000272691 8.73898e-05 0)
(-0.000562607 4.87988e-05 0)
(-0.000786757 6.275e-05 -8.22588e-18)
(-0.00093382 5.22842e-05 0)
(-0.00107954 5.34278e-05 -8.75453e-18)
(-0.00104769 4.45753e-05 9.31346e-18)
(-0.000771306 -8.66974e-05 0)
(-0.000759812 -5.12951e-05 0)
(-0.000711357 8.89849e-05 0)
(-0.00043881 -0.000107764 0)
(0.000199028 -8.33863e-05 0)
(0.000978241 -8.02742e-05 0)
(0.00165404 -7.03816e-05 -9.55891e-18)
(0.00214373 -3.52541e-05 -9.44145e-18)
(0.00252982 -3.18169e-05 0)
(0.00291008 -2.68249e-05 0)
(0.00312587 6.78587e-06 0)
(0.00316468 5.16893e-05 0)
(0.00293646 8.55315e-05 0)
(0.00247043 8.78817e-05 0)
(-0.00264353 0.0115311 -3.01047e-19)
(-0.00462364 0.0101702 0)
(-0.00463685 0.00657561 4.08138e-20)
(-0.00483529 0.00238816 0)
(-0.00590991 -0.00715265 0)
(-0.00410807 -0.00718377 0)
(-0.00252509 -0.00544867 0)
(-0.00118929 -0.00138751 0)
(-0.00122695 -0.00149196 1.42422e-19)
(-0.00118099 -0.00162339 -1.667e-19)
(-0.00159231 0.000782135 2.52235e-18)
(-0.00286971 0.00141232 -1.96994e-18)
(-0.00584657 0.00244393 0)
(-0.0104667 0.00469802 0)
(-0.0178258 0.00917527 0)
(-0.0268987 0.0142273 0)
(-0.0374432 0.0200496 0)
(-0.0481957 0.0256067 0)
(-0.058089 0.0301534 1.34698e-19)
(-0.0671989 0.0326609 0)
(-0.0754006 0.0321927 0)
(-0.0752776 0.0285879 2.10781e-21)
(-0.0769507 0.0231971 0)
(-0.0781555 0.0142307 0)
(-0.0782501 0.00477712 0)
(-0.0789978 -0.00724228 6.92134e-21)
(-0.0779744 -0.022601 0)
(-0.0721567 -0.0147856 0)
(-0.0666222 -0.0136434 0)
(-0.0602506 -0.0118015 -2.79533e-19)
(-0.0527272 -0.010406 0)
(-0.0463735 -0.00924473 -1.70473e-19)
(-0.0418431 -0.0105438 0)
(-0.0351911 -0.0171377 -1.97946e-19)
(-0.0241707 -0.0281448 0)
(-0.0135229 -0.0384292 4.78409e-19)
(-0.00271113 -0.0327005 -6.23958e-19)
(0.00962276 -0.0276015 0)
(0.0189975 -0.0208909 -5.24494e-19)
(0.0244924 -0.0161433 -4.77126e-19)
(0.0336381 -0.00688432 3.29319e-20)
(0.033652 -0.00672844 0)
(0.0338238 -0.00665246 0)
(0.0363891 -0.00347291 -9.16095e-19)
(0.0386197 -0.00144988 0)
(0.0402109 -0.000543177 0)
(0.041514 -0.000316453 0)
(0.0428705 -0.000525362 -4.21427e-19)
(0.0445248 -0.00103185 0)
(0.0464745 -0.00150938 -3.93778e-19)
(0.0486877 -0.00162929 3.81508e-19)
(0.0507029 -0.000103801 3.81451e-19)
(0.0514887 0.00279799 3.85355e-19)
(0.0515841 0.00522418 -3.73306e-19)
(0.0511887 0.00634214 3.67133e-19)
(0.0504377 0.00689559 1.1077e-18)
(0.048581 0.00723898 0)
(0.0462356 0.00694627 0)
(0.040423 0.00614917 -3.37126e-19)
(0.0346881 0.00575172 -3.58266e-19)
(0.0315605 0.00446518 0)
(0.028545 0.00428072 0)
(0.0256048 0.00538172 0)
(0.0227408 0.00680025 0)
(0.0200253 0.00715053 -3.23771e-19)
(0.0175369 0.00719608 -1.5378e-19)
(0.0161491 0.00692204 0)
(0.0135793 0.00511659 0)
(0.0118791 0.00278735 0)
(0.0106017 0.000736389 0)
(0.00823471 0.000867729 0)
(0.00613084 0.00108104 0)
(0.00440435 0.00110737 -2.34904e-18)
(0.00290884 0.000951866 0)
(0.00174279 0.000715952 0)
(0.000877154 0.000478694 -4.20306e-18)
(0.00027503 0.00028804 4.90786e-18)
(-0.000115093 0.000162683 1.0584e-17)
(-0.000357447 8.19637e-05 0)
(-0.000494876 2.34101e-05 0)
(-0.000551958 -2.8451e-05 0)
(-0.00054085 -8.03266e-05 0)
(-0.000467344 -0.000128709 0)
(-0.000342587 -0.000165471 0)
(-0.000188419 -0.000173213 5.48901e-18)
(-4.14409e-05 -0.00014389 -5.6955e-18)
(6.31014e-05 -9.11551e-05 0)
(0.000107476 -3.32695e-05 -1.16975e-17)
(8.81485e-05 1.897e-05 0)
(8.40289e-06 6.08364e-05 -1.16285e-17)
(-0.000117705 8.46167e-05 0)
(-0.000276163 0.000101412 0)
(-0.000468851 0.000124684 -1.03594e-17)
(-0.000709246 0.000155517 0)
(-0.000996685 0.000191575 9.0588e-18)
(-0.00133583 0.000244079 0)
(-0.00172584 0.000313046 7.49908e-18)
(-0.00217017 0.000369198 0)
(-0.00259341 0.000390865 -1.15183e-17)
(-0.00295687 0.000372014 0)
(-0.0033467 0.000338764 5.23055e-18)
(-0.00361267 0.000245113 0)
(-0.0037747 0.00018956 -5.31411e-18)
(-0.00396605 0.000168159 5.71464e-18)
(-0.00410593 0.000122322 0)
(-0.00425503 7.96399e-05 0)
(-0.00408239 1.372e-05 0)
(-0.00389409 -4.86662e-05 5.66413e-18)
(-0.0036567 -9.72083e-05 -1.20524e-17)
(-0.00348356 -0.000136164 0)
(-0.00321778 -6.34975e-05 1.14372e-17)
(-0.00298588 -7.05748e-05 -1.29467e-17)
(-0.00274083 -0.000204604 -5.58206e-18)
(-0.00249248 -0.000294673 -3.57453e-18)
(-0.00224414 -6.53491e-05 2.22697e-17)
(-0.0018948 -0.000346042 -2.62912e-18)
(-0.00167631 -0.000462541 -4.40426e-18)
(-0.0014064 -0.000373949 0)
(-0.00106075 6.03284e-05 0)
(-0.000467742 -0.000576699 3.07695e-18)
(0.000117072 -0.00107874 0)
(0.00084405 -0.00109327 0)
(0.00184346 -0.00101977 0)
(0.00237546 -0.00104586 9.03484e-19)
(0.0029505 -0.000397888 0)
(0.00354104 -0.000131481 0)
(0.00411695 -0.00016476 -5.51297e-18)
(0.00468722 -0.000236791 -5.08694e-18)
(0.00527963 -0.000275897 -9.61995e-18)
(0.00573309 -0.000280458 -9.18246e-18)
(0.00655898 -0.000396771 4.28432e-18)
(0.00693173 -0.000284671 0)
(0.00711689 -5.59431e-05 0)
(0.00712155 0.000165753 2.60863e-19)
(0.00682121 0.000359038 0)
(0.00634497 0.000515706 1.06471e-17)
(0.0056075 0.00051756 0)
(0.00496885 0.000476281 -9.41286e-18)
(0.00433579 0.000412238 0)
(0.00372186 0.000413215 0)
(0.00293982 0.000577348 -2.2865e-17)
(0.00197092 0.000347851 0)
(0.00113414 0.000282526 0)
(0.000414957 0.000245832 0)
(-0.000117102 0.000160124 0)
(-0.000467796 0.000135571 1.72758e-17)
(-0.000728919 9.53176e-05 -1.73653e-17)
(-0.000761126 -5.08005e-05 0)
(-0.000466697 -0.000240777 0)
(4.75609e-05 -0.000380525 -1.74242e-17)
(0.000624842 -0.000385604 1.64576e-17)
(0.00108204 -0.000253568 -4.72207e-17)
(0.00133606 -0.000189046 1.5303e-17)
(0.0015163 -0.000207197 -1.47071e-17)
(0.00171999 -0.000208374 0)
(0.00195366 -0.000138785 0)
(0.00212097 5.61974e-05 -2.69219e-17)
(0.0019233 0.000336113 -1.23838e-17)
(0.00124257 0.000437004 0)
(0.000301258 0.000468009 0)
(-0.000701673 0.00038511 0)
(-0.00123924 0.000185482 -2.3833e-17)
(-0.00147435 0.000141713 8.52696e-18)
(-0.00166286 0.000142035 0)
(-0.0018472 8.18198e-05 9.15039e-18)
(-0.00160445 -6.44386e-05 -1.01056e-17)
(-0.00105242 -0.000281527 0)
(-0.000904925 -5.48778e-05 0)
(-0.000897443 0.000108525 0)
(-9.86165e-05 -0.000674716 0)
(0.000526017 -0.000531343 0)
(0.00172901 -0.000656081 0)
(0.00263173 -0.000506327 -7.98451e-18)
(0.00348896 -0.00035515 -8.44669e-18)
(0.00428079 -0.000324936 -1.53611e-17)
(0.00494087 -0.000240948 0)
(0.00552293 -0.000125752 0)
(0.00587848 3.57243e-05 0)
(0.00595101 0.000201209 0)
(0.00563057 0.000255707 3.04217e-17)
(-0.000161243 0.0148522 5.04981e-19)
(-0.000596263 0.0126104 -2.49796e-19)
(0.00472667 0.0105113 -2.9349e-21)
(-0.00334733 -0.00125651 0)
(-0.00324907 -0.00716431 0)
(-0.00304371 -0.00998482 0)
(-0.00231793 -0.00899006 2.03465e-18)
(-0.00125919 -0.00547809 -2.77839e-18)
(-0.000909243 -0.00170346 -2.11206e-18)
(-0.00210138 0.000810444 5.49197e-18)
(-0.00464849 0.00459777 -3.50966e-18)
(-0.00883831 0.00908494 1.15392e-18)
(-0.015002 0.0147403 7.88851e-19)
(-0.0226836 0.0213474 0)
(-0.0312394 0.0281941 0)
(-0.0397285 0.0341772 -3.57206e-19)
(-0.0472857 0.0386728 0)
(-0.0529428 0.0410467 5.60924e-19)
(-0.0564135 0.0410424 0)
(-0.058321 0.0389808 -5.19541e-19)
(-0.0597932 0.0359656 0)
(-0.0615894 0.0327755 -2.14456e-23)
(-0.0616129 0.0235331 0)
(-0.0616345 0.0142194 0)
(-0.0616584 0.00481849 0)
(-0.0616829 -0.00465386 -1.00334e-22)
(-0.031912 -0.0342807 0)
(-0.0424457 -0.0233375 0)
(-0.0400009 -0.0263828 -7.89897e-19)
(-0.0378853 -0.0298781 3.95362e-19)
(-0.0298471 -0.032353 -8.44917e-19)
(-0.0195909 -0.0297616 1.04995e-18)
(-0.0108661 -0.0226409 -1.55019e-18)
(-0.00142605 -0.0295809 8.17088e-19)
(0.0092406 -0.0449929 0)
(0.00922135 -0.0447127 -3.23403e-25)
(0.00923184 -0.0444382 1.19289e-23)
(0.0146317 -0.0409016 0)
(0.018319 -0.0319864 5.40406e-19)
(0.0219388 -0.0249729 5.38274e-19)
(0.0259671 -0.0214684 -1.54172e-18)
(0.0330788 -0.00778701 1.41662e-19)
(0.0362818 -0.00499861 -9.78522e-19)
(0.037935 -0.00404345 9.73939e-19)
(0.0387465 -0.00337477 0)
(0.0392275 -0.00294293 0)
(0.0396066 -0.00289947 0)
(0.0399801 -0.00340854 0)
(0.0406357 -0.00466011 9.40928e-19)
(0.0418249 -0.0062175 -8.88447e-19)
(0.0449482 -0.00974188 -7.92989e-19)
(0.0485085 -0.0113883 0)
(0.0501176 -0.00742028 0)
(0.0490844 -0.00334378 0)
(0.0474944 4.56133e-05 0)
(0.047295 0.00315384 -1.31231e-22)
(0.046913 0.0062211 0)
(0.0462517 0.00935731 0)
(0.0410882 0.0115062 6.26352e-19)
(0.0351464 0.0104889 3.5928e-19)
(0.0308987 0.00891829 0)
(0.0262561 0.00863235 0)
(0.0233638 0.00930618 -2.86753e-19)
(0.021943 0.00945848 0)
(0.0204358 0.00903153 4.59124e-19)
(0.0188557 0.00839295 7.48207e-20)
(0.0184424 0.00712644 7.91076e-20)
(0.0183458 0.00570707 0)
(0.0173131 0.00451788 0)
(0.0154488 0.00440674 0)
(0.0131165 0.00434448 -4.43305e-18)
(0.0107616 0.00409829 0)
(0.00853181 0.00365399 0)
(0.00642541 0.00306227 -6.97317e-18)
(0.00452657 0.00239094 0)
(0.00292674 0.0017278 5.37406e-18)
(0.00167486 0.0011567 0)
(0.000768391 0.000724574 -8.47682e-18)
(0.000159311 0.000424264 0)
(-0.000222687 0.000212068 0)
(-0.000437688 4.21741e-05 0)
(-0.000524068 -0.000105304 0)
(-0.000511414 -0.000230009 0)
(-0.000418297 -0.000322573 0)
(-0.000274764 -0.000346068 0)
(-0.00013425 -0.00028538 0)
(-4.63292e-05 -0.000167603 -2.30848e-17)
(-3.71778e-05 -3.19421e-05 0)
(-0.000115042 9.7206e-05 2.28856e-17)
(-0.000280544 0.000211658 0)
(-0.000515164 0.000279893 0)
(-0.000810989 0.000342575 0)
(-0.00116359 0.000423266 -1.01358e-24)
(-0.00158856 0.000514441 1.55401e-17)
(-0.00207648 0.000599618 -1.40742e-17)
(-0.00259656 0.000685487 0)
(-0.00313845 0.000754814 -1.04963e-17)
(-0.00361514 0.000767481 -8.71005e-18)
(-0.00402148 0.000771815 7.5386e-18)
(-0.00442813 0.000710932 0)
(-0.00478395 0.000621117 7.01524e-18)
(-0.0050696 0.000536662 7.53009e-18)
(-0.00533483 0.000385263 0)
(-0.00551285 0.000240605 0)
(-0.00559171 0.000118179 0)
(-0.0056235 3.45438e-05 5.68448e-18)
(-0.00540087 -0.00010862 -1.3641e-17)
(-0.00503281 -0.00032334 0)
(-0.00452511 -0.000418055 -8.84854e-18)
(-0.00413422 -0.000370595 1.32942e-17)
(-0.00373002 -0.000300729 8.15568e-18)
(-0.00314084 -0.000349221 1.05238e-17)
(-0.00261315 -0.00038424 -6.07185e-18)
(-0.00239404 -0.000458709 0)
(-0.00202289 -0.000456966 3.80091e-18)
(-0.00176893 -0.00045132 0)
(-0.00167134 -0.00053111 6.35812e-19)
(-0.00153653 -0.000475596 0)
(-0.000942135 -0.000332679 9.39302e-18)
(0.00017186 -0.000816007 0)
(0.000565817 -0.00130362 0)
(0.00109961 -0.00155709 0)
(0.00197413 -0.00140108 -1.9033e-18)
(0.00212781 -0.00106875 -3.07939e-19)
(0.00218484 -0.000767432 3.08858e-18)
(0.00358953 -0.000816099 -2.1677e-17)
(0.00470846 -0.000873258 0)
(0.00559917 -0.000837231 8.82555e-18)
(0.00627102 -0.000801739 8.32589e-18)
(0.00690034 -0.000608118 -5.5071e-18)
(0.00702939 -0.000469844 -1.21463e-18)
(0.00699114 -0.000273648 6.21979e-19)
(0.00698256 -5.55342e-05 0)
(0.00697811 0.000165526 -1.63435e-19)
(0.00697295 0.000388953 0)
(0.00686223 0.000597998 -1.25469e-23)
(0.00672933 0.00073277 0)
(0.00639015 0.00085634 0)
(0.00600476 0.000782842 0)
(0.00545618 0.000581301 0)
(0.00597247 0.00128287 3.65715e-20)
(0.00459686 0.00122802 0)
(0.00305674 0.00114403 0)