/*--------------------------------*- C++ -*----------------------------------*\
  =========                 |
  \\      /  F ield         | OpenFOAM: The Open Source CFD Toolbox
   \\    /   O peration     | Website:  https://openfoam.org
    \\  /    A nd           | Version:  6
     \\/     M anipulation  |
\*---------------------------------------------------------------------------*/
FoamFile
{
    version     2.0;
    format      ascii;
    class       volScalarField;
    location    "50";
    object      alphat;
}
// * * * * * * * * * * * * * * * * * * * * * * * * * * * * * * * * * * * * * //

dimensions      [1 -1 -1 0 0 0 0];

internalField   nonuniform List<scalar> 
16000
(
5.2876591e-06
2.0158654e-05
3.0295487e-05
3.8355772e-05
3.452395e-05
3.9465485e-05
3.3220524e-05
3.3942839e-05
3.0010904e-05
2.9355604e-05
2.7499547e-05
2.679837e-05
2.600933e-05
2.568773e-05
2.5515169e-05
2.5615191e-05
2.5885975e-05
2.6370575e-05
2.7017701e-05
2.7854639e-05
2.8856129e-05
3.0043317e-05
3.1409946e-05
3.2975365e-05
3.4749164e-05
3.6754447e-05
3.9014406e-05
4.1558971e-05
4.4419712e-05
4.7633058e-05
5.1293063e-05
5.5509629e-05
6.0396926e-05
6.6138664e-05
7.264015e-05
7.9948218e-05
8.823743e-05
9.8018793e-05
0.00011007091
0.00012471961
0.00014195644
0.00016199675
0.00018570766
0.00021431321
0.00024883262
0.000290444
0.00034081162
0.00040188188
0.00047607989
0.00056639901
0.00067653978
0.00081115336
0.00097606037
0.0011787103
0.0012201604
0.001219855
0.0012189899
0.0012179132
0.0012166808
0.0012151236
0.0012127595
0.0012096398
0.0012060497
0.0012023149
0.0011987296
0.0011955044
0.0011927458
0.0011904775
0.0011886518
0.0011872484
0.0011861024
0.0011853462
0.0011845069
0.001184576
0.0011837565
0.0011859237
0.0011819031
0.0011859431
0.0011746614
0.0011827128
4.3771176e-06
1.9836808e-05
2.969894e-05
3.6526874e-05
3.4103189e-05
3.4029352e-05
2.8730118e-05
2.9141851e-05
2.6104675e-05
2.5597963e-05
2.4167655e-05
2.3659643e-05
2.3081561e-05
2.2908948e-05
2.2849628e-05
2.3042559e-05
2.3369634e-05
2.3896151e-05
2.4556409e-05
2.5390534e-05
2.6365818e-05
2.7508751e-05
2.880971e-05
3.0288945e-05
3.1954064e-05
3.3827142e-05
3.5929402e-05
3.8290893e-05
4.0946118e-05
4.3937902e-05
4.7315331e-05
5.1110382e-05
5.5451546e-05
6.0497181e-05
6.6416419e-05
7.3393824e-05
8.1457763e-05
9.0747795e-05
0.00010175804
0.00011516325
0.00013100301
0.00014940965
0.0001712421
0.0001976311
0.00022944906
0.00026781342
0.00031430037
0.00037069811
0.00043926148
0.00052281156
0.00062478571
0.00074955955
0.00090255945
0.0010907247
0.001219106
0.0012188951
0.0012180387
0.0012169578
0.0012157604
0.0012143462
0.0012123883
0.0012095841
0.0012062156
0.0012026173
0.0011991014
0.0011959009
0.0011931416
0.0011908574
0.0011890103
0.0011875643
0.0011863873
0.0011855708
0.0011847107
0.0011846057
0.0011836436
0.0011849776
0.001180956
0.0011843488
0.0011738182
0.001180753
3.6099184e-06
1.9631419e-05
2.907013e-05
3.5118546e-05
3.2855468e-05
3.0867952e-05
2.4916552e-05
2.5088146e-05
2.2806113e-05
2.2386696e-05
2.1319995e-05
2.0950088e-05
2.0550338e-05
2.0487367e-05
2.0518662e-05
2.0777275e-05
2.1143241e-05
2.1692538e-05
2.235235e-05
2.3170124e-05
2.4109115e-05
2.5198899e-05
2.6428112e-05
2.7817556e-05
2.9373774e-05
3.111798e-05
3.3069702e-05
3.5256645e-05
3.7710291e-05
4.0469069e-05
4.3578147e-05
4.7096599e-05
5.1104743e-05
5.5660781e-05
6.0952065e-05
6.7216555e-05
7.4814903e-05
8.3906989e-05
9.4389081e-05
0.00010663253
0.0001211851
0.00013829315
0.00015856182
0.00018306925
0.00021266221
0.00024832566
0.00029156514
0.00034405996
0.00040788363
0.00048569877
0.0005807066
0.00069698765
0.00083960947
0.0010149956
0.0012180371
0.0012179367
0.0012170892
0.0012159925
0.0012148028
0.0012134674
0.001211807
0.0012093539
0.0012062393
0.0012028048
0.0011993796
0.0011962189
0.0011934691
0.0011911757
0.0011893091
0.0011878247
0.001186611
0.0011857065
0.0011848256
0.001184503
0.0011834115
0.0011839293
0.0011799238
0.0011827367
0.0011731019
0.0011791552
2.9700514e-06
1.9511839e-05
2.8333574e-05
3.2240779e-05
2.3919967e-05
2.9705282e-05
2.1506589e-05
2.1814532e-05
2.0154077e-05
1.9764709e-05
1.9005662e-05
1.8713719e-05
1.8466751e-05
1.8469636e-05
1.8575146e-05
1.8870861e-05
1.9263414e-05
1.9817968e-05
2.0468715e-05
2.1260735e-05
2.2159179e-05
2.3192985e-05
2.4351231e-05
2.5654091e-05
2.7107727e-05
2.8732408e-05
3.0546586e-05
3.2576506e-05
3.4851757e-05
3.7407575e-05
4.0285337e-05
4.3538157e-05
4.723945e-05
5.1494728e-05
5.6431321e-05
6.2188894e-05
6.9057193e-05
7.7534597e-05
8.7738588e-05
9.9290552e-05
0.0001126136
0.00012857838
0.00014763929
0.00017053417
0.00019824059
0.0002316756
0.00027219015
0.00032143586
0.00038132366
0.00045436713
0.0005435907
0.00065280185
0.00078676528
0.00095145577
0.0011545397
0.0012169895
0.0012161529
0.0012150316
0.0012138306
0.0012125236
0.0012110034
0.0012089402
0.0012061147
0.0012028736
0.0011995624
0.0011964585
0.0011937293
0.0011914337
0.0011895509
0.001188031
0.0011867798
0.0011857967
0.0011848662
0.0011842625
0.0011829348
0.0011825595
0.0011786782
0.0011811187
0.0011724452
0.0011773149
2.4415407e-06
1.9440172e-05
2.5884114e-05
2.8037076e-05
1.9821655e-05
2.1611902e-05
1.8861774e-05
1.911458e-05
1.7937184e-05
1.75544e-05
1.7050085e-05
1.6802059e-05
1.6684197e-05
1.6725365e-05
1.6890877e-05
1.7204201e-05
1.7613063e-05
1.8160036e-05
1.8794424e-05
1.9553173e-05
2.0407024e-05
2.1381937e-05
2.2468908e-05
2.3686742e-05
2.5041701e-05
2.6552919e-05
2.8237941e-05
3.0121449e-05
3.2231306e-05
3.4600713e-05
3.7268813e-05
4.0287165e-05
4.3729265e-05
4.7695888e-05
5.2320013e-05
5.77716e-05
6.4199327e-05
7.1881726e-05
8.1336669e-05
9.246671e-05
0.00010502507
0.00011980598
0.00013779493
0.00015932347
0.00018531518
0.00021680632
0.0002549297
0.00030130574
0.00035774251
0.00042658051
0.00051070571
0.00061367251
0.00073996873
0.0008951709
0.0010863978
0.0012160395
0.0012152201
0.001214069
0.0012128456
0.0012115413
0.0012100941
0.0012083242
0.0012058235
0.0012028063
0.0011996325
0.0011966025
0.0011939052
0.0011916143
0.0011897176
0.0011881641
0.00118687
0.0011857977
0.0011847589
0.0011838046
0.001182148
0.001180958
0.0011773457
0.0011794671
0.0011719623
0.0011762998
2.0104413e-06
1.938683e-05
2.2201393e-05
2.2063413e-05
1.7790187e-05
1.8897222e-05
1.6952793e-05
1.6848688e-05
1.6062116e-05
1.5662346e-05
1.5373889e-05
1.5146423e-05
1.5138537e-05
1.5200301e-05
1.5414753e-05
1.5733554e-05
1.6151846e-05
1.6683867e-05
1.7298233e-05
1.802068e-05
1.882966e-05
1.9746864e-05
2.0766088e-05
2.1904367e-05
2.3168438e-05
2.4576244e-05
2.6144595e-05
2.7896799e-05
2.9859401e-05
3.206414e-05
3.4549056e-05
3.7365331e-05
4.0587089e-05
4.4318328e-05
4.8689131e-05
5.3846789e-05
5.9967283e-05
6.7192141e-05
7.5777098e-05
8.6193525e-05
9.8256344e-05
0.00011220966
0.0001291348
0.00014958603
0.00017413083
0.00020396384
0.00024009877
0.00028404448
0.00033757638
0.00040286235
0.00048266651
0.00058032889
0.00070007963
0.00084714691
0.0010281565
0.0012150811
0.0012142889
0.0012131046
0.0012118512
0.0012105325
0.0012091111
0.0012074862
0.0012053504
0.0012025899
0.0011995789
0.0011966408
0.0011939867
0.0011917062
0.001189797
0.0011882082
0.001186859
0.0011856713
0.0011844489
0.0011830749
0.001181053
0.0011792312
0.0011760427
0.0011777545
0.0011717095
0.001175613
1.6672116e-06
1.9345699e-05
1.9013742e-05
1.9846595e-05
1.6024319e-05
1.6652596e-05
1.5162251e-05
1.4954834e-05
1.4491896e-05
1.4051602e-05
1.3937898e-05
1.3711398e-05
1.3790251e-05
1.3858072e-05
1.410762e-05
1.4421484e-05
1.4840896e-05
1.5351422e-05
1.5941552e-05
1.6625069e-05
1.7388728e-05
1.82495e-05
1.9204328e-05
2.0268273e-05
2.1448707e-05
2.2762299e-05
2.4225212e-05
2.5859511e-05
2.7690771e-05
2.9750131e-05
3.2075733e-05
3.4719642e-05
3.7757087e-05
4.1290559e-05
4.5444564e-05
5.0352971e-05
5.6154208e-05
6.3003673e-05
7.101315e-05
8.0603505e-05
9.2098962e-05
0.00010556223
0.00012150755
0.00014099293
0.00016436769
0.00019274449
0.00022719215
0.00026905358
0.00032008773
0.00038232437
0.00045839961
0.00055147688
0.00066554512
0.00080552432
0.00097759795
0.0011895422
0.0012133535
0.0012121344
0.0012108462
0.001209503
0.0012080816
0.0012065257
0.0012046751
0.0012022073
0.0011993861
0.001196559
0.0011939595
0.0011916948
0.0011897722
0.0011881414
0.0011867143
0.0011853669
0.0011838756
0.0011820481
0.001179705
0.0011775305
0.0011748972
0.0011761919
0.0011714644
0.0011749894
1.4034357e-06
1.9314163e-05
1.6609276e-05
1.7871869e-05
1.4259397e-05
1.478574e-05
1.3717382e-05
1.3374335e-05
1.3162634e-05
1.2673471e-05
1.2692426e-05
1.2457874e-05
1.2599987e-05
1.2665659e-05
1.2937084e-05
1.323956e-05
1.3652946e-05
1.4138185e-05
1.4701321e-05
1.5345336e-05
1.6064766e-05
1.6872081e-05
1.7767289e-05
1.8763531e-05
1.9868757e-05
2.1098451e-05
2.2468165e-05
2.3998896e-05
2.571571e-05
2.7649905e-05
2.9840858e-05
3.2342194e-05
3.5229536e-05
3.8601694e-05
4.2572279e-05
4.7258262e-05
5.2775647e-05
5.9252696e-05
6.6867775e-05
7.5863112e-05
8.6755879e-05
9.969558e-05
0.00011501228
0.00013356297
0.00015598468
0.00018311986
0.00021613426
0.00025624481
0.00030515951
0.00036481667
0.00043771814
0.00052687948
0.00063606843
0.00076992716
0.00093424243
0.0011362383
0.0012124096
0.0012111554
0.0012098293
0.001208455
0.0012070174
0.0012054846
0.0012037737
0.0012016388
0.0011990372
0.0011963414
0.0011938076
0.0011915624
0.0011896231
0.001187937
0.0011863972
0.0011848319
0.0011830034
0.0011807581
0.0011782285
0.0011760079
0.0011740141
0.0011750354
0.0011714013
0.0011747009
1.2056727e-06
1.9213849e-05
1.46936e-05
1.6027381e-05
1.2874013e-05
1.3220454e-05
1.2487967e-05
1.201531e-05
1.1993604e-05
1.1459018e-05
1.1574183e-05
1.1332873e-05
1.1518431e-05
1.158093e-05
1.1864045e-05
1.2153578e-05
1.2556529e-05
1.3016103e-05
1.3551822e-05
1.4158251e-05
1.4836331e-05
1.5594846e-05
1.6436417e-05
1.7372543e-05
1.8411631e-05
1.9568045e-05
2.0856862e-05
2.2298255e-05
2.391725e-05
2.5745992e-05
2.7825726e-05
3.0211633e-05
3.2978182e-05
3.6217194e-05
4.0029392e-05
4.451548e-05
4.9776916e-05
5.5946374e-05
6.3227112e-05
7.1793913e-05
8.2164656e-05
9.4593125e-05
0.00010938453
0.00012714604
0.00014875837
0.00017487873
0.00020668103
0.00024533474
0.00029246232
0.00034994266
0.00042014951
0.00050596713
0.00061096543
0.00073953272
0.00089709911
0.0010903894
0.0012114523
0.0012101642
0.0012087983
0.0012073889
0.0012059256
0.0012043894
0.0012027381
0.0012008604
0.0011985113
0.0011959691
0.0011935122
0.0011912891
0.0011893253
0.0011875614
0.0011858629
0.0011840245
0.0011818398
0.0011792958
0.0011767777
0.0011747711
0.0011733979
0.0011742115
0.0011713478
0.0011743862
1.0606774e-06
1.8907292e-05
1.3291598e-05
1.4364541e-05
1.1700272e-05
1.1857675e-05
1.1421831e-05
1.0817624e-05
1.0939703e-05
1.036691e-05
1.0547525e-05
1.0305571e-05
1.0517688e-05
1.0579652e-05
1.0866414e-05
1.114415e-05
1.1534062e-05
1.1969685e-05
1.2479074e-05
1.3051369e-05
1.3692194e-05
1.4407625e-05
1.5202343e-05
1.6086507e-05
1.7068899e-05
1.8162915e-05
1.9383298e-05
2.0749746e-05
2.2287645e-05
2.4030411e-05
2.6021153e-05
2.831572e-05
3.0985426e-05
3.411282e-05
3.778488e-05
4.208896e-05
4.7123694e-05
5.3033183e-05
6.0016013e-05
6.8293315e-05
7.8269523e-05
9.0247939e-05
0.00010449689
0.00012167886
0.00014260845
0.0001679208
0.0001987195
0.00023617512
0.00028181898
0.00033748103
0.00040542419
0.0004884106
0.0005898356
0.00071385498
0.00086557778
0.0010512789
0.001210477
0.001209158
0.0012077516
0.0012063049
0.00120481
0.0012032548
0.0012016166
0.0011998424
0.0011977837
0.0011954203
0.0011930516
0.0011908506
0.0011888502
0.0011869781
0.0011850737
0.0011829334
0.0011804499
0.0011778005
0.0011754988
0.0011738609
0.0011730033
0.0011736209
0.001171369
0.0011741756
9.5227637e-07
1.4979113e-05
1.2238742e-05
1.2831261e-05
1.0723336e-05
1.0654341e-05
1.0498051e-05
9.7541607e-06
9.9818834e-06
9.3796776e-06
9.5981866e-06
9.3630118e-06
9.5865556e-06
9.65141e-06
9.9349392e-06
1.0202732e-05
1.0577856e-05
1.0991898e-05
1.1443171e-05
1.1979265e-05
1.2582204e-05
1.3255763e-05
1.4005653e-05
1.4840725e-05
1.5769743e-05
1.6805179e-05
1.7961452e-05
1.9257957e-05
2.0720483e-05
2.2383465e-05
2.4290971e-05
2.6497635e-05
2.9069466e-05
3.2078661e-05
3.5600118e-05
3.9714008e-05
4.452439e-05
5.0186904e-05
5.7255983e-05
6.5308789e-05
7.5004988e-05
8.6620966e-05
0.00010039985
0.00011713487
0.00013749233
0.00016215513
0.00019213479
0.00022861022
0.00027303877
0.00032719718
0.00039325798
0.0004738677
0.00057226748
0.00069240135
0.00083908929
0.0010182035
0.001209479
0.0012081347
0.0012066878
0.0012052028
0.0012036732
0.0012020903
0.0012004412
0.0011987027
0.0011968239
0.0011946692
0.0011924005
0.0011902209
0.0011881669
0.0011861534
0.0011840131
0.0011815979
0.001178955
0.0011764239
0.0011744896
0.0011732568
0.0011727703
0.0011731961
0.0011714116
0.001173957
8.5469516e-07
1.3925034e-05
1.1009977e-05
1.1408161e-05
9.912246e-06
9.5894194e-06
9.6832039e-06
8.8048135e-06
9.0985555e-06
8.4822401e-06
8.7135433e-06
8.4940466e-06
8.7164712e-06
8.7880002e-06
9.0322063e-06
9.2811485e-06
9.6345378e-06
1.0026155e-05
1.0485309e-05
1.0999304e-05
1.1576771e-05
1.2220957e-05
1.2938656e-05
1.3738227e-05
1.4628689e-05
1.5622177e-05
1.6733264e-05
1.7981611e-05
1.939369e-05
2.1004679e-05
2.2858692e-05
2.5007749e-05
2.7511968e-05
3.0434917e-05
3.3844486e-05
3.7820458e-05
4.2476414e-05
4.7978493e-05
5.4512329e-05
6.2348475e-05
7.1766803e-05
8.2974842e-05
9.7042657e-05
0.00011344181
0.00013333168
0.00015747683
0.00018681235
0.0002225033
0.00026596149
0.00031890274
0.00038342685
0.00046207304
0.00055794524
0.00067479656
0.00081718785
0.00099063374
0.0012017776
0.0012070926
0.0012056061
0.001204083
0.0012025174
0.0012009022
0.0011992284
0.0011974835
0.0011956477
0.0011936864
0.0011915318
0.0011893721
0.0011872478
0.0011850708
0.0011827065
0.0011801145
0.0011775092
0.0011752904
0.0011737817
0.0011728997
0.0011726453
0.0011728913
0.0011714965
0.0011737819
7.7625273e-07
1.2857457e-05
9.945841e-06
1.0119889e-05
9.2089187e-06
8.6272355e-06
8.9263866e-06
7.9379408e-06
8.2602492e-06
7.6529519e-06
7.8775992e-06
7.6844052e-06
7.8516603e-06
7.9208593e-06
8.1792402e-06
8.4334554e-06
8.7794707e-06
9.1609137e-06
9.6045341e-06
1.0099768e-05
1.065578e-05
1.1275858e-05
1.1967414e-05
1.2738605e-05
1.3598659e-05
1.4559717e-05
1.563679e-05
1.685003e-05
1.8226396e-05
1.9800959e-05
2.1616481e-05
2.3720968e-05
2.6168941e-05
2.9018388e-05
3.2335358e-05
3.620393e-05
4.0746105e-05
4.6133768e-05
5.2545171e-05
6.0247629e-05
6.9506201e-05
8.0472516e-05
9.3532518e-05
0.00010951131
0.00012892768
0.00015377738
0.00018263842
0.00021772927
0.00026044187
0.00031243058
0.00037573428
0.00045279659
0.00054659854
0.00066072327
0.00079950092
0.00096813107
0.0011728299
0.0012060313
0.0012045068
0.0012029467
0.0012013454
0.0011996963
0.0011979919
0.0011962233
0.0011943799
0.0011924486
0.0011904161
0.0011882805
0.0011860783
0.0011837448
0.0011812327
0.0011786266
0.0011762593
0.0011744635
0.0011733476
0.0011727207
0.0011725903
0.0011726739
0.0011716194
0.0011736898
7.1522174e-07
1.1825733e-05
9.0508984e-06
8.942319e-06
8.5694537e-06
7.7377735e-06
8.1897529e-06
7.1301123e-06
7.4494432e-06
6.876955e-06
7.0285781e-06
6.8479228e-06
7.0390046e-06
7.1378973e-06
7.3957605e-06
7.6548196e-06
7.9932818e-06
8.366502e-06
8.7971521e-06
9.2775281e-06
9.8165847e-06
1.0417969e-05
1.1089399e-05
1.183909e-05
1.267652e-05
1.361416e-05
1.4667697e-05
1.5857858e-05
1.7211634e-05
1.8762956e-05
2.0487674e-05
2.2542505e-05
2.4925939e-05
2.7693896e-05
3.0914464e-05
3.4677151e-05
3.9319623e-05
4.4632152e-05
5.0957643e-05
5.8560857e-05
6.7725595e-05
7.8528353e-05
9.1364601e-05
0.00010709375
0.00012629332
0.00014959731
0.00017792835
0.00021419119
0.00025636361
0.00030764585
0.00037002242
0.00044585474
0.0005380138
0.00064993341
0.00078573906
0.00095035458
0.0011496228
0.0012049514
0.001203391
0.0012017959
0.0012001603
0.0011984778
0.0011967411
0.0011949423
0.0011930723
0.0011911211
0.001189078
0.0011869315
0.0011846697
0.001182274
0.0011797197
0.001177286
0.0011753005
0.0011739376
0.0011731236
0.0011726563
0.0011725761
0.0011725168
0.0011717592
0.001173665
6.6635469e-07
1.0811372e-05
8.2505385e-06
7.867734e-06
7.9632083e-06
6.9100045e-06
7.4512916e-06
6.3721984e-06
6.6621774e-06
6.0618199e-06
6.2167091e-06
6.1032168e-06
6.296243e-06
6.4221252e-06
6.677728e-06
6.9415944e-06
7.2737083e-06
7.6411253e-06
8.0620383e-06
8.5317072e-06
9.0585087e-06
9.6465753e-06
1.0303739e-05
1.102268e-05
1.1839695e-05
1.2756371e-05
1.3788908e-05
1.4958191e-05
1.6290372e-05
1.7816844e-05
1.95734e-05
2.1600607e-05
2.39456e-05
2.6666124e-05
2.9835272e-05
3.3547838e-05
3.7935207e-05
4.3159367e-05
4.9376983e-05
5.6860707e-05
6.5909134e-05
7.708712e-05
8.9753723e-05
0.00010533091
0.00012440519
0.00014753172
0.00017565464
0.00020980862
0.00025362446
0.00030443044
0.00036615424
0.00044108864
0.00053200698
0.00064221336
0.0007756537
0.00093701284
0.0011318113
0.0012038547
0.0012022614
0.0012006339
0.0011989663
0.0011972523
0.0011954845
0.0011936551
0.0011917552
0.0011897745
0.0011877015
0.0011855233
0.0011832253
0.0011807921
0.0011783164
0.0011762088
0.0011746523
0.0011736507
0.0011730356
0.0011726561
0.0011725797
0.0011724004
0.0011718718
0.0011736228
6.2691964e-07
9.7669567e-06
7.5258972e-06
6.8947897e-06
7.3596579e-06
6.1372269e-06
6.6966067e-06
5.6183265e-06
5.7777899e-06
5.3243673e-06
5.4783664e-06
5.4274049e-06
5.6195678e-06
5.7696087e-06
6.0232426e-06
6.2922798e-06
6.6202753e-06
6.9846679e-06
7.3995485e-06
7.8628054e-06
8.3723176e-06
8.9490378e-06
9.5940498e-06
1.0315686e-05
1.1124483e-05
1.2033649e-05
1.3060127e-05
1.4224991e-05
1.5553371e-05
1.7074229e-05
1.8819997e-05
2.0828586e-05
2.3147505e-05
2.5838306e-05
2.8979075e-05
3.2668019e-05
3.703796e-05
4.2241255e-05
4.842448e-05
5.5892036e-05
6.4943571e-05
7.5465598e-05
8.7900225e-05
0.00010329709
0.00012320354
0.00014626326
0.00017430118
0.00020832938
0.00024967478
0.00030267156
0.00036399711
0.00043834154
0.00052839284
0.00063734354
0.00076898352
0.00092779192
0.0011190146
0.0012027445
0.0012011216
0.0011994649
0.0011977685
0.001196026
0.0011942299
0.0011923726
0.0011904446
0.0011884359
0.0011863347
0.0011841273
0.0011817989
0.0011793508
0.0011771484
0.0011754393
0.0011742664
0.0011735196
0.0011730205
0.0011726869
0.0011725891
0.0011723179
0.0011719353
0.0011735034
5.944796e-07
8.6850102e-06
6.8591276e-06
6.0123837e-06
6.7313701e-06
5.4137165e-06
5.9249204e-06
4.8410488e-06
4.9931106e-06
4.6612379e-06
4.8103614e-06
4.8157126e-06
5.0072293e-06
5.1786705e-06
5.4320599e-06
5.7070234e-06
6.0337894e-06
6.398174e-06
6.8029939e-06
7.2618647e-06
7.7760264e-06
8.3506062e-06
8.9931332e-06
9.712325e-06
1.0519268e-05
1.1427773e-05
1.2455256e-05
1.362268e-05
1.4953813e-05
1.6475386e-05
1.8217415e-05
2.021687e-05
2.2523278e-05
2.5202375e-05
2.8335572e-05
3.2024042e-05
3.6400896e-05
4.1604479e-05
4.778166e-05
5.5292723e-05
6.4378814e-05
7.4807117e-05
8.7156661e-05
0.00010260046
0.00012153855
0.00014445906
0.00017379237
0.00020783016
0.00024914673
0.00029924766
0.00036338676
0.00043741437
0.00052693029
0.00063503172
0.00076537303
0.00092225793
0.0011107005
0.0012016254
0.0011999768
0.0011982947
0.0011965733
0.0011948059
0.0011929855
0.0011911037
0.0011891519
0.0011871193
0.0011849946
0.0011827643
0.0011804034
0.0011781205
0.0011762787
0.0011749476
0.0011740584
0.0011734678
0.0011730342
0.00117273
0.0011726084
0.001172284
0.0011720342
0.0011733647
5.6787405e-07
7.6052784e-06
6.2398969e-06
5.2084238e-06
6.0571225e-06
4.7366531e-06
4.9855157e-06
4.1514716e-06
4.286138e-06
4.0670654e-06
4.2120376e-06
4.2662502e-06
4.459211e-06
4.6495308e-06
4.9051348e-06
5.1870946e-06
5.5096393e-06
5.8754606e-06
6.28854e-06
6.7504514e-06
7.2672597e-06
7.8445231e-06
8.4898613e-06
9.2123288e-06
1.0023451e-05
1.0937406e-05
1.197172e-05
1.3127589e-05
1.4458968e-05
1.5976988e-05
1.7710278e-05
1.9696014e-05
2.1985742e-05
2.4647699e-05
2.7764583e-05
3.1440252e-05
3.5805003e-05
4.0981455e-05
4.7141072e-05
5.504483e-05
6.4149124e-05
7.446525e-05
8.6830229e-05
0.00010242462
0.00012144535
0.000144481
0.00017244543
0.00020817754
0.00024959373
0.00029976845
0.00036048834
0.00043801513
0.00052726332
0.00063484457
0.00076429433
0.00091976789
0.001106089
0.0012005039
0.0011988337
0.0011971305
0.0011953883
0.0011936007
0.0011917602
0.0011898591
0.0011878879
0.0011858369
0.0011836952
0.0011814556
0.0011791293
0.0011771725
0.0011756944
0.0011746578
0.0011739466
0.0011734409
0.0011730455
0.00117277
0.0011726394
0.0011723018
0.0011721906
0.0011732786
5.4705267e-07
6.5282644e-06
5.6616252e-06
4.4737683e-06
5.3248602e-06
3.9760637e-06
4.1638299e-06
3.5423477e-06
3.6589351e-06
3.5388464e-06
3.6834654e-06
3.7786201e-06
3.9759059e-06
4.1830726e-06
4.4392361e-06
4.7279897e-06
5.0606747e-06
5.4336084e-06
5.8530322e-06
6.3217698e-06
6.8455991e-06
7.4303604e-06
8.0837131e-06
8.8149194e-06
9.6279418e-06
1.0549206e-05
1.1590431e-05
1.2771006e-05
1.4112539e-05
1.5639209e-05
1.738011e-05
1.9374076e-05
2.1674842e-05
2.4351728e-05
2.7488648e-05
3.1193392e-05
3.5592153e-05
4.0797203e-05
4.7027103e-05
5.469626e-05
6.3695775e-05
7.4383783e-05
8.6883777e-05
0.00010265431
0.00012179779
0.00014501305
0.00017315501
0.00020726623
0.00025078425
0.00030114197
0.00036199516
0.00043544916
0.00052888946
0.00063617502
0.00076501539
0.00091944325
0.0011041352
0.0011993881
0.0011977011
0.0011959814
0.0011942232
0.00119242
0.0011905648
0.0011886494
0.0011866649
0.001184601
0.0011824448
0.0011801785
0.0011781174
0.0011765063
0.0011753283
0.0011744868
0.0011738753
0.0011734117
0.0011730395
0.001172794
0.0011726699
0.0011723557
0.0011723839
0.0011732407
5.3317746e-07
5.4725762e-06
5.1120787e-06
3.8061222e-06
4.5543269e-06
3.2975578e-06
3.4339984e-06
3.0082945e-06
3.1138084e-06
3.0751878e-06
3.2245426e-06
3.3533416e-06
3.5576768e-06
3.7762521e-06
4.0429967e-06
4.34266e-06
4.6839687e-06
5.0664503e-06
5.4954787e-06
5.9746932e-06
6.5096795e-06
7.1064378e-06
7.7687799e-06
8.511749e-06
9.3443849e-06
1.0280496e-05
1.1336359e-05
1.2530631e-05
1.3884593e-05
1.5422947e-05
1.7176402e-05
1.9185881e-05
2.1506355e-05
2.4206491e-05
2.7372074e-05
3.111546e-05
3.5553693e-05
4.0793737e-05
4.7117055e-05
5.4897484e-05
6.3835294e-05
7.3951143e-05
8.7178845e-05
0.00010313644
0.00012244872
0.00014588235
0.00017424654
0.00020860103
0.00025242393
0.00030301421
0.00036405739
0.00043762327
0.00053118081
0.00063827338
0.00076664733
0.00092023866
0.0011036262
0.0011982876
0.0011965886
0.0011948574
0.0011930884
0.0011912751
0.0011894107
0.0011874871
0.0011854959
0.0011834282
0.0011812749
0.0011791123
0.001177377
0.0011760662
0.0011750993
0.0011743744
0.0011738176
0.0011733768
0.0011730229
0.0011728011
0.001172667
0.0011723617
0.0011724701
0.0011732409
5.2877921e-07
4.4703096e-06
4.5699593e-06
3.1854447e-06
4.1064551e-06
2.7399672e-06
2.8064957e-06
2.5429371e-06
2.6516565e-06
2.6771556e-06
2.8348481e-06
2.9913696e-06
3.2014437e-06
3.4377966e-06
3.7147044e-06
4.0259626e-06
4.3779549e-06
4.7722483e-06
5.2137369e-06
5.7065707e-06
6.2561904e-06
6.8662983e-06
7.5478201e-06
8.3082949e-06
9.1587555e-06
1.0112431e-05
1.1184854e-05
1.2394189e-05
1.3761865e-05
1.5313855e-05
1.7082969e-05
1.9112168e-05
2.1456382e-05
2.4183481e-05
2.738302e-05
3.1169272e-05
3.5640482e-05
4.0919217e-05
4.7377744e-05
5.5263452e-05
6.406841e-05
7.4672604e-05
8.7594694e-05
0.00010376377
0.00012326202
0.00014691818
0.00017551124
0.00021010553
0.00025418785
0.00030499519
0.00036621186
0.00043987196
0.00053347207
0.00064036162
0.00076828734
0.00092111986
0.001103402
0.0011972135
0.0011955078
0.0011937705
0.0011919961
0.0011901786
0.0011883109
0.0011863854
0.0011843931
0.0011823245
0.0011801711
0.0011783064
0.0011768653
0.0011757765
0.0011749426
0.0011742871
0.0011737653
0.0011733427
0.0011730093
0.0011728073
0.0011726655
0.001172388
0.0011725456
0.001173236
5.372622e-07
3.8099522e-06
4.0103355e-06
3.5430693e-06
3.6144938e-06
2.1930563e-06
2.3103507e-06
2.1520533e-06
2.2689217e-06
2.3465726e-06
2.5136236e-06
2.6907861e-06
2.9134764e-06
3.1640982e-06
3.4519934e-06
3.7755739e-06
4.1399106e-06
4.5477903e-06
5.0038416e-06
5.5124967e-06
6.077934e-06
6.7077614e-06
7.4083761e-06
8.1883729e-06
9.0582302e-06
1.0030492e-05
1.1120006e-05
1.2344679e-05
1.3726484e-05
1.5292967e-05
1.7079027e-05
1.9128925e-05
2.1496978e-05
2.4252091e-05
2.7488804e-05
3.1313441e-05
3.5805553e-05
4.1154939e-05
4.780536e-05
5.5662997e-05
6.4625367e-05
7.4845542e-05
8.813129e-05
0.00010445504
0.00012412379
0.00014795361
0.00017674369
0.0002115294
0.00025576834
0.00030672449
0.00036803901
0.00044171071
0.00053519247
0.00064179076
0.00076920595
0.00092128388
0.0011026125
0.0011961781
0.0011944713
0.0011927334
0.0011909597
0.0011891439
0.00118728
0.0011853603
0.001183377
0.0011813202
0.0011793089
0.0011777286
0.0011765141
0.0011755708
0.0011748183
0.001174209
0.0011737151
0.0011733116
0.0011729989
0.0011728073
0.0011726522
0.0011724031
0.0011725762
0.001173137
5.599625e-07
4.0074528e-06
3.5678879e-06
2.4225984e-06
2.2597657e-06
1.8330405e-06
1.8835554e-06
1.8444948e-06
1.9632023e-06
2.0809467e-06
2.2577523e-06
2.4535063e-06
2.6873673e-06
2.9511052e-06
3.2507939e-06
3.5873904e-06
3.9652603e-06
4.3878237e-06
4.859572e-06
5.3850625e-06
5.9694841e-06
6.6175022e-06
7.3375762e-06
8.1371486e-06
9.0260957e-06
1.0016299e-05
1.1122231e-05
1.23618e-05
1.3757743e-05
1.5338815e-05
1.7141374e-05
1.9210173e-05
2.1599594e-05
2.4381704e-05
2.7652779e-05
3.1500865e-05
3.6014411e-05
4.1700938e-05
4.8521183e-05
5.6195828e-05
6.4594487e-05
7.5123969e-05
8.8662664e-05
0.00010504236
0.00012486994
0.00014881861
0.00017775555
0.00021453278
0.00025691862
0.00030792491
0.00036922545
0.0004427879
0.0005359326
0.00064210915
0.0007689157
0.00092022626
0.0011007717
0.0011951949
0.0011934928
0.0011917606
0.0011899935
0.0011881862
0.0011863324
0.001184425
0.0011824558
0.0011804157
0.0011786725
0.0011773184
0.0011762578
0.0011754052
0.0011747062
0.0011741327
0.0011736643
0.0011732823
0.0011729909
0.001172805
0.0011726353
0.0011724193
0.0011726017
0.0011730384
4.6115979e-07
3.1909655e-06
2.6295013e-06
1.7714245e-06
1.7636071e-06
1.5071886e-06
1.5623426e-06
1.5933732e-06
1.725631e-06
1.8708884e-06
2.0592737e-06
2.2708815e-06
2.5162941e-06
2.7927999e-06
3.1049193e-06
3.4548481e-06
3.8465827e-06
4.2838269e-06
4.7709547e-06
5.3125475e-06
5.9136829e-06
6.5799928e-06
7.3180304e-06
8.1356255e-06
9.042302e-06
1.0049727e-05
1.1172388e-05
1.2428626e-05
1.3841878e-05
1.5442059e-05
1.7266708e-05
1.9360726e-05
2.1779683e-05
2.4600845e-05
2.7914809e-05
3.1790067e-05
3.6365886e-05
4.2017239e-05
4.8813964e-05
5.6155805e-05
6.4490058e-05
7.5335268e-05
8.9012289e-05
0.00010546345
0.00012538296
0.00015066278
0.00017987551
0.00021507021
0.00025743859
0.00030837032
0.00036951551
0.00044699612
0.00053535392
0.00064094405
0.00076701426
0.00091752752
0.0010974747
0.0011942766
0.0011925858
0.0011908658
0.0011891123
0.0011873208
0.0011854862
0.0011836035
0.0011816664
0.0011797323
0.0011782109
0.0011770145
0.0011760512
0.0011752577
0.0011745993
0.0011740567
0.0011736132
0.0011732541
0.0011729837
0.0011728033
0.0011726297
0.0011724471
0.0011726132
0.0011729221
3.4815496e-07
1.888186e-06
2.013712e-06
1.4029316e-06
1.3771293e-06
1.2506347e-06
1.3222254e-06
1.4017897e-06
1.548039e-06
1.7134807e-06
1.9131148e-06
2.1382991e-06
2.3950237e-06
2.6836148e-06
3.0077681e-06
3.3702209e-06
3.7747227e-06
4.2250705e-06
4.7255417e-06
5.2806892e-06
5.8955113e-06
6.5755322e-06
7.3271261e-06
8.1578982e-06
9.0771328e-06
1.0096323e-05
1.1229877e-05
1.2496178e-05
1.3918901e-05
1.552828e-05
1.7361267e-05
1.9462335e-05
2.1890599e-05
2.47252e-05
2.8038978e-05
3.1901005e-05
3.6547503e-05
4.2318837e-05
4.8866604e-05
5.581509e-05
6.4316824e-05
7.6063301e-05
8.9874479e-05
0.00010647742
0.00012654171
0.00015072788
0.00017988647
0.00021499542
0.00025722503
0.00030794789
0.00037214924
0.00044552376
0.00053326317
0.00063807906
0.000763264
0.00091294168
0.0010925015
0.0011934318
0.0011917599
0.0011900594
0.0011883259
0.0011865547
0.0011847409
0.001182879
0.0011809629
0.0011792331
0.0011778693
0.0011767731
0.0011758714
0.0011751204
0.0011744957
0.0011739817
0.0011735632
0.0011732275
0.0011729763
0.0011728014
0.0011726331
0.0011724853
0.0011726258
0.0011728206
2.7507581e-07
1.4521295e-06
1.489404e-06
1.1260787e-06
1.097746e-06
1.0602957e-06
1.1495178e-06
1.2634765e-06
1.4225732e-06
1.6040874e-06
1.8150544e-06
2.0528606e-06
2.3212761e-06
2.6219426e-06
2.9580898e-06
3.3325954e-06
3.7491562e-06
4.211532e-06
4.7239267e-06
5.2908918e-06
5.9174083e-06
6.6089859e-06
7.3719655e-06
8.2139005e-06
9.1440427e-06
1.0173906e-05
1.1317927e-05
1.2594447e-05
1.4027018e-05
1.564526e-05
1.7485235e-05
1.9592584e-05
2.2030912e-05
2.4872121e-05
2.8264986e-05
3.2160427e-05
3.6955821e-05
4.2706615e-05
4.885705e-05
5.5714042e-05
6.4658578e-05
7.6060275e-05
8.9772568e-05
0.00010634801
0.00012631422
0.000150394
0.00017939132
0.00021619802
0.00025844035
0.00030912592
0.00036985895
0.00044253985
0.00052943241
0.00063327598
0.00075747518
0.00090643555
0.0010861389
0.0011926568
0.0011910145
0.0011893452
0.0011876447
0.0011859088
0.0011841329
0.0011823125
0.0011804428
0.0011788688
0.001177605
0.0011765696
0.0011757082
0.0011749889
0.0011743918
0.0011739027
0.0011735066
0.0011731915
0.0011729561
0.0011727862
0.0011726296
0.0011725157
0.0011726298
0.0011727448
1.9918223e-07
1.1231415e-06
1.0959367e-06
9.1582002e-07
8.9987485e-07
9.2235018e-07
1.0263686e-06
1.162261e-06
1.3302971e-06
1.5220239e-06
1.7402357e-06
1.9853383e-06
2.2599944e-06
2.5663932e-06
2.9074147e-06
3.2860704e-06
3.7058389e-06
4.1705265e-06
4.684281e-06
5.2516143e-06
5.8774877e-06
6.5674128e-06
7.3277304e-06
8.1660639e-06
9.0917554e-06
1.0116351e-05
1.1254157e-05
1.2523225e-05
1.3946589e-05
1.5552853e-05
1.7377339e-05
1.9468554e-05
2.1890125e-05
2.469445e-05
2.7938041e-05
3.183317e-05
3.6645402e-05
4.204927e-05
4.7727555e-05
5.4661454e-05
6.3830763e-05
7.5091672e-05
8.9279306e-05
0.00010572166
0.00012552712
0.00014940006
0.00017814342
0.00021272191
0.00025426869
0.00030412478
0.00036387476
0.00043540493
0.00052098634
0.00062341589
0.00074626101
0.00089428091
0.0010741186
0.0011920215
0.0011904141
0.001188782
0.0011871213
0.0011854281
0.0011836983
0.0011819274
0.0011801113
0.0011786161
0.0011773993
0.0011763947
0.0011755578
0.0011748602
0.0011742835
0.0011738127
0.0011734327
0.0011731316
0.0011729048