/*--------------------------------*- C++ -*----------------------------------*\
  =========                 |
  \\      /  F ield         | OpenFOAM: The Open Source CFD Toolbox
   \\    /   O peration     | Website:  https://openfoam.org
    \\  /    A nd           | Version:  6
     \\/     M anipulation  |
\*---------------------------------------------------------------------------*/
FoamFile
{
    version     2.0;
    format      ascii;
    class       volScalarField;
    location    "50";
    object      k;
}
// * * * * * * * * * * * * * * * * * * * * * * * * * * * * * * * * * * * * * //

dimensions      [0 2 -2 0 0 0 0];

internalField   nonuniform List<scalar> 
16000
(
0.079625117
0.026839216
0.023080561
0.018128368
0.016535416
0.014825155
0.013825818
0.01310826
0.012604324
0.012255935
0.011992412
0.011794027
0.011637794
0.011513903
0.011413416
0.011330947
0.011262341
0.011204574
0.01115541
0.011113116
0.011076409
0.011044263
0.011015888
0.010990649
0.010968041
0.010947651
0.010929143
0.010912236
0.010896697
0.010882339
0.01086897
0.010856392
0.010843968
0.010832268
0.01082081
0.010809847
0.010799535
0.010789681
0.010780221
0.010771174
0.010762378
0.010753654
0.010744897
0.010736128
0.010727396
0.010718671
0.010709908
0.010701061
0.010692091
0.010682956
0.010673618
0.010664035
0.010654167
0.010643961
0.010633346
0.010622196
0.010610276
0.010597138
0.010581763
0.010561416
0.010528634
0.0104843
0.0104329
0.010379479
0.010328548
0.010283301
0.010245352
0.010215027
0.010191649
0.0101748
0.01016227
0.010155471
0.010148715
0.010154115
0.010150886
0.010185767
0.010142812
0.010197553
0.010066296
0.010162919
0.072363596
0.026856836
0.022826437
0.017821231
0.016077258
0.014536994
0.013558696
0.012908342
0.012446649
0.012128454
0.01188649
0.011704604
0.011561023
0.011447185
0.011354735
0.011278819
0.011215597
0.01116231
0.011116903
0.011077786
0.011043784
0.011013956
0.010987577
0.010964065
0.010942957
0.010923875
0.010906505
0.010890593
0.010875922
0.010862318
0.010849636
0.01083775
0.010826533
0.010815818
0.010804999
0.010794536
0.0107841
0.010774286
0.010764871
0.01075583
0.010747029
0.01073829
0.010729472
0.010720587
0.010711715
0.010702832
0.010693893
0.010684857
0.010675688
0.010666346
0.010656795
0.010646996
0.01063691
0.010626491
0.010615681
0.010604382
0.010592418
0.010579482
0.010564929
0.010547076
0.010520851
0.010481628
0.010433855
0.010382726
0.010333039
0.010288338
0.010250534
0.010220121
0.010196539
0.0101792
0.010166264
0.010158806
0.010151639
0.010154863
0.010148906
0.010172228
0.010127974
0.010174874
0.010053584
0.010134831
0.065940591
0.027113905
0.022497063
0.017492653
0.015703823
0.014223729
0.013310671
0.012722037
0.012299599
0.012009389
0.011787542
0.011621042
0.011489286
0.011384853
0.011299924
0.011230147
0.01117197
0.011122884
0.011081001
0.011044866
0.011013402
0.010985749
0.010961244
0.010939352
0.01091965
0.010901791
0.010885489
0.010870508
0.010856649
0.010843752
0.01083168
0.010820323
0.010809583
0.010799356
0.010789539
0.010779807
0.010769957
0.010759984
0.010750467
0.010741403
0.010732564
0.010723769
0.010714859
0.010705825
0.010696775
0.010687697
0.010678548
0.010669288
0.010659885
0.0106503
0.010640501
0.010630449
0.010620109
0.010609438
0.010598384
0.01058687
0.010574762
0.010561832
0.01054767
0.010531294
0.010509927
0.010476358
0.010432703
0.010384275
0.010336144
0.010292206
0.010254683
0.010224259
0.01020049
0.010182687
0.010169249
0.010160619
0.010153057
0.0101534
0.010145009
0.010156948
0.010111673
0.01015199
0.010042423
0.01011231
0.06024246
0.027548561
0.02243115
0.017217188
0.015374939
0.013922964
0.013080655
0.012548539
0.01216261
0.01189829
0.011695211
0.011543025
0.011422306
0.011326645
0.011248738
0.011184693
0.011131225
0.011086062
0.011047469
0.011014117
0.010985022
0.010959398
0.010936639
0.010916256
0.010897862
0.010881139
0.010865826
0.010851704
0.010838592
0.010826339
0.010814822
0.010803938
0.0107936
0.010783728
0.010774235
0.010765037
0.010755992
0.010746498
0.010736797
0.010727595
0.010718713
0.010709835
0.010700803
0.010691597
0.010682341
0.01067304
0.010663655
0.010654144
0.010644483
0.01063463
0.010624557
0.010614227
0.010603606
0.010592655
0.010581326
0.010569553
0.010557231
0.010544184
0.010530132
0.010514465
0.010495527
0.010468228
0.010429244
0.010383987
0.010337781
0.010294875
0.010257816
0.010227492
0.010203591
0.010185362
0.010171433
0.010161747
0.010153419
0.010149827
0.010137511
0.010136695
0.010092454
0.010128739
0.010032366
0.010085225
0.055181406
0.028085989
0.021904567
0.016958156
0.014927734
0.01367947
0.012868149
0.012387579
0.012035512
0.01179504
0.011609426
0.011470507
0.011360064
0.011272561
0.011201193
0.011142488
0.011093407
0.0110519
0.011016373
0.010985616
0.010958729
0.010934995
0.010913861
0.010894881
0.010877699
0.010862026
0.010847622
0.010834288
0.010821854
0.010810184
0.010799161
0.010788691
0.010778694
0.010769099
0.010759838
0.010750844
0.010742033
0.010733266
0.010724019
0.010714466
0.010705473
0.010696513
0.010687321
0.01067791
0.01066842
0.010658865
0.010649216
0.010639427
0.010629479
0.010619332
0.010608959
0.010598324
0.010587396
0.010576135
0.010564499
0.01055243
0.010539841
0.01052659
0.010512475
0.010497116
0.010479556
0.010457028
0.01042327
0.010381648
0.010337725
0.01029611
0.01025968
0.010229552
0.010205552
0.010186913
0.010172408
0.010161473
0.010151508
0.01014286
0.010125324
0.010112882
0.010071859
0.010104914
0.010024653
0.010070369
0.050672587
0.028653361
0.021311599
0.016653998
0.014517364
0.013408305
0.012672622
0.012238749
0.011917961
0.011699354
0.011529945
0.011403277
0.011302379
0.011222438
0.011157148
0.0111034
0.0110584
0.011020291
0.010987614
0.010959269
0.010934433
0.010912454
0.010892825
0.010875141
0.010859076
0.010844367
0.010830793
0.010818172
0.010806349
0.010795196
0.010784606
0.010774492
0.010764782
0.010755409
0.010746314
0.010737441
0.010728732
0.010720104
0.010711433
0.010702079
0.010692721
0.010683676
0.010674315
0.010664662
0.010654916
0.010645078
0.010635139
0.010625049
0.010614791
0.010604326
0.01059363
0.010582669
0.01057141
0.010559817
0.010547849
0.010535452
0.010522554
0.010509037
0.010494746
0.010479429
0.010462516
0.01044246
0.010414539
0.010377058
0.010335807
0.010295755
0.010260126
0.010230281
0.010206193
0.010187109
0.010171842
0.01015925
0.010146526
0.01013173
0.010108509
0.010087177
0.010051792
0.010080013
0.010020332
0.010060025
0.046644974
0.029243884
0.02057067
0.016157465
0.014146328
0.013159872
0.012493227
0.01210147
0.011809532
0.011610926
0.011456532
0.011341153
0.011249108
0.011176164
0.011116513
0.011067365
0.011026151
0.010991196
0.010961164
0.010935056
0.010912121
0.010891764
0.010873525
0.010857033
0.010841991
0.010828159
0.010815334
0.01080335
0.010792065
0.01078136
0.010771138
0.010761318
0.010751834
0.010742626
0.010733642
0.010724829
0.010716142
0.010707521
0.010698882
0.01069004
0.010680424
0.01067125
0.010661737
0.010651802
0.010641774
0.010631629
0.010621376
0.010610961
0.01060037
0.010589568
0.010578529
0.01056722
0.010555611
0.010543664
0.010531341
0.010518593
0.010505352
0.010491522
0.010476974
0.010461537
0.010444863
0.010426093
0.010402773
0.010369977
0.010331807
0.010293604
0.01025894
0.01022945
0.010205257
0.010185619
0.01016924
0.010154299
0.010137538
0.010116062
0.010087902
0.010061874
0.010034084
0.010057309
0.01001579
0.010050324
0.043036938
0.029866729
0.019718129
0.015664692
0.01381085
0.012932597
0.012328792
0.011975045
0.011709719
0.01152939
0.0113889
0.011283914
0.011200075
0.011133598
0.011079175
0.011034287
0.010996583
0.01096455
0.010936968
0.010912929
0.010891748
0.010872886
0.010855923
0.010840519
0.010826404
0.010813359
0.0108012
0.010789774
0.010778951
0.010768623
0.0107587
0.010749107
0.010739786
0.010730684
0.010721751
0.010712944
0.01070422
0.010695538
0.010686839
0.010677998
0.010668752
0.010659164
0.010649505
0.010639263
0.010628922
0.010618449
0.010607858
0.0105971
0.010586158
0.010575001
0.010563601
0.010551929
0.010539952
0.010527635
0.010514939
0.010501817
0.010488209
0.010474028
0.010459168
0.010443501
0.010426805
0.010408598
0.010387625
0.010360121
0.010325476
0.010289424
0.01025589
0.010226806
0.010202446
0.010182043
0.010164017
0.010145844
0.010124034
0.0100964
0.010065401
0.010039238
0.010020346
0.010040629
0.010013793
0.010045462
0.039791736
0.030315497
0.018814858
0.015179961
0.013507666
0.012725061
0.012178418
0.011858894
0.011618071
0.011454419
0.011326788
0.011231361
0.01115512
0.011094616
0.011045036
0.011004088
0.010969635
0.010940303
0.010914985
0.010892854
0.010873287
0.010855794
0.010839991
0.01082557
0.010812285
0.010799935
0.010788354
0.010777402
0.010766961
0.010756933
0.010747235
0.0107378
0.010728575
0.010719512
0.01071057
0.010701709
0.010692893
0.010684091
0.010675251
0.010666312
0.010657234
0.010647321
0.010637528
0.010626973
0.010616292
0.010605475
0.010594529
0.010583411
0.010572104
0.010560577
0.010548803
0.010536754
0.010524396
0.010511696
0.010498613
0.010485102
0.010471105
0.010456547
0.010441332
0.010425359
0.010408481
0.010390416
0.010370532
0.010347141
0.010316514
0.010282943
0.010250696
0.010222043
0.010197395
0.010175879
0.010155508
0.010133259
0.010106138
0.010074148
0.010043345
0.01002085
0.010010585
0.010028803
0.010011639
0.010039949
0.036862675
0.030199566
0.017910089
0.014733155
0.013233993
0.012535771
0.012041129
0.011752395
0.011534111
0.011385677
0.011269929
0.011183297
0.011114086
0.0110591
0.011014001
0.010976697
0.010945249
0.01091841
0.010895176
0.010874797
0.010856704
0.010840452
0.010825694
0.010812149
0.010799591
0.01078784
0.010776744
0.010766177
0.010756032
0.010746221
0.01073667
0.010727317
0.010718117
0.010709028
0.010700015
0.010691042
0.01068208
0.0106731
0.010664061
0.010654936
0.010645642
0.010635741
0.01062574
0.010614865
0.010603823
0.010592647
0.010581331
0.010569841
0.010558157
0.01054625
0.010534094
0.010521658
0.010508911
0.010495818
0.010482337
0.010468425
0.010454026
0.01043907
0.01042347
0.010407141
0.010389973
0.010371793
0.010352267
0.010330607
0.010304558
0.010273837
0.010243037
0.01021481
0.010189677
0.010166581
0.01014315
0.010116404
0.010084866
0.010051425
0.010023927
0.010007291
0.010004097
0.010020314
0.010010339
0.01003581
0.034216655
0.029008858
0.017092766
0.014331531
0.012986776
0.01236308
0.011915892
0.011654898
0.011457364
0.011322838
0.011218073
0.011139542
0.011076837
0.011026948
0.010985995
0.010952053
0.010923378
0.010898833
0.010877508
0.010858725
0.010841966
0.010826828
0.010812993
0.010800209
0.010788271
0.010777014
0.010766304
0.010756025
0.010746085
0.010736404
0.010726916
0.010717568
0.01070832
0.010699136
0.010689988
0.010680847
0.010671686
0.01066248
0.010653205
0.010643842
0.010634268
0.010624388
0.01061408
0.010602873
0.010591454
0.010579906
0.010568211
0.010556341
0.010544274
0.010531983
0.010519439
0.010506612
0.010493471
0.010479979
0.010466096
0.010451776
0.010436965
0.010421598
0.010405592
0.010388871
0.010371347
0.0103529
0.010333346
0.010312352
0.010289165
0.010261734
0.010232547
0.010204719
0.01017884
0.010153661
0.01012672
0.010095895
0.010062066
0.010030522
0.010008592
0.0099982119
0.0099999633
0.010014129
0.01000905
0.01003138
0.031834764
0.027229288
0.016373602
0.013968753
0.012763097
0.012205407
0.011801725
0.011565792
0.011387392
0.011265612
0.011171001
0.011099945
0.01104326
0.01099808
0.010960954
0.010930112
0.010903986
0.010881539
0.010861949
0.010844604
0.010829035
0.010814874
0.010801835
0.01078969
0.010778254
0.01076738
0.010756948
0.010746856
0.010737022
0.010727378
0.010717866
0.010708442
0.010699072
0.010689727
0.010680382
0.010671017
0.01066161
0.010652136
0.010642584
0.010632938
0.010623083
0.010613148
0.010602468
0.010590926
0.010579127
0.0105672
0.010555124
0.010542872
0.010530421
0.010517743
0.010504811
0.010491594
0.010478058
0.010464167
0.010449879
0.01043515
0.010419924
0.010404138
0.010387715
0.010370582
0.01035266
0.010333853
0.01031404
0.010293049
0.010270604
0.010246204
0.010218826
0.01019137
0.010164482
0.010136884
0.010106626
0.010073229
0.010040078
0.0100133
0.0099977863
0.0099927041
0.0099973774
0.01000954
0.010008135
0.010027532
0.029696729
0.025534221
0.015737587
0.013640012
0.012560544
0.012061439
0.011697766
0.011484553
0.011323815
0.011213751
0.011128532
0.011064384
0.011013264
0.010972432
0.010938833
0.010910837
0.010887039
0.010866495
0.010848465
0.010832396
0.010817862
0.010804533
0.010792151
0.010780512
0.010769451
0.010758838
0.010748567
0.010738552
0.010728721
0.010719018
0.010709395
0.010699814
0.010690249
0.010680677
0.01067108
0.010661442
0.010651745
0.010641968
0.010632105
0.010622144
0.010611983
0.010601815
0.010590847
0.010578967
0.010566792
0.010554485
0.010542032
0.0105294
0.01051657
0.010503511
0.010490196
0.010476592
0.010462666
0.010448379
0.010433691
0.010418555
0.010402916
0.010386711
0.010369868
0.010352313
0.010333972
0.01031476
0.010294576
0.010273305
0.010250808
0.010226917
0.010201458
0.01017442
0.010146408
0.010116508
0.010084092
0.010050576
0.010021099
0.010000705
0.0099910665
0.0099897143
0.0099957622
0.010006048
0.010007573
0.010024858
0.027774307
0.023919588
0.015174472
0.013341906
0.012377175
0.011930152
0.011603302
0.01141076
0.01126633
0.011167066
0.011090528
0.01103277
0.010986786
0.010949962
0.010919603
0.010894203
0.010872511
0.010853668
0.01083701
0.01082204
0.010808375
0.010795717
0.01078384
0.010772561
0.010761736
0.010751253
0.010741021
0.010730968
0.010721034
0.010711175
0.010701354
0.01069154
0.010681713
0.010671858
0.010661959
0.010652007
0.010641986
0.01063188
0.010621686
0.010611385
0.010600886
0.010590395
0.010579211
0.010566955
0.010554412
0.010541732
0.010528909
0.010515908
0.010502707
0.010489276
0.010475587
0.010461606
0.010447299
0.010432626
0.010417546
0.01040201
0.010385965
0.010369349
0.010352089
0.010334114
0.01031535
0.010295714
0.010275113
0.010253445
0.010230595
0.010206438
0.010180846
0.010153687
0.010124824
0.010094049
0.010061075
0.010030239
0.010006548
0.0099926209
0.00998745
0.0099882886
0.0099946837
0.010003236
0.010007065
0.010023157
0.02604309
0.022383626
0.014674909
0.013071254
0.012211151
0.011810583
0.011517673
0.011344035
0.011214675
0.011125399
0.011056884
0.011005039
0.010963795
0.010930651
0.010903242
0.010880182
0.01086036
0.010843001
0.010827511
0.010813444
0.010800462
0.0107883
0.010776759
0.01076568
0.010754942
0.01074445
0.01073413
0.010723924
0.010713785
0.010703679
0.010693579
0.010683463
0.010673318
0.010663132
0.010652895
0.0106426
0.010632235
0.010621784
0.010611249
0.010600607
0.010589765
0.010578964
0.01056751
0.01055486
0.01054196
0.010528921
0.010515743
0.010502386
0.01048883
0.010475042
0.010460994
0.01044665
0.010431976
0.010416931
0.010401472
0.010385551
0.010369113
0.010352097
0.010334432
0.010316048
0.010296869
0.010276815
0.010255793
0.010233703
0.010210432
0.010185855
0.010159838
0.010132226
0.010102854
0.010071558
0.010039829
0.010013948
0.0099966978
0.0099881113
0.0099858123
0.009987685
0.0099938014
0.010000792
0.010005997
0.010021209
0.024482139
0.020919015
0.014230756
0.012825382
0.012060859
0.011701912
0.011440321
0.011284068
0.011168649
0.011088634
0.011027551
0.010981176
0.010944273
0.010914478
0.010889715
0.010868722
0.010850515
0.010834399
0.010819849
0.010806469
0.010793963
0.010782101
0.010770712
0.010759665
0.010748858
0.010738217
0.010727683
0.010717214
0.010706775
0.010696342
0.010685897
0.010675427
0.010664921
0.010654373
0.010643775
0.010633121
0.010622403
0.010611606
0.010600737
0.010589752
0.010578569
0.010567487
0.010555717
0.010542666
0.010529427
0.01051605
0.010502535
0.010488844
0.010474953
0.010460828
0.01044644
0.010431753
0.01041673
0.010401332
0.010385512
0.010369224
0.010352413
0.010335017
0.010316967
0.010298193
0.010278621
0.010258168
0.010236745
0.01021425
0.010190572
0.010165587
0.010139157
0.010111124
0.010081313
0.010049815
0.010022242
0.010002354
0.0099907973
0.0099859126
0.0099852061
0.0099874298
0.00999294
0.0099986024
0.010004109
0.010018108
0.023071859
0.01956186
0.013835572
0.012602272
0.011924985
0.011603515
0.011370828
0.011230643
0.011128126
0.011056757
0.011002526
0.010961175
0.010928206
0.010901405
0.010878961
0.010859731
0.010842853
0.010827708
0.01081384
0.010800903
0.010788645
0.010776873
0.010765445
0.010754256
0.010743227
0.010732302
0.010721441
0.010710612
0.010699795
0.010688974
0.010678137
0.010667277
0.010656388
0.010645464
0.010634501
0.010623492
0.010612424
0.010601294
0.010590105
0.010578789
0.010567293
0.010555989
0.010543819
0.010530378
0.010516823
0.010503134
0.010489308
0.010475307
0.010461105
0.010446669
0.010431965
0.010416959
0.010401612
0.010385883
0.010369728
0.010353097
0.010335936
0.010318186
0.010299778
0.010280643
0.010260707
0.010239889
0.010218099
0.010195238
0.010171196
0.010145849
0.010119066
0.010090687
0.010060385
0.0100314
0.010009248
0.0099949906
0.0099875788
0.009984883
0.0099849703
0.0099872775
0.0099921819
0.0099969229
0.010002747
0.010014765
0.021795779
0.018389536
0.013483633
0.012400402
0.011802533
0.011514934
0.011308916
0.011183677
0.011093129
0.011029792
0.01098182
0.010945027
0.010915551
0.010891352
0.010870857
0.010853044
0.010837166
0.010822685
0.010809209
0.010796451
0.0107842
0.0107723
0.010760641
0.010749145
0.010737754
0.01072643
0.010715148
0.01070389
0.010692641
0.010681395
0.010670145
0.010658885
0.010647612
0.01063632
0.010625004
0.010613656
0.010602262
0.010590825
0.010579337
0.010567708
0.010555972
0.010544479
0.010531799
0.010518018
0.010504175
0.010490207
0.010476101
0.010461821
0.010447338
0.010432619
0.010417629
0.010402332
0.01038669
0.01037066
0.010354197
0.010337254
0.010319776
0.010301704
0.010282972
0.010263512
0.010243252
0.010222111
0.010200002
0.010176827
0.010152478
0.010126835
0.010099778
0.010071247
0.010041456
0.010017372
0.010000639
0.0099907042
0.0099858182
0.0099842234
0.0099846645
0.0099870371
0.0099915777
0.0099958474
0.010002284
0.010012265
0.020638897
0.017370752
0.013169998
0.012218109
0.011692735
0.011435835
0.011254397
0.011143214
0.011063697
0.011007758
0.010965421
0.010932667
0.010906189
0.010884142
0.010865168
0.010848375
0.010833125
0.010818967
0.010805577
0.01079272
0.010780233
0.010767998
0.010755935
0.010743989
0.010732126
0.010720321
0.01070856
0.010696833
0.010685133
0.010673457
0.010661799
0.010650155
0.010638519
0.010626887
0.010615249
0.010603595
0.01059191
0.0105802
0.010568438
0.010556534
0.010544648
0.010532872
0.010519665
0.010505631
0.010491537
0.010477327
0.010462975
0.010448451
0.010433722
0.010418754
0.010403512
0.010387958
0.010372054
0.010355757
0.010339023
0.010321802
0.010304044
0.01028569
0.010266676
0.010246936
0.0102264
0.010204989
0.010182619
0.010159192
0.010134605
0.010108735
0.010081425
0.010052448
0.010026646
0.010007713
0.0099954
0.0099882586
0.0099846927
0.009983544
0.0099840897
0.0099865428
0.0099909765
0.0099952489
0.01000241
0.010010498
0.019587351
0.01648196
0.012890961
0.01205441
0.011594896
0.011366018
0.011207366
0.011109335
0.011039877
0.010990637
0.010953238
0.010923919
0.010899867
0.010879444
0.010861501
0.010845281
0.010830258
0.010816064
0.010802446
0.010789226
0.010776285
0.01076354
0.010750939
0.010738448
0.010726047
0.010713722
0.010701466
0.010689274
0.01067714
0.010665059
0.010653029
0.01064104
0.010629086
0.010617157
0.010605244
0.010593328
0.0105814
0.010569462
0.010557457
0.010545317
0.010533325
0.010521193
0.010507524
0.01049329
0.010478984
0.01046457
0.010450013
0.010435283
0.010420346
0.010405168
0.010389711
0.010373939
0.010357812
0.010341288
0.010324322
0.010306867
0.010288873
0.010270282
0.010251035
0.010231068
0.010210312
0.010188693
0.010166127
0.010142523
0.010117782
0.010091805
0.010064487
0.010037034
0.010016084
0.010001578
0.0099923117
0.0099867606
0.0099838293
0.0099828196
0.0099833741
0.009985825
0.0099899189
0.0099938797
0.010000955
0.010009367
0.018629155
0.015704263
0.012643205
0.011908925
0.011508842
0.011305584
0.011167935
0.011082107
0.011021652
0.01097829
0.010945019
0.010918418
0.010896118
0.010876712
0.010859259
0.010843137
0.010827929
0.010813356
0.010799232
0.010785431
0.010771874
0.010758506
0.010745295
0.010732222
0.010719274
0.010706444
0.010693724
0.010681109
0.010668591
0.010656163
0.010643818
0.010631545
0.010619332
0.010607168
0.010595034
0.010582911
0.010570797
0.010558679
0.01054646
0.01053414
0.010522116
0.010509584
0.010495476
0.010481084
0.01046661
0.010452034
0.010437314
0.01042242
0.010407318
0.010391971
0.010376343
0.010360396
0.010344091
0.010327385
0.010310235
0.010292594
0.010274413
0.01025564
0.010236215
0.010216079
0.010195168
0.01017341
0.010150725
0.010127021
0.010102195
0.010076134
0.010048744
0.010025732
0.010009118
0.0099978304
0.0099904148
0.009985733
0.0099831324
0.0099821836
0.00998276
0.0099851738
0.0099889648
0.0099927739
0.0099995551
0.010008258
0.017754637
0.015024551
0.012424164
0.011781645
0.011435062
0.011254902
0.01113631
0.011061521
0.011008835
0.010970328
0.010940214
0.01091548
0.01089417
0.010875132
0.010857615
0.010841135
0.010825382
0.010810153
0.010795324
0.010780811
0.01076656
0.010752537
0.010738721
0.010725099
0.010711656
0.010698384
0.010685273
0.010672312
0.01065949
0.010646795
0.010634212
0.010621728
0.010609327
0.010596993
0.010584701
0.010572436
0.010560198
0.010547944
0.010535556
0.010523175
0.010511218
0.010498103
0.010483619
0.010469116
0.010454525
0.010439832
0.010424996
0.010409985
0.010394763
0.010379296
0.010363544
0.010347471
0.010331037
0.010314201
0.010296919
0.010279148
0.010260839
0.010241942
0.010222403
0.010202165
0.01018117
0.010159351
0.010136634
0.010112935
0.010088158
0.010062188
0.010036869
0.010018046
0.010004725
0.0099954868
0.0099891341
0.0099849655
0.009982585
0.009981702
0.0099822908
0.0099845555
0.009987947
0.0099915308
0.0099977559
0.010005878
0.016956183
0.014433273
0.012230815
0.011672309
0.011372545
0.011213853
0.011112395
0.011047162
0.011000763
0.010965879
0.01093781
0.010914009
0.010892918
0.010873626
0.010855562
0.010838368
0.010821824
0.01080579
0.010790178
0.010774932
0.010760015
0.010745398
0.01073106
0.010716981
0.010703146
0.010689538
0.010676141
0.010662937
0.010649909
0.010637037
0.010624306
0.010611692
0.010599178
0.01058674
0.010574357
0.010562016
0.010549708
0.010537351
0.010524899
0.010512667
0.010500432
0.010486633
0.010472083
0.010457508
0.010442856
0.010428097
0.010413195
0.010398117
0.010382828
0.01036729
0.010351468
0.010335323
0.010318817
0.010301909
0.010284556
0.010266717
0.010248344
0.010229392
0.010209809
0.010189543
0.010168541
0.010146742
0.010124076
0.010100459
0.010075794
0.010049972
0.010028606
0.010013071
0.01000193
0.0099939047
0.0099881929
0.0099843775
0.0099821834
0.0099813963
0.0099820091
0.0099840824
0.0099870381
0.009990419
0.0099962179
0.010003692
0.016228528
0.01391793
0.012061422
0.011576191
0.011319993
0.011182668
0.011095522
0.011038022
0.010996151
0.010963501
0.010936323
0.010912561
0.010891014
0.01087099
0.010852066
0.010833981
0.010816573
0.010799739
0.010783409
0.010767534
0.010752075
0.010736999
0.010722279
0.010707886
0.010693795
0.01067998
0.010666418
0.010653083
0.010639953
0.010627003
0.010614208
0.010601545
0.010588991
0.010576519
0.010564107
0.010551747
0.010539407
0.010526979
0.010514551
0.010502514
0.010489806
0.010475535
0.010460986
0.010446393
0.01043173
0.010416958
0.010402045
0.010386954
0.010371652
0.010356101
0.010340267
0.010324111
0.010307596
0.010290681
0.010273327
0.010255491
0.01023713
0.010218198
0.010198649
0.010178436
0.010157512
0.010135828
0.010113333
0.010089969
0.010065669
0.010041333
0.010023188
0.010009895
0.010000072
0.0099927804
0.0099875114
0.0099839808
0.0099819692
0.0099813025
0.009981954
0.0099838677
0.0099865075
0.0099896995
0.009994931
0.01000149
0.015568663
0.013460788
0.011916064
0.011495588
0.011278736
0.011159911
0.011084049
0.011032136
0.010992967
0.010961201
0.010933921
0.010909527
0.010887108
0.010866134
0.010846282
0.010827345
0.010809188
0.010791714
0.01077485
0.010758539
0.01074273
0.01072738
0.010712451
0.010697904
0.010683702
0.010669814
0.010656207
0.010642851
0.010629717
0.010616776
0.010604001
0.010591368
0.010578845
0.010566407
0.010554039
0.010541724
0.010529387
0.01051697
0.010504733
0.010492765
0.010479417
0.010464885
0.010450391
0.010435845
0.010421231
0.010406506
0.01039164
0.010376597
0.010361343
0.010345844
0.010330062
0.010313964
0.01029751
0.010280664
0.010263387
0.010245637
0.010227373
0.010208552
0.010189127
0.010169051
0.010148277
0.010126754
0.010104425
0.010081229
0.010057098
0.010035719
0.010019805
0.010007877
0.0099988343
0.0099920285
0.0099871027
0.0099838269
0.009982005
0.0099814714
0.0099821639
0.0099839544
0.0099863908
0.0099894555
0.0099941849
0.0099998569
0.014981471
0.013055676
0.011795669
0.011431336
0.011247284
0.011143283
0.011075411
0.011026838
0.010988734
0.010956807
0.010928809
0.010903493
0.010880141
0.010858307
0.010837706
0.010818148
0.010799492
0.010781633
0.010764483
0.010747967
0.01073202
0.010716587
0.010701617
0.010687065
0.010672888
0.010659045
0.010645499
0.010632216
0.010619163
0.010606311
0.010593631
0.010581092
0.010568665
0.010556325
0.010544063
0.010531844
0.010519557
0.010507297
0.01049543
0.010483
0.010469021
0.01045464
0.010440252
0.010425827
0.010411327
0.010396718
0.010381967
0.010367042
0.010351907
0.01033653
0.010320877
0.010304913
0.010288603
0.010271912
0.010254803
0.010237238
0.010219179
0.010200585
0.010181413
0.010161619
0.010141161
0.01011999
0.010098056
0.010075308
0.010051688
0.010032452
0.010017875
0.010006705
0.0099981205
0.0099916382
0.0099869664
0.0099838971
0.0099822339
0.009981805
0.009982517
0.0099842079
0.0099865296
0.0099895601
0.0099939658
0.009999024
0.014479164
0.012730341
0.011700548
0.011382245
0.011222759
0.011129311
0.011066251
0.011019165
0.010981065
0.010948524
0.010919727
0.010893629
0.010869596
0.010847214
0.010826198
0.010806341
0.010787484
0.010769503
0.010752299
0.010735786
0.010719885
0.010704531
0.010689664
0.010675232
0.010661187
0.010647485
0.010634088
0.010620958
0.01060806
0.010595362
0.010582836
0.010570451
0.010558177
0.010545999
0.010533897
0.010521781
0.010509622
0.010497705
0.010486024
0.010472995
0.010458769
0.010444599
0.010430414
0.010416191
0.010401891
0.010387482
0.010372933
0.010358211
0.010343282
0.010328116
0.010312679
0.01029694
0.010280865
0.010264424
0.010247581
0.010230305
0.010212561
0.010194313
0.010175524
0.010156157
0.010136172
0.010115531
0.010094187
0.010072096
0.010049209
0.010031107
0.010017135
0.010006299
0.0099979397
0.0099916358
0.0099871146
0.0099841633
0.0099825721
0.0099821625
0.0099828135
0.0099843462
0.0099865068
0.0099893925
0.0099933511
0.009997683
0.014061437
0.012473709
0.011625761
0.011342778
0.011200152
0.011113834
0.011053857
0.011007804
0.010969908
0.010937295
0.010908372
0.010882187
0.010858132
0.010835791
0.01081487
0.010795153
0.01077647
0.010758688
0.010741701
0.010725414
0.010709746
0.010694627
0.010679994
0.010665792
0.010651972
0.010638492
0.010625309
0.010612387
0.01059969
0.010587189
0.010574852
0.010562649
0.010550557
0.010538573
0.010526639
0.01051464
0.010502752
0.010491372
0.01047917
0.010465429
0.010451454
0.010437506
0.010423548
0.010409545
0.010395466
0.01038128
0.010366954
0.010352456
0.010337756
0.010322823
0.010307623
0.010292128
0.010276305
0.010260123
0.01024355
0.010226556
0.010209107
0.010191169
0.010172708
0.010153687
0.010134071
0.010113821
0.010092895
0.01007125
0.010048843
0.010031077
0.010017248
0.0100065
0.009998222
0.0099920046
0.0099875647
0.0099846675
0.0099830936
0.0099826638
0.0099832383
0.0099846442
0.0099867055
0.009989474
0.0099930567
0.0099969168
0.01366391
0.012269209
0.011558005
0.011304816
0.011174576
0.011093686
0.011036377
0.010991786
0.010954815
0.010922888
0.010894536
0.010868864
0.010845284
0.010823389
0.010802889
0.010783567
0.010765253
0.010747812
0.010731134
0.010715151
0.010699784
0.010684961
0.010670622
0.010656709
0.010643172
0.010629967
0.010617054
0.010604394
0.010591955
0.010579706
0.010567614
0.010555651
0.010543803
0.010532045
0.010520289
0.010508567
0.01049718
0.010485647
0.010472755
0.010459027
0.010445367
0.010431724
0.010418071
0.010404373
0.010390601
0.010376723
0.010362708
0.010348526
0.010334146
0.010319537
0.010304669
0.010289511
0.010274032
0.010258202
0.01024199
0.010225366
0.010208295
0.010190748
0.010172689
0.010154083
0.010134896
0.010115091
0.010094631
0.010073477
0.010051588
0.010033178
0.01001888
0.010007821
0.0099993443
0.009992998
0.0099884621
0.0099854748
0.0099838085
0.0099832767
0.0099837212
0.0099849818
0.0099869289
0.0099895453
0.0099927928
0.0099963585
0.013506802
0.012199456
0.011505819
0.011263247
0.011138662
0.011061726
0.011007364
0.010965151
0.010930183
0.010900013
0.010873235
0.010848993
0.010826728
0.010806057
0.010786705
0.010768465
0.010751177
0.010734713
0.01071897
0.010703835
0.010689229
0.010675096
0.010661382
0.010648041
0.01063503
0.010622314
0.010609855
0.010597622
0.010585584
0.010573713
0.010561979
0.010550369
0.010538869
0.010527398
0.010515902
0.010504622
0.010493717
0.010481655
0.010468284
0.010454988
0.010441725
0.010428474
0.010415201
0.01040188
0.01038848
0.010374972
0.010361327
0.010347514
0.010333503
0.010319265
0.010304769
0.010289983
0.010274878
0.010259422
0.010243584
0.010227331
0.010210632
0.010193452
0.010175758
0.010157514
0.010138685
0.010119236
0.01009913
0.010078329
0.010056796
0.010037125
0.010021908
0.010010247
0.010001389
0.0099947787
0.0099900235
0.0099868343
0.0099849818
0.0099842724
0.0099845388
0.00998563
0.0099874302
0.0099898654
0.0099928457
0.009996239
38.651231
64.589183
30.088493
18.573922
12.053929
8.088767
5.4907727
3.7558209
2.5672169
1.7549942
1.1944788
0.80398583
0.53791718
0.35895393
0.23903293
0.15917704
0.1064329
0.0719404
0.049630594
0.035367138
0.026361472
0.020737145
0.017262008
0.01513016
0.013826682
0.013028084
0.012532455
0.01221696
0.012007795
0.011861815
0.011753975
0.011670196
0.0116019
0.011543337
0.011491017
0.011442298
0.011397447
0.011352986
0.011307261
0.011264507
0.011226074
0.011189293
0.011158391
0.011137073
0.011124943
0.011120298
0.011120404
0.01112142
0.011121831
0.011120236
0.011116488
0.01111068
0.011102548
0.011092454
0.011080665
0.011067228