/*--------------------------------*- C++ -*----------------------------------*\
  =========                 |
  \\      /  F ield         | OpenFOAM: The Open Source CFD Toolbox
   \\    /   O peration     | Website:  https://openfoam.org
    \\  /    A nd           | Version:  6
     \\/     M anipulation  |
\*---------------------------------------------------------------------------*/
FoamFile
{
    version     2.0;
    format      ascii;
    class       volScalarField;
    location    "50";
    object      nut;
}
// * * * * * * * * * * * * * * * * * * * * * * * * * * * * * * * * * * * * * //

dimensions      [0 2 -1 0 0 0 0];

internalField   nonuniform List<scalar> 
16000
(
4.5068461e-06
1.7180996e-05
2.5816161e-05
3.268646e-05
2.9417928e-05
3.3628062e-05
2.8304413e-05
2.8918785e-05
2.5566933e-05
2.50075e-05
2.3424741e-05
2.2826261e-05
2.2152715e-05
2.1877517e-05
2.1729124e-05
2.1812935e-05
2.2042076e-05
2.2453253e-05
2.3002705e-05
2.3713656e-05
2.4564543e-05
2.5573329e-05
2.673464e-05
2.8064904e-05
2.957224e-05
3.1276266e-05
3.3196689e-05
3.5358934e-05
3.7789836e-05
4.0520363e-05
4.3630426e-05
4.721342e-05
5.1366483e-05
5.6244471e-05
6.1781178e-05
6.8003354e-05
7.5058966e-05
8.3384238e-05
9.3644402e-05
0.00010611647
0.00012079305
0.00013785925
0.00015805406
0.00018242006
0.00021182662
0.00024727911
0.00029019714
0.00034224158
0.00040548202
0.00048247336
0.00057637467
0.00069115692
0.00083179011
0.0010046357
0.0010401209
0.001040019
0.0010394409
0.0010386832
0.0010377928
0.001036625
0.001034768
0.0010322648
0.0010293584
0.0010263261
0.0010234188
0.001020816
0.001018609
0.001016817
0.001015402
0.0010143401
0.0010135066
0.001012978
0.0010124334
0.0010125456
0.0010121499
0.0010138459
0.0010111458
0.0010138323
0.0010060031
0.0010107687
3.7296593e-06
1.6900729e-05
2.5298674e-05
3.1116501e-05
2.9048809e-05
2.8985291e-05
2.4469431e-05
2.4819106e-05
2.2230732e-05
2.1798124e-05
2.0578637e-05
2.0144932e-05
1.9651349e-05
1.950316e-05
1.9451289e-05
1.9614196e-05
1.9891191e-05
2.03379e-05
2.0898322e-05
2.1606599e-05
2.2434844e-05
2.3405569e-05
2.4510541e-05
2.5766952e-05
2.7181239e-05
2.8772142e-05
3.0557687e-05
3.25634e-05
3.4818598e-05
3.7359671e-05
4.0228335e-05
4.3451705e-05
4.7138912e-05
5.1424777e-05
5.6452207e-05
6.2382047e-05
6.9246566e-05
7.7151512e-05
8.6519995e-05
9.7928239e-05
0.00011140983
0.00012707852
0.00014566632
0.00016813613
0.00019523193
0.00022790709
0.00026750583
0.00031555375
0.00037397482
0.00044517644
0.00053209255
0.0006384582
0.00076890623
0.00092936157
0.0010389236
0.0010389185
0.0010383636
0.0010376171
0.0010367706
0.0010357382
0.0010342403
0.0010320184
0.0010293125
0.0010264075
0.0010235696
0.0010209974
0.0010187986
0.0010170017
0.0010155754
0.0010144861
0.0010136298
0.0010130643
0.0010124967
0.0010124876
0.001011939
0.0010129899
0.0010102131
0.0010124556
0.0010051773
0.0010090735
3.0749036e-06
1.6718934e-05
2.475293e-05
2.990438e-05
2.7974469e-05
2.6281526e-05
2.1212612e-05
2.1357755e-05
1.9413533e-05
1.9055502e-05
1.8146172e-05
1.7830275e-05
1.7488781e-05
1.7434033e-05
1.745937e-05
1.7678155e-05
1.7988177e-05
1.8454119e-05
1.901396e-05
1.9708058e-05
2.050511e-05
2.1430244e-05
2.2473759e-05
2.3653312e-05
2.4974437e-05
2.6455143e-05
2.8112007e-05
2.9968559e-05
3.2051545e-05
3.4393611e-05
3.7033121e-05
4.0020236e-05
4.3423145e-05
4.7291202e-05
5.1783795e-05
5.7103057e-05
6.3553654e-05
7.1289169e-05
8.0206392e-05
9.0621254e-05
0.00010300205
0.00011755979
0.0001348098
0.00015567001
0.00018086249
0.00021122743
0.00024804853
0.00029275826
0.00034712564
0.00041342242
0.00049438062
0.00059348291
0.00071505524
0.00086458151
0.0010377245
0.0010378296
0.0010372974
0.0010365518
0.0010357254
0.0010347727
0.0010335403
0.0010316291
0.0010291502
0.0010263947
0.0010236431
0.0010211132
0.0010189299
0.0010171322
0.0010156952
0.0010145799
0.0010136953
0.0010130642
0.0010124746
0.0010123048
0.001011619
0.0010120331
0.0010091935
0.001011065
0.0010044374
0.0010076896
2.5288632e-06
1.6609038e-05
2.4114287e-05
2.7440463e-05
2.0356679e-05
2.5279257e-05
1.8300656e-05
1.8561775e-05
1.7147569e-05
1.6815327e-05
1.6168294e-05
1.5918921e-05
1.5707627e-05
1.5708959e-05
1.5797447e-05
1.6047698e-05
1.6380194e-05
1.6850381e-05
1.7402237e-05
1.8074089e-05
1.8836266e-05
1.971335e-05
2.0696022e-05
2.1801403e-05
2.3034705e-05
2.4413133e-05
2.5952346e-05
2.767463e-05
2.9605113e-05
3.1773725e-05
3.4215609e-05
3.6975855e-05
4.011678e-05
4.3727959e-05
4.7917474e-05
5.280401e-05
5.8633765e-05
6.5828452e-05
7.4505114e-05
8.4329439e-05
9.5658899e-05
0.00010923804
0.000125454
0.0001449344
0.00016851257
0.00019697066
0.00023146033
0.00027339016
0.00032439026
0.00038660486
0.00046261481
0.00055566924
0.0006698351
0.00081021262
0.00098334689
0.0010367445
0.0010362381
0.0010354868
0.0010346649
0.0010337497
0.0010326493
0.0010310821
0.0010288605
0.0010262801
0.0010236349
0.0010211619
0.0010190039
0.0010172113
0.0010157666
0.0010146271
0.0010137149
0.0010130245
0.0010123919
0.001012002
0.0010110956
0.0010107943
0.0010080068
0.0010096521
0.00100376
0.0010060605
2.077945e-06
1.6538919e-05
2.2017951e-05
2.3849373e-05
1.6859848e-05
1.8381677e-05
1.6041346e-05
1.6255457e-05
1.5252976e-05
1.4926539e-05
1.4496547e-05
1.4284676e-05
1.4183311e-05
1.4217207e-05
1.4356676e-05
1.4621766e-05
1.4967945e-05
1.5431425e-05
1.5969068e-05
1.6612266e-05
1.7336125e-05
1.8162682e-05
1.9084262e-05
2.0116819e-05
2.1265654e-05
2.2547001e-05
2.3975749e-05
2.557285e-05
2.7361961e-05
2.9371278e-05
3.1634037e-05
3.4194007e-05
3.7113555e-05
4.0478194e-05
4.4400823e-05
4.9025699e-05
5.4479055e-05
6.099753e-05
6.9018995e-05
7.8482428e-05
8.9158192e-05
0.00010172451
0.00011702272
0.00013533394
0.0001574451
0.0001842398
0.00021668369
0.00025615838
0.00030420611
0.00036282313
0.0004344718
0.00052218495
0.00062979274
0.00076205497
0.00092504864
0.0010356614
0.001035186
0.0010344246
0.0010335978
0.001032698
0.0010316718
0.0010303659
0.0010284317
0.0010260516
0.0010235324
0.0010211303
0.0010190066
0.0010172242
0.0010157734
0.0010146105
0.0010136657
0.0010129052
0.0010121809
0.0010115076
0.0010103072
0.0010093515
0.0010067389
0.0010082056
0.0010032159
0.0010051206
1.7102089e-06
1.6483263e-05
1.8874258e-05
1.8756347e-05
1.5122897e-05
1.606297e-05
1.4409122e-05
1.4319692e-05
1.3650094e-05
1.330942e-05
1.3063179e-05
1.286891e-05
1.2861073e-05
1.2912445e-05
1.3093407e-05
1.3362975e-05
1.3716937e-05
1.416741e-05
1.4687697e-05
1.5299647e-05
1.598494e-05
1.6761976e-05
1.7625472e-05
1.8589871e-05
1.9660882e-05
2.0853725e-05
2.2182662e-05
2.3667475e-05
2.5330694e-05
2.7199267e-05
2.9305488e-05
3.1692796e-05
3.4424077e-05
3.7587546e-05
4.1293567e-05
4.5667159e-05
5.0857699e-05
5.6985303e-05
6.426709e-05
7.3105203e-05
8.3359507e-05
9.5217083e-05
0.00010960456
0.00012699329
0.00014786618
0.00017324162
0.00020398371
0.00024137866
0.00028694066
0.00034251846
0.0004104702
0.00049364544
0.00059565408
0.00072095813
0.00087521335
0.0010345747
0.001034139
0.0010333646
0.0010325264
0.0010316272
0.0010306349
0.0010294634
0.0010278502
0.0010256982
0.0010233261
0.0010210099
0.0010189296
0.0010171621
0.0010157056
0.0010145173
0.0010135294
0.0010126759
0.0010117967
0.0010107781
0.0010092561
0.0010077978
0.0010054974
0.0010066978
0.0010028654
0.0010044448
1.4174851e-06
1.6436953e-05
1.6154049e-05
1.6860568e-05
1.3612926e-05
1.4145494e-05
1.287866e-05
1.2701477e-05
1.2307279e-05
1.1932397e-05
1.1834752e-05
1.164142e-05
1.1707238e-05
1.17637e-05
1.1974321e-05
1.2239488e-05
1.2594136e-05
1.3026031e-05
1.3525367e-05
1.410384e-05
1.4750193e-05
1.5478813e-05
1.6287096e-05
1.718781e-05
1.8187201e-05
1.9299408e-05
2.053814e-05
2.1922119e-05
2.3473049e-05
2.5217356e-05
2.7187413e-05
2.9427395e-05
3.2001103e-05
3.4995442e-05
3.8515995e-05
4.2676339e-05
4.759396e-05
5.3400845e-05
6.019183e-05
6.8324158e-05
7.8084449e-05
8.9521962e-05
0.00010307068
0.00011963236
0.00013950347
0.0001636324
0.00019293016
0.00022854124
0.00027196563
0.00032493406
0.00038969522
0.00046894772
0.00056609531
0.00068533662
0.00083194945
0.0010125717
0.0010330954
0.0010323063
0.0010314522
0.0010305445
0.0010295636
0.0010284612
0.0010271005
0.0010252065
0.001023004
0.0010207891
0.0010187613
0.0010170124
0.0010155491
0.0010143291
0.0010132785
0.001012293
0.0010111867
0.0010097917
0.0010079886
0.0010062623
0.0010043861
0.0010053108
0.0010025059
0.0010038132
1.1925334e-06
1.6397727e-05
1.4101581e-05
1.5171842e-05
1.2104942e-05
1.2550437e-05
1.1642861e-05
1.1350624e-05
1.1169987e-05
1.0753874e-05
1.0768877e-05
1.0568828e-05
1.0688252e-05
1.074282e-05
1.0971812e-05
1.1227089e-05
1.1576327e-05
1.1986418e-05
1.2462459e-05
1.3006982e-05
1.3615337e-05
1.4298095e-05
1.5055256e-05
1.5897957e-05
1.6832935e-05
1.7873323e-05
1.9032309e-05
2.0327706e-05
2.1780776e-05
2.3418073e-05
2.5273003e-05
2.7391045e-05
2.9836312e-05
3.2692556e-05
3.6056083e-05
4.0026099e-05
4.4701121e-05
5.018995e-05
5.6644096e-05
6.4269394e-05
7.3503972e-05
8.4495126e-05
9.7504542e-05
0.00011326619
0.00013232097
0.00015538682
0.00018345739
0.00021756952
0.00025917967
0.00030994035
0.00037198552
0.00044788742
0.00054086076
0.00065486681
0.00079484444
0.00096696004
0.0010320534
0.0010312488
0.0010303754
0.0010294531
0.0010284691
0.0010273959
0.0010261629
0.0010245605
0.001022552
0.0010204552
0.0010184887
0.0010167611
0.0010152873
0.0010140236
0.0010128801
0.0010117127
0.0010103218
0.0010085781
0.0010066109
0.0010048737
0.0010034978
0.0010042625
0.0010022931
0.0010034609
1.0238569e-06
1.6299416e-05
1.2465933e-05
1.3595242e-05
1.0920423e-05
1.121279e-05
1.0590892e-05
1.0188887e-05
1.0169524e-05
9.7151826e-06
9.8117253e-06
9.6060719e-06
9.7621924e-06
9.8139891e-06
1.0052663e-05
1.0296723e-05
1.0636793e-05
1.1024768e-05
1.1477164e-05
1.1989382e-05
1.2562211e-05
1.3203094e-05
1.3914252e-05
1.4705427e-05
1.5583748e-05
1.6561392e-05
1.7651146e-05
1.8870117e-05
2.0239527e-05
2.1786634e-05
2.3546411e-05
2.5565636e-05
2.7907421e-05
3.0649566e-05
3.3877432e-05
3.7676429e-05
4.2132671e-05
4.7358795e-05
5.352727e-05
6.0786649e-05
6.9575243e-05
8.0122185e-05
9.2681213e-05
0.00010776693
0.00012612823
0.00014832466
0.0001753571
0.00020822156
0.00024830157
0.00029719872
0.0003569376
0.0004299782
0.00051936624
0.0006288461
0.00076305202
0.00092772392
0.0010310114
0.0010301915
0.0010292964
0.0010283552
0.0010273589
0.0010262915
0.001025117
0.0010237406
0.0010219535
0.0010199928
0.0010180964
0.0010163911
0.0010148998
0.0010135728
0.0010122969
0.0010108996
0.0010092081
0.0010072154
0.0010052549
0.0010037226
0.0010028346
0.0010034899
0.0010020758
0.0010030791
9.0013523e-07
1.6025907e-05
1.1267615e-05
1.2174347e-05
9.9165013e-06
1.0048213e-05
9.6782744e-06
9.1650493e-06
9.2675042e-06
8.7811375e-06
8.9329953e-06
8.7269342e-06
8.9053624e-06
8.9566187e-06
9.1981203e-06
9.4319341e-06
9.7606268e-06
1.0127951e-05
1.055764e-05
1.1040509e-05
1.1581317e-05
1.2185215e-05
1.285617e-05
1.3602789e-05
1.4432519e-05
1.5356717e-05
1.6387883e-05
1.7542717e-05
1.8842736e-05
2.0316261e-05
2.1999824e-05
2.3940748e-05
2.6199448e-05
2.8845862e-05
3.1953694e-05
3.5597022e-05
3.9859552e-05
4.4863566e-05
5.0777514e-05
5.7788884e-05
6.6241267e-05
7.639674e-05
8.849154e-05
0.00010308003
0.00012085614
0.00014235984
0.00016853233
0.00020037029
0.00023917949
0.00028651966
0.00034432068
0.00041493826
0.00050126894
0.00060685857
0.00073606713
0.00089425041
0.0010299676
0.0010291337
0.0010282152
0.0010272521
0.0010262376
0.0010251617
0.001024005
0.0010227226
0.001021188
0.001019384
0.0010175663
0.0010158831
0.001014363
0.001012946
0.0010114971
0.0010098452
0.0010079017
0.0010058228
0.0010040452
0.0010028436
0.0010023577
0.0010029082
0.0010019107
0.0010027801
8.0757167e-07
1.2685138e-05
1.0366349e-05
1.086486e-05
9.0802795e-06
9.0199718e-06
8.8870454e-06
8.2559496e-06
8.4476766e-06
7.9368234e-06
8.1205449e-06
7.9203747e-06
8.1082435e-06
8.1618516e-06
8.4003401e-06
8.6254842e-06
8.9413217e-06
9.2900245e-06
9.6701723e-06
1.0121993e-05
1.0630302e-05
1.1198303e-05
1.183084e-05
1.2535411e-05
1.3319451e-05
1.4193529e-05
1.5169871e-05
1.6264915e-05
1.7500507e-05
1.8905816e-05
2.0518164e-05
2.2383823e-05
2.4558705e-05
2.7103977e-05
3.0083117e-05
3.3564095e-05
3.7635177e-05
4.2428374e-05
4.8412858e-05
5.5231822e-05
6.3444785e-05
7.3284736e-05
8.4977818e-05
9.9182447e-05
0.00011646793
0.00013741441
0.00016288473
0.00019388254
0.00023165041
0.00027770265
0.00033389192
0.00040247518
0.00048621729
0.00058848324
0.00071338619
0.00086593806
0.0010289201
0.0010280757
0.0010271325
0.0010261453
0.0010251088
0.0010240157
0.0010228553
0.0010216079
0.0010202306
0.0010186078
0.0010168781
0.001015215
0.0010136512
0.0010121156
0.0010104675
0.0010085831
0.0010065063
0.00100453
0.0010030649
0.0010022182
0.001002016
0.0010024596
0.0010017506
0.0010024703
7.2427008e-07
1.1781313e-05
9.3171287e-06
9.6502354e-06
8.3852105e-06
8.1100401e-06
8.188697e-06
7.4444011e-06
7.6916734e-06
7.1693722e-06
7.3636472e-06
7.1769e-06
7.363568e-06
7.4227257e-06
7.6277141e-06
7.836681e-06
8.133821e-06
8.4632284e-06
8.8496517e-06
9.2823889e-06
9.7687389e-06
1.0311466e-05
1.0916328e-05
1.159041e-05
1.2341361e-05
1.3179465e-05
1.4117074e-05
1.5170842e-05
1.6363186e-05
1.7723882e-05
1.9290274e-05
2.110641e-05
2.3223204e-05
2.5694523e-05
2.8577918e-05
3.194102e-05
3.5880069e-05
4.0535929e-05
4.6065905e-05
5.2699337e-05
6.0674792e-05
7.0163507e-05
8.209644e-05
9.6012367e-05
0.0001128966
0.00013339874
0.00015831636
0.00018864138
0.00022557737
0.00027058668
0.00032545979
0.00039236209
0.00047394126
0.00057339926
0.00069462799
0.00084233407
0.0010221885
0.0010270178
0.0010260491
0.0010250366
0.0010239756
0.0010228602
0.001021683
0.0010204336
0.0010190957
0.0010176399
0.001016009
0.0010143645
0.0010127419
0.001011068
0.0010092304
0.001007197
0.0010051537
0.0010034433
0.0010023406
0.0010017962
0.0010017644
0.0010021044
0.0010016162
0.001002198
6.5725366e-07
1.0866842e-05
8.4083835e-06
8.5512725e-06
7.7818759e-06
7.2880718e-06
7.5400334e-06
6.7035159e-06
6.9745368e-06
6.4604064e-06
6.6487674e-06
6.4844105e-06
6.6242654e-06
6.6813818e-06
6.8980745e-06
7.1112501e-06
7.4018403e-06
7.7223233e-06
8.0952635e-06
8.5117773e-06
8.9796124e-06
9.5015707e-06
1.0083933e-05
1.0733615e-05
1.1458439e-05
1.2268694e-05
1.3177097e-05
1.420071e-05
1.5362348e-05
1.6691686e-05
1.8224909e-05
2.0002661e-05
2.2071119e-05
2.4479431e-05
2.7283586e-05
3.055482e-05
3.4396476e-05
3.895415e-05
4.4378899e-05
5.0897385e-05
5.8735498e-05
6.8017687e-05
7.9091961e-05
9.2648257e-05
0.00010912679
0.00013022018
0.0001547301
0.00018453997
0.00022083627
0.00026502893
0.00031885638
0.00038440243
0.00046420978
0.00056133532
0.00067947395
0.00082306333
0.00099740974
0.0010259612
0.0010249667
0.0010239283
0.0010228416
0.0010217011
0.0010205007
0.0010192334
0.0010178905
0.0010164614
0.0010149355
0.0010133118
0.0010116234
0.0010098169
0.0010078539
0.0010058091
0.0010039691
0.0010026177
0.0010018485
0.0010015187
0.0010015706
0.0010018147
0.0010015062
0.0010019964
6.0503676e-07
9.983796e-06
7.6436615e-06
7.5473694e-06
7.232993e-06
6.5285847e-06
6.9090553e-06
6.0134284e-06
6.2814943e-06
5.7973401e-06
5.9238464e-06
5.7702728e-06
5.9300095e-06
6.012079e-06
6.2280666e-06
6.4450814e-06
6.7289905e-06
7.0422214e-06
7.4038808e-06
7.8075127e-06
8.2606854e-06
8.7665068e-06
9.3315163e-06
9.9626774e-06
1.0668025e-05
1.1458122e-05
1.2346252e-05
1.3349953e-05
1.4492058e-05
1.5801268e-05
1.7257393e-05
1.8992613e-05
2.1005902e-05
2.3344649e-05
2.6066557e-05
2.9247419e-05
3.3172503e-05
3.7665473e-05
4.3016154e-05
4.9449116e-05
5.7205898e-05
6.6347656e-05
7.7228653e-05
9.0570757e-05
0.0001068622
0.00012664265
0.00015069846
0.0001814955
0.00021732775
0.00026091421
0.00031394682
0.00037843925
0.00045684026
0.00055207926
0.00066767645
0.00080783402
0.00097753946
0.0010249078
0.0010238876
0.0010228234
0.0010217105
0.0010205438
0.0010193176
0.0010180256
0.0010166604
0.0010152144
0.0010136791
0.0010120461
0.0010103066
0.0010084469
0.001006448
0.0010045499
0.0010030339
0.001002048
0.0010015339
0.0010013323
0.0010014103
0.0010015672
0.0010014041
0.0010018539
5.6313645e-07
9.1164139e-06
6.9596357e-06
6.6319103e-06
6.7125665e-06
5.8222008e-06
6.2772494e-06
5.3664028e-06
5.6092761e-06
5.1023539e-06
5.2314015e-06
5.1345912e-06
5.295738e-06
5.4004302e-06
5.6142532e-06
5.8350768e-06
6.1133485e-06
6.4213991e-06
6.7745484e-06
7.1688493e-06
7.6113813e-06
8.1056639e-06
8.6583325e-06
9.2632955e-06
9.951123e-06
1.0723229e-05
1.1593322e-05
1.2579068e-05
1.3702585e-05
1.4990426e-05
1.6472881e-05
1.81843e-05
2.0164606e-05
2.2462713e-05
2.5140531e-05
2.8278322e-05
3.1987274e-05
3.6404572e-05
4.1662908e-05
4.7993488e-05
5.5650283e-05
6.5106775e-05
7.5841981e-05
8.9053171e-05
0.00010523585
0.00012486291
0.00014873888
0.00017774489
0.00021496453
0.00025814165
0.00031061407
0.00037433685
0.00045167542
0.00054544847
0.00065902289
0.00079639682
0.00096228257
0.0010238603
0.0010228151
0.0010217255
0.0010205868
0.0010193942
0.0010181418
0.0010168234
0.0010154321
0.0010139599
0.0010123981
0.0010107369
0.0010089657
0.0010070731
0.0010051401
0.0010035183
0.0010023652
0.0010016825
0.0010013339
0.0010011955
0.0010012647
0.0010013445
0.0010012751
0.0010017017
5.2921056e-07
8.2248555e-06
6.3402613e-06
5.8035981e-06
6.194875e-06
5.1632285e-06
5.6326442e-06
4.7238576e-06
4.856559e-06
4.4739845e-06
4.6020738e-06
4.5579935e-06
4.718196e-06
4.8430811e-06
5.0550054e-06
5.2799515e-06
5.5544987e-06
5.8597467e-06
6.2075553e-06
6.5961977e-06
7.0239437e-06
7.5084265e-06
8.0506192e-06
8.6575834e-06
9.3382416e-06
1.0103769e-05
1.0968495e-05
1.1950239e-05
1.3070253e-05
1.4353042e-05
1.5826059e-05
1.7521409e-05
1.9479316e-05
2.1751893e-05
2.4405223e-05
2.7522477e-05
3.1216054e-05
3.5614934e-05
4.0843276e-05
4.7159227e-05
5.4817306e-05
6.3717787e-05
7.4256063e-05
8.7312606e-05
0.00010419676
0.00012376503
0.00014756649
0.00017646303
0.00021158541
0.00025661506
0.00030874497
0.00037196148
0.00044855717
0.00054125549
0.0006532901
0.00078848353
0.00095131349
0.0010228223
0.0010217532
0.0010206392
0.0010194759
0.0010182583
0.0010169808
0.0010156371
0.0010142201
0.0010127221
0.0010111343
0.0010094466
0.0010076476
0.0010057404
0.001004038
0.0010027529
0.001001922
0.0010014506
0.0010011955
0.0010010818
0.0010011242
0.0010011403
0.0010011043
0.0010014885
5.0126595e-07
7.3030924e-06
5.7701987e-06
5.0529158e-06
5.6569008e-06
4.5468066e-06
4.9748007e-06
4.0629305e-06
4.1891575e-06
3.9093036e-06
4.0331041e-06
4.0363999e-06
4.195859e-06
4.3385836e-06
4.5500869e-06
4.7798078e-06
5.0531009e-06
5.3581262e-06
5.6972886e-06
6.0820431e-06
6.5134869e-06
6.9959788e-06
7.535898e-06
8.1406293e-06
8.8195532e-06
9.5843491e-06
1.0449739e-05
1.1433445e-05
1.2555572e-05
1.3838742e-05
1.5308379e-05
1.6995785e-05
1.8942869e-05
2.1205256e-05
2.3851822e-05
2.6968203e-05
3.0667131e-05
3.5065699e-05
4.0288321e-05
4.6640297e-05
5.4326358e-05
6.3145583e-05
7.3613331e-05
8.6708286e-05
0.00010277234
0.00012222101
0.00014711695
0.00017601987
0.00021111573
0.00025368769
0.00030819971
0.00037114367
0.00044728021
0.00053925139
0.00065017522
0.00078372438
0.00094417864
0.0010217986
0.0010207069
0.0010195702
0.0010183839
0.0010171432
0.0010158424
0.0010144754
0.0010130352
0.0010115141
0.0010099036
0.0010081936
0.0010063642
0.0010045948
0.0010031961
0.0010022288
0.0010016334
0.0010012883
0.0010010816
0.0010009778
0.0010009938
0.0010009692
0.0010009671
0.0010012645
4.7821191e-07
6.3854303e-06
5.2410437e-06
4.3694732e-06
5.0809678e-06
3.9705391e-06
4.1777088e-06
3.4770474e-06
3.5884675e-06
3.4037091e-06
3.5238659e-06
3.5681641e-06
3.7286614e-06
3.8870864e-06
4.1002669e-06
4.3356866e-06
4.6052829e-06
4.9113535e-06
5.2572809e-06
5.6444415e-06
6.0779736e-06
6.5625977e-06
7.1047679e-06
7.7121504e-06
8.3944907e-06
9.1637747e-06
1.0034813e-05
1.1008747e-05
1.2130984e-05
1.3411066e-05
1.4873239e-05
1.6548974e-05
1.8481866e-05
2.0729615e-05
2.3362211e-05
2.6467514e-05
3.0155854e-05
3.4531124e-05
3.9738608e-05
4.6421534e-05
5.4121526e-05
6.284513e-05
7.3328092e-05
8.6549838e-05
0.00010268333
0.000122229
0.00014596559
0.00017630211
0.00021148158
0.00025411503
0.00030572566
0.00037163528
0.0004475419
0.00053906771
0.00064922919
0.00078157226
0.00094021402
0.001020795
0.0010196827
0.0010185251
0.0010173181
0.0010160566
0.0010147353
0.0010133479
0.0010118878
0.0010103472
0.0010087186
0.0010069972
0.0010051937
0.001003698
0.0010026043
0.0010018818
0.001001431
0.0010011508
0.0010009679
0.0010008732
0.0010008766
0.0010008367
0.0010008849
0.001001091
4.5998173e-07
5.4715659e-06
4.7468681e-06
3.7458671e-06
4.4573219e-06
3.3256784e-06
3.481259e-06
2.9599894e-06
3.0561198e-06
2.9545997e-06
3.0743328e-06
3.1528996e-06
3.316877e-06
3.4892929e-06
3.702819e-06
3.9438083e-06
4.2217715e-06
4.5336938e-06
4.884845e-06
5.2776491e-06
5.7170053e-06
6.207871e-06
6.7567308e-06
7.371425e-06
8.0553688e-06
8.8307883e-06
9.7076334e-06
1.0702302e-05
1.1833075e-05
1.3120435e-05
1.458901e-05
1.6271662e-05
1.8213825e-05
2.04741e-05
2.3123486e-05
2.6253227e-05
2.9970103e-05
3.436929e-05
3.9635995e-05
4.6121072e-05
5.3731208e-05
6.2771144e-05
7.3368662e-05
8.6739641e-05
0.00010297714
0.00012267519
0.00014656241
0.00017552665
0.00021248654
0.00025527539
0.00030699912
0.00036945286
0.00044891542
0.0005401886
0.0006498298
0.00078128016
0.00093853102
0.0010198187
0.001018688
0.0010175122
0.0010162871
0.0010150079
0.0010136692
0.0010122651
0.001010789
0.0010092331
0.0010075877
0.001005839
0.0010042567
0.0010030503
0.0010022064
0.001001643
0.0010012688
0.0010010166
0.0010008436
0.0010007592
0.0010007645
0.001000736
0.0010008403
0.0010009617
4.4751257e-07
4.5774434e-06
4.2771106e-06
3.1796361e-06
3.8032453e-06
2.7512322e-06
2.8636375e-06
2.5071273e-06
2.5939185e-06
2.5607289e-06
2.6843244e-06
2.7909821e-06
2.9607486e-06
3.1426312e-06
3.3649136e-06
3.6149525e-06
3.9000705e-06
4.2199392e-06
4.5791046e-06
4.9806729e-06
5.4293825e-06
5.9303261e-06
6.4867738e-06
7.1113889e-06
7.811838e-06
8.599795e-06
9.4890152e-06
1.0495283e-05
1.1636602e-05
1.2933888e-05
1.4413126e-05
1.6108934e-05
1.806777e-05
2.0347715e-05
2.3021306e-05
2.6183661e-05
2.993385e-05
3.4362574e-05
3.9708282e-05
4.6287315e-05
5.3844246e-05
6.2405809e-05
7.3617905e-05
8.7148057e-05
0.00010352913
0.00012341314
0.00014748969
0.00017666133
0.00021388101
0.00025686848
0.00030875474
0.00037130461
0.00045086762
0.00054197727
0.00065122175
0.00078195957
0.00093809828
0.0010188779
0.0010177317
0.0010165406
0.0010153006
0.0010140071
0.0010126549
0.0010112383
0.001009751
0.0010081867
0.0010065386
0.0010048728
0.0010035624
0.0010026055
0.0010019344
0.0010014622
0.0010011259
0.0010008846
0.0010007163
0.0010006377
0.0010006322
0.0010005973
0.0010007117
0.0010008711
4.4286329e-07
3.7301583e-06
3.8139532e-06
2.6540105e-06
3.4195841e-06
2.2794179e-06
2.3334508e-06
2.1130238e-06
2.2024449e-06
2.2228903e-06
2.3533802e-06
2.4831381e-06
2.6576545e-06
2.8543261e-06
3.0850648e-06
3.3447751e-06
3.6388258e-06
3.9685909e-06
4.3382176e-06
4.7512394e-06
5.2122723e-06
5.7244931e-06
6.2971103e-06
6.9365217e-06
7.6520562e-06
8.4548979e-06
9.3581866e-06
1.0377281e-05
1.1530315e-05
1.2839256e-05
1.4331859e-05
1.6044445e-05
1.8023462e-05
2.0326304e-05
2.302874e-05
2.6227417e-05
3.0005585e-05
3.4467191e-05
3.9927457e-05
4.6595285e-05
5.4038854e-05
6.3018714e-05
7.3973711e-05
8.7684266e-05
0.00010422407
0.00012429823
0.00014857051
0.00017794748
0.00021538948
0.0002585635
0.00031059948
0.00037323184
0.00045283355
0.00054377281
0.00065263795
0.00078273142
0.0009379296
0.0010179821
0.0010168235
0.0010156205
0.0010143693
0.0010130655
0.0010117042
0.0010102796
0.0010087853
0.0010072141
0.0010055599
0.0010041418
0.0010030753
0.0010023004
0.0010017347
0.0010013131
0.0010009977
0.0010007629
0.0010006002
0.0010005256
0.0010005112
0.0010004785
0.0010005906
0.0010007848
4.4877198e-07
3.1700504e-06
3.3367404e-06
2.9426783e-06
2.999884e-06
1.818306e-06
1.9144866e-06
1.7823409e-06
1.8785435e-06
1.9424887e-06
2.0807588e-06
2.2277142e-06
2.4127388e-06
2.6213152e-06
2.8612488e-06
3.1312897e-06
3.4357158e-06
3.7769156e-06
4.158813e-06
4.5851823e-06
5.059589e-06
5.5884615e-06
6.1772341e-06
6.8331854e-06
7.5651842e-06
8.3838348e-06
9.3016993e-06
1.0333924e-05
1.1499087e-05
1.2820483e-05
1.4327612e-05
1.6057888e-05
1.8057249e-05
2.0383976e-05
2.3118041e-05
2.6349393e-05
3.0145509e-05
3.4667206e-05
4.0289974e-05
4.6933604e-05
5.4508317e-05
6.3173085e-05
7.4436066e-05
8.8279424e-05
0.0001049655
0.00012518902
0.00014963076
0.00017917282
0.00021675095
0.00026005459
0.0003121772
0.00037482313
0.00045432841
0.00054502387
0.00065345847
0.00078291322
0.00093730242
0.0010171419
0.0010159745
0.0010147634
0.0010135052
0.0010121957
0.0010108303
0.0010094039
0.0010079103
0.0010063425
0.0010048025
0.0010036196
0.0010027389
0.0010020802
0.0010015756
0.0010011845
0.0010008837
0.0010006558
0.0010004983
0.0010004212
0.0010003923
0.0010003572
0.0010004513
0.00100063
4.6614474e-07
3.322875e-06
2.9576845e-06
2.0043567e-06
1.8682923e-06
1.5140578e-06
1.5550455e-06
1.5222445e-06
1.6200543e-06
1.7173557e-06
1.8637734e-06
2.0262284e-06
2.2206079e-06
2.4401762e-06
2.6900275e-06
2.9710273e-06
3.2868673e-06
3.6404648e-06
4.0356318e-06
4.4762417e-06
4.9667052e-06
5.5110062e-06
6.1162892e-06
6.7888779e-06
7.5371268e-06
8.371101e-06
9.3030283e-06
1.0348065e-05
1.1525418e-05
1.2859403e-05
1.438073e-05
1.6127267e-05
1.8144973e-05
2.0494839e-05
2.3258246e-05
2.6509793e-05
3.0324494e-05
3.5131121e-05
4.0897523e-05
4.738568e-05
5.4492215e-05
6.3419825e-05
7.4898518e-05
8.8791308e-05
0.00010561434
0.0001259413
0.00015051065
0.00018174342
0.00021775591
0.00026110633
0.00031322164
0.00037577967
0.00045500421
0.00054534649
0.00065326886
0.00078207596
0.00093580338
0.0010163688
0.0010151968
0.0010139821
0.0010127214
0.001011411
0.0010100466
0.0010086231
0.0010071342
0.0010055732
0.0010042543
0.0010032564
0.001002499
0.0010019095
0.001001442
0.0010010724
0.0010007845
0.0010005653
0.0010004135
0.0010003314
0.0010002854
0.0010002485
0.0010003307
0.0010004883
3.8228873e-07
2.6347794e-06
2.1699433e-06
1.4590483e-06
1.4517344e-06
1.2397652e-06
1.2848461e-06
1.310323e-06
1.4194463e-06
1.5396249e-06
1.6957346e-06
1.8714415e-06
2.0755352e-06
2.3058489e-06
2.5661902e-06
2.8584528e-06
3.1860233e-06
3.5520543e-06
3.9602624e-06
4.4145423e-06
4.9192099e-06
5.4790522e-06
6.0996332e-06
6.7875908e-06
7.5509913e-06
8.3997074e-06
9.3459958e-06
1.0405353e-05
1.1597596e-05
1.2947989e-05
1.4488282e-05
1.6256417e-05
1.8299425e-05
2.0682627e-05
2.3482685e-05
2.6757649e-05
3.0625549e-05
3.5403593e-05
4.1150171e-05
4.7356308e-05
5.4417748e-05
6.3613083e-05
7.5211215e-05
8.9166905e-05
0.0001060707
0.00012752771
0.00015233493
0.00018223186
0.00021823411
0.00026152629
0.00031351523
0.00037940477
0.00045457277
0.00054442333
0.00065172658
0.00077986259
0.00093308775
0.0010156738
0.0010145022
0.0010132889
0.001012031
0.0010107256
0.0010093695
0.0010079589
0.0010064896
0.001005011
0.0010038732
0.0010030019
0.0010023193
0.0010017718
0.0010013305
0.0010009786
0.0010007032
0.001000494
0.0010003486
0.0010002629
0.0010002061
0.0010001672
0.0010002284
0.0010003482
2.8707549e-07
1.5510888e-06
1.6531396e-06
1.1499378e-06
1.1283759e-06
1.0244315e-06
1.0833061e-06
1.1490141e-06
1.2698121e-06
1.4067906e-06
1.5723464e-06
1.7594455e-06
1.9730874e-06
2.2136129e-06
2.4841466e-06
2.7870288e-06
3.1254442e-06
3.5026224e-06
3.9221996e-06
4.3880476e-06
4.9044157e-06
5.4759993e-06
6.1082109e-06
6.8075023e-06
7.5817376e-06
8.4406428e-06
9.3964042e-06
1.046456e-05
1.1665117e-05
1.3023625e-05
1.4571321e-05
1.6345812e-05
1.8397114e-05
2.0792124e-05
2.359253e-05
2.6856967e-05
3.0785324e-05
3.5665218e-05
4.120108e-05
4.7077465e-05
5.42881e-05
6.4246212e-05
7.5960635e-05
9.0047864e-05
0.00010707783
0.00012761327
0.00015237874
0.00018220761
0.00021809735
0.00026121805
0.0003158067
0.00037821899
0.00045286914
0.00054206979
0.00064862903
0.00077606349
0.00092896847
0.0010150647
0.0010138994
0.0010126933
0.0010114434
0.0010101466
0.0010087996
0.0010073985
0.0010059389
0.0010046265
0.0010036148
0.0010028209
0.0010021828
0.0010016635
0.0010012426
0.0010009068
0.0010006444
0.0010004456
0.0010003064
0.0010002188
0.0010001567
0.0010001183
0.0010001608
0.0010002426
2.2539663e-07
1.1858249e-06
1.2158438e-06
9.1837914e-07
8.954331e-07
8.652185e-07
9.3881152e-07
1.032973e-06
1.1645109e-06
1.3149045e-06
1.4899988e-06
1.68772e-06
1.9112413e-06
2.1619893e-06
2.4427034e-06
2.7558355e-06
3.1045281e-06
3.4919764e-06
3.9217566e-06
4.3977404e-06
4.9241615e-06
5.5057027e-06
6.1477472e-06
6.8567001e-06
7.6403998e-06
8.5085923e-06
9.4734839e-06
1.0550586e-05
1.1759797e-05
1.3126157e-05
1.4680155e-05
1.6460406e-05
1.8520666e-05
2.0921803e-05
2.3789318e-05
2.7082667e-05
3.1137631e-05
3.600034e-05
4.1200038e-05
4.7009841e-05
5.4595359e-05
6.4265218e-05
7.5898674e-05
8.9965853e-05
0.00010691638
0.00012736583
0.00015199928
0.00018327257
0.00021917968
0.0002622761
0.00031392967
0.00037576098
0.00044970059
0.00053808469
0.00064381658
0.00077065265
0.00092369237
0.0010145426
0.0010133924
0.001012203
0.0010109718
0.0010096958
0.0010083723
0.0010069979
0.0010055695
0.0010043816
0.0010034471
0.001002697
0.0010020853
0.0010015851
0.0010011797
0.0010008571
0.0010006058
0.0010004156
0.0010002809
0.0010001919
0.0010001287
0.0010000948
0.0010001271
0.0010001841
1.6211873e-07
9.1159415e-07
8.8967326e-07
7.4355616e-07
7.3133257e-07
7.5053468e-07
8.3646413e-07
9.4879529e-07
1.0878728e-06
1.2468677e-06
1.428144e-06
1.6321047e-06
1.861008e-06
2.1167292e-06
2.4017171e-06
2.7185355e-06
3.0701407e-06
3.4597664e-06
3.8909339e-06
4.3674805e-06
4.8936239e-06
5.4740444e-06
6.1141293e-06
6.8203377e-06
7.6005852e-06
8.4646431e-06
9.424613e-06
1.0495763e-05
1.1697568e-05
1.3054215e-05
1.4595573e-05
1.6362667e-05
1.8409297e-05
2.0779846e-05
2.3522292e-05
2.6816316e-05
3.0886022e-05
3.5455455e-05
4.0258953e-05
4.6141592e-05
5.3918322e-05
6.3471513e-05
7.5509632e-05
8.9467605e-05
0.00010628593
0.00012656462
0.00015098793
0.00018037807
0.00021570106
0.00025810022
0.00030892676
0.00036978926
0.00044262449
0.00052981755
0.00063441033
0.00076046023
0.00091362981
0.001014169
0.0010130379
0.00101187
0.0010106628
0.0010094139
0.0010081205
0.0010067797
0.0010053886
0.0010042597
0.0010033575
0.0010026258
0.0010020274
0.0010015381
0.0010011425
0.0010008282
0.001000583
0.0010003966