/*--------------------------------*- C++ -*----------------------------------*\
  =========                 |
  \\      /  F ield         | OpenFOAM: The Open Source CFD Toolbox
   \\    /   O peration     | Website:  https://openfoam.org
    \\  /    A nd           | Version:  6
     \\/     M anipulation  |
\*---------------------------------------------------------------------------*/
FoamFile
{
    version     2.0;
    format      ascii;
    class       volScalarField;
    location    "50";
    object      omega;
}
// * * * * * * * * * * * * * * * * * * * * * * * * * * * * * * * * * * * * * //

dimensions      [0 0 -1 0 0 0 0];

internalField   nonuniform List<scalar> 
16000
(
1014.9267
1562.1455
894.03538
554.61399
405.44456
296.1851
229.85199
182.32666
148.17299
123.1723
103.70806
88.590252
76.407946
66.56667
58.482899
51.786437
46.198651
41.48993
37.501852
34.094767
31.171398
28.646353
26.455543
24.544786
22.871346
21.39958
20.100303
18.94926
17.926448
17.015278
16.20183
15.474586
14.82351
14.240928
13.720205
13.255765
12.842487
12.475502
12.15067
11.864539
11.613536
11.393676
11.201164
11.033084
10.887086
10.760834
10.652079
10.558806
10.479212
10.41171
10.354978
10.307993
10.270147
10.241474
10.223183
10.213464
10.207676
10.202474
10.196412
10.18827
10.174873
10.156599
10.135342
10.113237
10.0922
10.073609
10.058179
10.046083
10.037058
10.030955
10.026842
10.025362
10.024082
10.028303
10.029034
10.046662
10.031009
10.058422
10.006228
10.054644
1045.0435
1589.0934
902.27802
557.30523
403.93513
296.21252
228.48164
181.46684
147.09018
122.27733
102.79116
87.774086
75.640903
65.875398
57.85535
51.223661
45.695854
41.043012
37.106522
33.745985
30.864783
28.377491
26.220476
24.339787
22.693078
21.245037
19.96678
18.834292
17.827767
16.930819
16.12995
15.413982
14.773235
14.19963
13.686085
13.227227
12.818085
12.45479
12.133527
11.850617
11.602288
11.384556
11.193738
11.02704
10.882178
10.756848
10.648838
10.55615
10.476997
10.409789
10.353186
10.306119
10.267868
10.238232
10.217961
10.207135
10.201069
10.19594
10.190229
10.183149
10.17254
10.156435
10.136723
10.115599
10.095101
10.076753
10.061394
10.049266
10.04016
10.033849
10.029563
10.027801
10.026343
10.029617
10.029168
10.041786
10.025582
10.0497
10.001801
10.0437
1073.2542
1621.7484
908.86468
559.22336
403.03016
294.95752
226.52661
180.17015
145.64248
121.10313
101.63741
86.768816
74.713028
65.052606
57.116087
50.567838
45.113691
40.5288
36.653271
33.347206
30.514513
28.070265
25.951398
24.104427
22.487509
21.065808
19.810842
18.698935
17.710554
16.829547
16.042598
15.33867
14.708519
14.144418
13.63964
13.18839
12.785528
12.426927
12.109768
11.83075
11.585768
11.370752
11.18218
11.017384
10.874121
10.750131
10.643245
10.551484
10.473081
10.40645
10.350245
10.303367
10.265023
10.234835
10.2131
10.200972
10.194532
10.189391
10.183848
10.177399
10.16886
10.15516
10.137201
10.117234
10.097409
10.079398
10.06417
10.052046
10.042865
10.036358
10.031859
10.029591
10.027963
10.029983
10.028488
10.036182
10.019558
10.040888
9.9980577
10.035144
1099.4394
1658.6488
919.77443
561.58464
402.53628
293.08871
223.97418
178.41838
143.83085
119.64854
100.25174
85.57875
73.629867
64.103326
56.269857
49.823149
44.455702
39.950202
36.144388
32.900179
30.121856
27.725562
25.648872
23.83903
22.254799
20.861936
19.632444
18.543048
17.574546
16.71105
15.93947
15.249006
14.630638
14.076757
13.581077
13.13828
12.743427
12.391677
12.079654
11.805007
11.563991
11.352335
11.166561
11.004181
10.862982
10.740739
10.635346
10.544841
10.467481
10.401695
10.346134
10.299687
10.261513
10.231128
10.208594
10.194945
10.188036
10.182829
10.177335
10.17119
10.163689
10.152661
10.136693
10.118083
10.09909
10.081531
10.066513
10.054442
10.045212
10.038527
10.03382
10.031097
10.029139
10.029454
10.026263
10.028445
10.012287
10.03191
9.9947859
10.024472
1123.5592
1698.1756
922.17191
563.58684
396.97513
291.88399
220.80633
176.26802
141.71656
117.9558
98.675558
84.234833
72.419678
63.049833
55.335993
49.005238
43.735071
39.318015
35.588859
32.412314
29.692962
27.348468
25.317146
23.547153
21.997929
20.63594
19.433729
18.36848
17.421355
16.576752
15.821814
15.145981
14.5405
13.998003
13.51241
13.07861
12.69212
12.348561
12.04353
11.773939
11.537268
11.329588
11.147189
10.987688
10.848992
10.728881
10.625322
10.536379
10.460334
10.395636
10.340941
10.295135
10.257348
10.227018
10.204032
10.189073
10.181591
10.176275
10.17076
10.164749
10.157839
10.14885
10.135111
10.118056
10.100047
10.083052
10.068316
10.05634
10.047076
10.04022
10.035269
10.032008
10.029342
10.027468
10.022026
10.019187
10.00444
10.022671
9.9925187
10.019065
1145.5987
1738.3306
921.76395
563.9377
389.6243
288.26151
217.14208
173.77901
139.35057
116.05902
96.9405
82.759427
71.102699
61.907203
54.327471
48.124127
42.960101
38.63874
34.991943
31.887747
29.231138
26.941612
24.958318
23.230468
21.718251
20.388912
19.215585
18.175952
17.25157
16.427144
15.690058
15.030003
14.438518
13.908485
13.434059
13.010338
12.632927
12.297737
12.000708
11.737653
11.505839
11.302584
11.124161
10.968006
10.832223
10.714628
10.613233
10.526147
10.451678
10.388301
10.334683
10.289713
10.252506
10.222446
10.199286
10.183366
10.175184
10.169728
10.164143
10.158155
10.151525
10.143596
10.13235
10.117067
10.100208
10.083894
10.069514
10.05767
10.048377
10.041336
10.03606
10.032084
10.028226
10.023693
10.015802
10.009128
9.9968357
10.012947
9.9917014
10.015508
1165.6054
1779.1549
915.22966
557.57218
381.80037
284.05099
213.19275
170.99478
136.77546
113.98508
95.074012
81.17167
69.697011
60.689103
53.25639
47.189335
42.138864
37.918846
34.359039
31.330915
28.740079
26.508077
24.574991
22.891204
21.417686
20.122525
18.979481
17.966762
17.066348
16.263269
15.545159
14.90196
14.325538
13.809048
13.34686
12.934217
12.566831
12.240586
11.951607
11.69606
11.470026
11.271681
11.09774
10.945411
10.812914
10.698188
10.599263
10.514302
10.441647
10.3798
10.327446
10.283484
10.247021
10.217412
10.194318
10.17785
10.168811
10.163186
10.157499
10.151466
10.144942
10.137566
10.128291
10.115013
10.099479
10.083967
10.070013
10.058334
10.049004
10.04173
10.035978
10.030989
10.025386
10.017968
10.007953
9.999255
9.990265
10.004179
9.9907547
10.012145
1183.6639
1821.3944
901.64818
549.73703
373.66967
279.43627
208.93908
167.95876
134.03826
111.76218
93.103591
79.490128
68.21929
59.407643
52.13302
46.208685
41.277777
37.163347
33.694231
30.745087
28.222494
26.050107
24.169077
22.531008
21.097677
19.838061
18.726566
17.741947
16.86663
16.085999
15.387947
14.762663
14.202365
13.700477
13.251563
12.850957
12.494402
12.177784
11.897191
11.649308
11.430129
11.237249
11.068183
10.920138
10.791286
10.679747
10.583577
10.500982
10.430357
10.370227
10.319305
10.276501
10.240926
10.211915
10.189072
10.172387
10.162467
10.156645
10.150832
10.144707
10.13818
10.131049
10.122783
10.111771
10.097751
10.083171
10.069713
10.058219
10.048827
10.041229
10.034769
10.028384
10.020603
10.010529
9.9992972
9.9905469
9.9854188
9.9980127
9.9908827
10.010816
1199.917
1859.913
882.26318
540.65344
365.07679
274.53871
204.50254
164.73801
131.19358
109.42559
91.05843
77.734987
66.686149
58.075011
50.967196
45.189631
40.382846
36.37689
33.001329
30.133359
27.680989
25.56993
23.742524
22.151628
20.759819
19.536987
18.458198
17.502769
16.653598
15.896456
15.219515
14.61319
14.070064
13.583811
13.149137
12.761413
12.416386
12.109951
11.838205
11.598303
11.386405
11.199647
11.035922
10.892513
10.76764
10.659556
10.566388
10.486369
10.417957
10.359707
10.310359
10.268842
10.234274
10.205979
10.183519
10.166775
10.156148
10.150101
10.144145
10.137898
10.131299
10.124234
10.116437
10.10719
10.094896
10.081387
10.068493
10.057194
10.047686
10.039614
10.032144
10.024001
10.013929
10.00198
9.9908443
9.9836841
9.9822897
9.993925
9.9909002
10.009131
1214.5557
1884.4217
858.34499
531.177
356.28168
269.47356
199.96569
161.38215
128.27853
106.99888
88.956758
75.919058
65.107674
56.698705
49.764902
44.136823
39.457844
35.562498
32.282891
29.497928
27.117521
25.069321
23.296989
21.75463
20.405606
19.220734
18.175752
17.250549
16.428518
15.695869
15.041077
14.454748
13.929822
13.460179
13.040612
12.666488
12.33356
12.037821
11.775344
11.543741
11.339348
11.159352
11.001356
10.862875
10.742274
10.637875
10.54792
10.470651
10.404605
10.348369
10.300711
10.260586
10.227122
10.199642
10.177676
10.161014
10.149859
10.143551
10.137439
10.131049
10.124334
10.117226
10.109587
10.101084
10.090755
10.078476
10.066211
10.055105
10.045395
10.036647
10.027859
10.017777
10.005803
9.9932366
9.983541
9.9789151
9.9805658
9.9912568
9.9912491
10.007987
1227.7979
1880.5259
833.5222
521.78782
347.38837
264.29049
195.38523
157.91784
125.31479
104.49442
86.807719
74.049007
63.488829
55.282813
48.529377
43.053022
38.505138
34.722202
31.540807
28.840558
26.533788
24.549931
22.834095
21.341637
20.036645
18.890888
17.880789
16.986813
16.19288
15.485693
14.85408
14.288754
13.782996
13.330835
12.927099
12.567134
12.246737
11.962152
11.709272
11.486351
11.289773
11.116904
10.964884
10.831605
10.71552
10.614994
10.528421
10.454036
10.390472
10.336352
10.290475
10.251822
10.219538
10.192949
10.171566
10.155113
10.143611
10.136995
10.13072
10.124172
10.117314
10.110098
10.102452
10.094237
10.085137
10.074273
10.062708
10.051781
10.041757
10.032116
10.021816
10.009978
9.9970228
9.9852886
9.9780101
9.9760826
9.9798435
9.9895582
9.9915582
10.006661
1239.9173
1844.285
809.74844
512.3489
338.50326
259.01164
190.81762
154.36612
122.32106
101.92281
84.618095
72.130407
61.833159
53.830617
47.262994
41.940465
37.526673
33.857752
30.771443
28.157467
25.926192
24.008477
22.350927
20.910124
19.650779
18.545626
17.571779
16.710293
15.945638
15.265073
14.657856
14.114673
13.629134
13.195356
12.808183
12.462949
12.155538
11.882691
11.640786
11.426869
11.238395
11.072904
10.926997
10.799143
10.687753
10.591226
10.508156
10.436746
10.375741
10.323804
10.279769
10.242643
10.211592
10.185948
10.165215
10.149077
10.137425
10.130436
10.123994
10.11728
10.11026
10.102899
10.095147
10.086936
10.078155
10.068595
10.05781
10.047049
10.036597
10.025918
10.014191
10.001249
9.9885992
9.9789399
9.9744399
9.9747871
9.9797689
9.9885202
9.9919863
10.00554
1251.1811
1805.2722
785.9799
502.74414
329.76696
253.67343
186.32038
150.7515
119.31327
99.294583
82.392536
70.167897
60.142857
52.34453
45.957449
40.788861
36.511861
32.960336
29.976577
27.451713
25.29851
23.449105
21.85178
20.464452
19.252329
18.189176
17.25284
16.424981
15.69063
15.037651
14.455873
13.935728
13.471173
13.056378
12.686222
12.356069
12.061837
11.80085
11.569513
11.365017
11.184962
11.027078
10.888233
10.765957
10.659373
10.566899
10.487408
10.419009
10.360599
10.310879
10.268716
10.233148
10.20336
10.178694
10.158655
10.142908
10.131294
10.123884
10.117273
10.110388
10.103199
10.095673
10.087769
10.079443
10.07064
10.061294
10.051336
10.040759
10.029828
10.018161
10.00551
9.9925284
9.981482
9.9745953
9.9726322
9.9745655
9.9800877
9.9879229
9.9925217
10.004884
1261.9196
1763.8887
762.42214
492.98676
321.30672
248.31644
181.93547
147.0941
116.29894
96.617136
80.132046
68.164304
58.396496
50.802187
44.609205
39.601162
35.466407
32.036294
29.158572
26.725633
24.653116
22.874205
21.339015
20.007018
18.843692
17.823927
16.926354
16.133254
15.430189
14.805618
14.250231
13.753832
13.310806
12.915378
12.562529
12.247751
11.966812
11.717912
11.497348
11.302431
11.130867
10.980441
10.848297
10.73176
10.630179
10.542341
10.466469
10.401068
10.345242
10.297734
10.257443
10.223437
10.194922
10.171249
10.151923
10.136599
10.12508
10.117349
10.110571
10.103517
10.096157
10.088459
10.080384
10.071894
10.062942
10.053481
10.043461
10.032831
10.021536
10.0095
9.9966172
9.9848099
9.9762815
9.972198
9.9721537
9.9749986
9.9806079
9.9875834
9.9930341
10.004609
1272.4277
1720.1157
739.39669
483.01389
313.18738
242.94192
177.67284
143.39541
113.27075
93.889229
77.792906
66.070552
56.587232
49.209331
43.220041
38.379462
34.392382
31.087834
28.319762
25.981628
23.992558
22.286404
20.815212
19.540473
18.427522
17.452517
16.594944
15.837727
15.166887
14.571291
14.041422
13.569285
13.148147
12.772326
12.43699
12.137971
11.871643
11.634944
11.425227
11.23993
11.076931
10.933875
10.808382
10.697529
10.600818
10.517284
10.445155
10.383173
10.329875
10.284536
10.246083
10.213617
10.186363
10.163681
10.145075
10.130195
10.118814
10.110849
10.10391
10.096692
10.089165
10.081297
10.07305
10.064385
10.055258
10.04562
10.035418
10.024592
10.01308
10.000821
9.9884873
9.9788396
9.9731095
9.9713342
9.9725097
9.9757592
9.9811779
9.987364
9.993255
10.004184
1282.9885
1673.5243
716.99839
472.74979
305.44245
237.54008
173.52141
139.64956
110.21253
91.021289
75.349905
63.895292
54.714864
47.567314
41.791223
37.125585
33.291881
30.117326
27.46283
25.22246
23.319824
21.688802
20.283318
19.065254
18.004091
17.075124
16.258757
15.53858
14.900983
14.33545
13.832779
13.385175
12.986034
12.629826
12.311934
12.028438
11.77595
11.551591
11.352796
11.177139
11.022905
10.887996
10.769024
10.663791
10.571818
10.492498
10.42394
10.36513
10.314714
10.271459
10.234775
10.203798
10.177773
10.156065
10.138172
10.123743
10.112533
10.10441
10.097318
10.089944
10.082259
10.074229
10.065819
10.056988
10.047693
10.037883
10.027507
10.016502
10.004801
9.9924548
9.9819348
9.9748942
9.9716323
9.9714475
9.9732834
9.976637
9.9817181
9.9872136
9.9930736
10.003219
1294.0794
1625.5776
695.36133
462.16476
298.07915
232.10286
169.44893
135.78016
106.9599
88.005112
72.79667
61.637906
52.778414
45.877016
40.324139
35.841636
32.167626
29.127769
26.591276
24.451566
22.634641
21.08095
19.743669
18.5859
17.578254
16.696688
15.92268
15.240595
14.636946
14.101913
13.626631
13.203552
12.826293
12.489555
12.188983
11.920908
11.682174
11.470054
11.281996
11.115664
10.969859
10.842358
10.729776
10.630254
10.543575
10.468376
10.403186
10.347345
10.299571
10.258695
10.223671
10.1941
10.169248
10.148483
10.131282
10.117302
10.106284
10.098062
10.090828
10.083311
10.07548
10.067303
10.058745
10.049764
10.040318
10.030359
10.019834
10.00868
9.9967633
9.9855178
9.9773587
9.9727638
9.9712915
9.9720358
9.9741824
9.9775212
9.9822617
9.9872434
9.9930819
10.002117
1305.6929
1580.686
674.60672
451.23011
291.06291
226.61739
165.40913
131.61929
103.50578
84.832507
70.124299
59.296127
50.776658
44.13938
38.820972
34.530569
31.023604
28.123216
25.703553
23.668416
21.94292
20.469368
19.202519
18.106783
17.154195
16.321096
15.590214
14.947071
14.37775
13.873325
13.425306
13.026476
12.670765
12.353178
12.069637
11.816724
11.591511
11.391412
11.213855
11.056453
10.918856
10.798342
10.691704
10.597572
10.515694
10.444693
10.383242
10.330127
10.284781
10.24608
10.212945
10.184655
10.160887
10.14102
10.124482
10.110936
10.100119
10.091844
10.084483
10.076837
10.068878
10.060572
10.051885
10.042777
10.033205
10.023123
10.012483
10.001266
9.9895741
9.9804644
9.9746619
9.9719387
9.9715484
9.9727465
9.9750099
9.9783236
9.982827
9.9874909
9.9934408
10.001354
1317.8331
1537.5668
654.84611
439.85329
284.28699
221.05535
160.9835
127.1317
99.812179
81.489859
67.322051
56.866528
48.708862
42.356078
37.285499
33.196672
29.856159
27.101625
24.80782
22.881571
21.250817
19.859945
18.665454
17.632971
16.736748
15.952758
15.265021
14.659416
14.124376
13.650304
13.229137
12.854067
12.519417
12.220539
11.953631
11.715518
11.503507
11.315179
11.148114
11.000362
10.870661
10.756449
10.655323
10.566358
10.489016
10.421936
10.363895
10.313773
10.270583
10.233893
10.202458
10.175614
10.152794
10.133769
10.117853
10.104718
10.094101
10.085802
10.078332
10.070578
10.06251
10.054098
10.045307
10.036099
10.026431
10.016254
10.005506
9.9940933
9.9841462
9.9772791
9.9733948
9.971875
9.9720405
9.9734052
9.9756745
9.9789671
9.9833438
9.9878976
9.9940121
10.000881
1330.2999
1494.5977
636.26653
427.8892
277.53773
214.85803
156.1102
122.27519
95.838243
77.9628
64.382078
54.3481
46.577706
40.531727
35.713011
31.836433
28.676585
26.075305
23.912718
22.099282
20.566092
19.259898
18.1393
17.170206
16.328652
15.59406
14.949866
14.382637
13.88138
13.437007
13.041944
12.689866
12.375537
12.094667
11.843725
11.619767
11.420321
11.243083
11.085762
10.946741
10.824827
10.71719
10.621083
10.536982
10.463878
10.400449
10.345543
10.298094
10.257164
10.222333
10.192443
10.166867
10.145066
10.126818
10.111476
10.098721
10.088295
10.079993
10.072434
10.064593
10.056442
10.04795
10.039083
10.029805
10.020076
10.009858
9.9991078
9.9883632
9.980529
9.9755862
9.97302
9.9721789
9.9726008
9.9739967
9.976228
9.9794609
9.9836073
9.987914
9.9938425
10.000655
1342.4849
1449.5228
619.09721
415.10374
270.56617
207.79608
150.62785
116.99664
91.545936
74.23707
61.301364
51.744169
44.390827
38.662468
34.116799
30.466533
27.49709
25.056031
23.029323
21.331746
19.898006
18.677393
17.628549
16.723359
15.937549
15.251704
14.650192
14.120328
13.651752
13.235948
12.865884
12.53575
12.240763
11.976983
11.74114
11.530534
11.342893
11.176001
11.02777
10.8969
10.782039
10.680025
10.589289
10.509705
10.440524
10.380477
10.328476
10.283504
10.244675
10.211548
10.183076
10.158663
10.137796
10.120253
10.105431
10.093022
10.082774
10.074479
10.066856
10.058954
10.050746
10.042204
10.033293
10.023978
10.014217
10.003964
9.9931829
9.9843784
9.978431
9.9748839
9.973114
9.9726375
9.9731824
9.9745741
9.9767716
9.9799286
9.9838613
9.9879943
9.9936532
10.000409
1353.155
1399.5429
603.71101
401.09276
264.88154
199.92267
144.35382
111.21896
86.917573
70.311244
58.088206
49.068049
42.146673
36.769542
32.515247
29.104572
26.334277
24.059068
22.171356
20.591006
19.25721
18.1197
17.1436
16.301094
15.569515
14.930733
14.370133
13.875859
13.438246
13.0494
12.70286
12.393332
12.116464
11.868643
11.646861
11.448657
11.271891
11.114449
10.974717
10.851575
10.743084
10.646428
10.560124
10.484711
10.419112
10.362156
10.312807
10.270096
10.233219
10.201634
10.174444
10.151084
10.131064
10.114153
10.099796
10.087698
10.077612
10.069335
10.061673
10.053738
10.045504
10.036944
10.028027
10.01872
10.008983
9.9987703
9.9888968
9.9819154
9.9773981
9.974737
9.9734203
9.9731527
9.9737715
9.9751601
9.9773191
9.9803513
9.9840303
9.9879627
9.993246
9.9995782
1360.0014
1350.582
590.33758
397.32845
261.1454
190.17029
137.36345
104.9093
81.967011
66.218954
54.770939
46.331856
39.882432
34.881835
30.934763
27.774307
25.209341
23.103047
21.354854
19.890105
18.652426
17.598704
16.692878
15.910364
15.230246
14.635769
14.113417
13.652225
13.243277
12.879327
12.554482
12.263935
12.003732
11.770568
11.561703
11.374859
11.207902
11.058779
10.927046
10.811163
10.708407
10.615886
10.533819
10.462181
10.399784
10.345582
10.298618
10.257877
10.222886
10.192668
10.166615
10.144198
10.124955
10.108601
10.094655
10.082834
10.072897
10.064646
10.056974
10.049036
10.040808
10.032263
10.023374
10.014107
10.00442
9.9942712
9.9861225
9.9805701
9.9769977
9.974858
9.9738104
9.9736814
9.9743588
9.9757573
9.9778836
9.9807746
9.9841883
9.9879372
9.9929134
9.9988094
1359.9581
1334.0613
579.69054
385.86636
250.75009
179.69528
129.4442
98.257536
76.786315
62.046322
51.420298
43.597544
37.64589
33.039991
29.410387
26.505557
24.14753
22.20945
20.598616
19.246488
18.101511
17.124303
16.284308
15.557507
14.924799
14.370855
13.883289
13.452051
13.068983
12.727469
12.422147
12.148658
11.903411
11.683417
11.486228
11.309741
11.151881
11.010949
10.88614
10.776091
10.677517
10.588727
10.510526
10.442238
10.382671
10.330805
10.286085
10.247323
10.213764
10.184733
10.159654
10.138032
10.119557
10.103688
10.090102
10.078525
10.068726
10.060512
10.052861
10.04495
10.036759
10.028269
10.019456
10.010298
10.000768
9.9912661
9.9845162
9.9799361
9.9769332
9.9751062
9.9742411
9.9742203
9.9749544
9.9763743
9.978476
9.9812432
9.9844497
9.9880294
9.9926486
9.9980081
1348.0693
1324.5503
564.61362
367.66366
238.44106
168.0708
120.77507
91.347962
71.504539
57.886651
48.120696
40.936654
35.497165
31.29355
27.98268
25.330896
23.174439
21.398139
19.917976
18.67208
17.614073
16.708584
15.928178
15.251255
14.660596
14.142336
13.685236
13.280151
12.919638
12.597658
12.309311
12.050603
11.818239
11.609525
11.422272
11.254499
11.104146
10.969996
10.851364
10.745975
10.650551
10.564879
10.490204
10.424983
10.3681
10.318594
10.27558
10.23827
10.205965
10.177967
10.153715
10.132919
10.114973
10.099518
10.086241
10.074879
10.065209
10.057046
10.049445
10.04159
10.033461
10.025034
10.016285
10.007191
9.9977226
9.9895023
9.9837161
9.9797252
9.9770569
9.9754345
9.9747079
9.9747822
9.9755769
9.9770254
9.9791065
9.9817706
9.9848263
9.9882737
9.992578
9.9974319
1319.2483
1263.0326
549.69774
346.77601
224.07313
155.57563
111.72426
84.454454
66.335354
53.895188
45.000248
38.458701
33.519082
29.704418
26.697826
24.285528
22.315788
20.68755
19.325726
18.175157
17.194546
16.352396
15.62424
14.990767
14.436524
13.949014
13.518069
13.135379
12.794158
12.488869
12.214998
11.96884
11.747347
11.548049
11.368854
11.208412
11.064514
10.936453
10.823003
10.720947
10.628401
10.546238
10.474265
10.411366
10.356459
10.308602
10.266948
10.23073
10.199543
10.172507
10.149091
10.128828
10.111314
10.096198
10.08318
10.072005
10.06246
10.054368
10.046861
10.039112
10.031102
10.02281
10.014215
10.005292
9.9960149
9.9886862
9.9834607
9.9797899
9.9773147
9.9758256
9.9751984
9.9753471
9.9761905
9.9776581
9.979714
9.982292
9.9852448
9.9886129
9.9926959
9.9971833
1270.4533
1200.2878
536.23252
325.62712
208.97473
143.35843
103.18569
78.224964
61.772217
50.459837
42.38024
36.434366
31.93832
28.456095
25.700955
23.48031
21.661596
20.151549
18.883092
17.806949
16.886181
16.092554
15.40407
14.803295
14.276223
13.811483
13.399776
13.03347
12.7063
12.413136
12.149776
11.91277
11.699323
11.507175
11.334271
11.178619
11.039124
10.915168
10.804453
10.703728
10.612837
10.532653
10.462279
10.401088
10.347646
10.301056
10.260505
10.225259
10.194658
10.168115
10.145114
10.125198
10.107974
10.093099
10.08028
10.06927
10.059862
10.051887
10.044564
10.037017
10.029232
10.021192
10.012877
10.00427
9.9953489
9.9885587
9.9836149
9.980093
9.9777113
9.976291
9.9757174
9.9759015
9.9767554
9.9782051
9.9802018
9.9826718
9.9855082
9.988759
9.9925828
9.9966779
1205.1281
1129.1087
525.56343
306.05185
193.78773
131.47249
95.051318
72.450637
57.595357
47.365095
40.054775
34.663144
30.572156
27.389108
24.857858
22.806928
21.118493
19.709606
18.52052
17.507242
16.636731
15.883633
15.228114
14.654376
14.149667
13.703581
13.307561
12.954544
12.638695
12.355204
12.100103
11.870148
11.662743
11.475689
11.30748
11.156016
11.020737
10.900179
10.790804
10.691158
10.602392
10.524227
10.455544
10.395367
10.342757
10.296857
10.25688
10.222113
10.191914
10.16571
10.142994
10.123319
10.106298
10.091596
10.078924
10.068044
10.058754
10.050892
10.043711
10.036315
10.02869
10.020818
10.012684
10.00427
9.9955549
9.9889078
9.9840229
9.9805347
9.9781827
9.9767923
9.9762442
9.9764392
9.9772851
9.9787068
9.9806472
9.9830341
9.9857945
9.9889555
9.9925689
9.9964034
1152.0874
1090.3823
516.71467
295.06036
185.49182
125.51204
91.042565
69.762763
55.771235
46.113383
39.189121
34.059102
30.147157
27.088181
24.644134
22.655315
21.011665
19.635435
18.470403
17.475033
16.617869
15.874717
15.22658
14.658281
14.157537
13.71431
13.320325
12.968728
12.653837
12.370938
12.116142
11.8863
11.678841
11.49147
11.322246
11.170115
11.034054
10.911304
10.799243
10.698171
10.608629
10.529681
10.460257
10.399383
10.346139
10.299671
10.259196
10.223999
10.193433
10.166921
10.143949
10.124063
10.106869
10.092024
10.079235
10.068256
10.058883
10.05095
10.043941
10.036724
10.029283
10.021604
10.013672
10.005469
9.9969798
9.9900489
9.9849558
9.9813272
9.9788822
9.9774284
9.9768299
9.9769759
9.9777701
9.9791344
9.981003
9.9833094
9.9860004
9.9890727
9.9925137
9.9961902
1155.1927
1137.4739
528.95374
299.78218
186.84082
125.59918
90.756818
69.39128
55.41275
45.806699
38.943954
33.87116
30.007186
26.986533
24.572283
22.606195
20.979554
19.615766
18.459573
17.47032
16.617372
15.877105
15.230969
14.664113
14.164471
13.722128
13.328866
12.977866
12.663444
12.380881
12.126322
11.896673
11.689235
11.501555
11.332144
11.180394
11.044091
10.919348
10.805545
10.703995
10.614025
10.534524
10.46453
10.403087
10.349304
10.302343
10.261429
10.225854
10.194976
10.168216
10.145062
10.125057
10.107802
10.092949
10.080199
10.069297
10.060029
10.052211
10.045357
10.038293
10.031005
10.023478
10.015698
10.007648
9.9993133
9.9918302
9.9863333
9.9824386
9.9798227
9.9782485
9.977549
9.9776015
9.9783092
9.9795908
9.9813768
9.9836046
9.9862275
9.9892171
9.9925384
9.9961378
24847.59
30784.786
13862.331
8775.9874
5905.7114
4183.2604
3033.021
2241.6287
1666.2271
1251.7686
944.26099
704.97816
526.60106
394.92574
297.98245
227.22151
175.60357
137.92235
110.34297
90.018961
74.953759
63.597795
54.916788
48.11258
42.678542
38.246538
34.562388
31.448422
28.777544
26.459135
24.430502
22.648161
21.077599
19.690567
18.461645
17.368123
16.39583
15.532296
14.769344
14.102084
13.521432
13.014842
12.570205
12.188954
11.863914
11.587584
11.352984
11.153468
10.984161
10.840691
10.719673
10.618406
10.535027
10.469679
10.423348
10.394229
10.377162
10.365908
10.356189
10.345212
10.329441
10.304581
10.270533
10.231442
10.191209
10.154594
10.121375
10.095581
10.071568
10.05766
10.041655
10.04059
10.033567
10.043311
10.049638
10.067136
10.072462
10.125023
10.049809
10.181257
46899.044
31380.165
18760.586
11529.712
7540.2614
5149.6212
3631.1057
2619.2946
1921.3418
1427.2191
1070.5872
808.60506
610.73975
461.35563
349.58425
266.40705
204.80402
159.34686
125.91898
101.23257
83.052229
69.445914
59.199774
51.297462
45.100797
40.131289
36.061566
32.664721
29.778565
27.2943
25.131895
23.239731
21.578332
20.115628
18.823869
17.676119
16.657495
15.752889
14.955975
14.259028
13.652126
13.122934
12.659499
12.260579
11.920564
11.631372
11.38601
11.178227
11.002279
10.853508
10.728195
10.623465
10.537173
10.469376
10.421249
10.391128
10.373798
10.362747
10.353509
10.343219
10.328173
10.303839
10.270147
10.231302
10.191184
10.154667
10.121491
10.095796
10.071863
10.058006
10.042178
10.040957
10.034671
10.044067
10.051182
10.068402
10.073492
10.126403
10.050603
10.181034
49106.235
18857.385
6179.1724
1658.4192
658.84839
392.84512
292.34354
234.67363
197.16642
169.21274
146.9523
128.92445
113.7952
101.0688
90.184097
81.079721
73.095523
66.07173
60.014925
54.403659
49.793935
45.376995
41.652093
38.185345
35.14839
32.417093
29.978775
27.794021
25.818898
24.03949
22.431569
20.990126
19.698041
18.540344
17.503391
16.566565
15.722291
14.962835
14.296284
13.71241
13.199614
12.747614
12.34724
12.005803
11.713072
11.462365
11.24815
11.065268
10.909955
10.778326
10.667233
10.574217
10.497809
10.439133
10.399621
10.3765
10.363693
10.355188
10.347138
10.337216
10.321473
10.295518
10.260709
10.221908
10.182761
10.147744
10.116111
10.091902
10.069158
10.056387
10.041414
10.04086
10.035615
10.045172
10.053272
10.069938
10.074932
10.128024
10.050131
10.181598
47050.287
16294.857
3769.6798
833.71654
458.74844
335.12103
269.77728
221.29648
188.4957
162.77945
141.88776
124.90214
110.4696
98.326886
87.876723
79.198312
71.444389
64.620405
58.75729
53.250045
48.793925
44.447587
40.822555
37.421577
34.497402
31.830088
29.464666
27.335682
25.420096
23.695073
22.139921
20.73949
19.481419
18.357927
17.351951
16.441871
15.615842
14.874488
14.217424
13.643449
13.139574
12.695354
12.308798
11.974366
11.686455
11.43921
11.227527
11.046952
10.893571
10.763605
10.653958
10.562275
10.487263
10.43019
10.392284
10.370433
10.358497
10.350585
10.342994
10.333366
10.317535
10.291363
10.256685
10.2183
10.179783
10.145345
10.114396
10.090599
10.068512
10.055876
10.041616
10.040829
10.036736
10.045771
10.055133
10.070764
10.076218
10.128381
10.050483
10.180788
47767.807
15926.798
3434.9373
823.98267
462.32787
336.69733
270.27444
220.75905
186.5975
160.24146
139.32139
122.51893
108.26567
96.493965
86.297547
77.597918
70.004449
63.37414
57.522684
52.363389
47.732202
43.635267
39.977825
36.735789
33.841611
31.259197
28.949535
26.879898
25.018225
23.344072
21.834374
20.474396
19.252891
18.163033
17.186437
16.30073
15.496023
14.776513
14.138798
13.580191
13.088286
12.653956
12.274663
11.945844
11.662493
11.418785
11.209847
11.031462
10.879889
10.751398
10.642959
10.552347
10.478498
10.422781
10.386207
10.365361
10.354065
10.346555
10.339256
10.329764
10.313702
10.287247
10.252664
10.214674
10.176745
10.142877
10.112558
10.089202
10.067694
10.055281
10.041598
10.040741
10.037608
10.046307
10.05671
10.071519
10.077364
10.128381
10.050763
10.179504
47666.278
14775.479
2714.0553
704.90515
447.93744
330.40966
266.71571
216.9715
183.46249
157.25281
136.51486
119.98721
105.9793
94.490129
84.474262
75.968494
68.530341
62.047687
56.33157
51.270883
46.770454
42.767726
39.217769
36.059864
33.24613
30.733715
28.487883
26.474894
24.66321
23.034215
21.564318
20.239789
19.050303
17.989587
17.038523
16.174157
15.391007
14.691072
14.06901
13.523167
13.041466
12.615524
12.242236
11.918604
11.639321
11.398794
11.19234
11.015922
10.865968
10.738812
10.631475
10.541861
10.46916
10.414769
10.379469
10.359569
10.348881
10.341764
10.334755
10.325381
10.309082
10.282393
10.247972
10.21043
10.17314
10.139864
10.110223
10.087317
10.066448
10.054234
10.041212
10.040197
10.038148
10.046321
10.058261
10.071808
10.078427
10.127608
10.050966
10.17697
47428.189
13127.282
2195.1955
653.64815
442.83656
327.99705
264.28484
214.89939
181.38351
155.35866
134.67264
118.28154
104.33561
92.963546
83.071505
74.706034
67.379943
61.002092
55.377898
50.40334
45.974123
42.047022
38.566828
35.475898
32.724101
30.269019
28.075687
26.109971
24.340635
22.750382
21.315008
20.021668
18.860662
17.826114
16.898267
16.053456
15.289133
14.607739
14.000301
13.466976
12.99516
12.576818
12.210158
11.891771
11.616524
11.379141
11.175123
11.000625
10.852225
10.72633
10.620002
10.531294
10.459683
10.406519
10.372365
10.353293
10.343113
10.336318
10.329535
10.320203
10.303624
10.276723
10.242497
10.205434
10.168815
10.136148
10.107214
10.08478
10.06458
10.052576
10.040251
10.039058
10.038064
10.045594
10.059124
10.071482
10.0793
10.125824
10.05107
10.172618
46726.698
11259.781
1757.5547