/*--------------------------------*- C++ -*----------------------------------*\
  =========                 |
  \\      /  F ield         | OpenFOAM: The Open Source CFD Toolbox
   \\    /   O peration     | Website:  https://openfoam.org
    \\  /    A nd           | Version:  6
     \\/     M anipulation  |
\*---------------------------------------------------------------------------*/
FoamFile
{
    version     2.0;
    format      ascii;
    class       volScalarField;
    location    "50";
    object      p;
}
// * * * * * * * * * * * * * * * * * * * * * * * * * * * * * * * * * * * * * //

dimensions      [1 -1 -2 0 0 0 0];

internalField   nonuniform List<scalar> 
16000
(
97826.077
97900.165
97908.269
97978.472
97998.386
98061.668
98094.037
98151.626
98194.073
98248.747
98298.271
98352.676
98406.845
98462.696
98520.003
98578.039
98637.704
98697.991
98759.599
98821.862
98885.083
98948.9
99013.353
99078.233
99143.453
99208.85
99274.287
99339.606
99404.644
99469.251
99533.276
99596.372
99658.718
99719.493
99778.346
99835.553
99890.932
99945.057
99997.505
100047.88
100096.17
100142.32
100186.19
100227.7
100266.8
100303.44
100337.57
100369.19
100398.29
100424.89
100449
100470.66
100489.92
100506.85
100521.51
100533.98
100544.33
100552.66
100559.05
100563.6
100566.4
100567.53
100567.08
100565.14
100561.71
100557.01
100550.6
100543.56
100533.29
100525.12
100507.23
100502.82
100466.69
100479.62
100392.37
100467.13
100268.33
100495.46
100097.1
100563.59
97813.001
97893.16
97901.474
97978.343
97999.012
98068.706
98102.771
98165.983
98211.064
98270.626
98323.461
98382.246
98440.079
98500.005
98561.084
98622.993
98686.386
98750.371
98815.566
98881.325
98947.919
99014.981
99082.531
99150.341
99218.311
99286.259
99354.033
99421.454
99488.349
99554.537
99619.83
99684.052
99747.056
99808.462
99868.453
99926.142
99981.643
100034.6
100085.77
100134.84
100181.45
100225.64
100267.38
100306.56
100343.15
100377.14
100408.51
100437.29
100463.49
100487.15
100508.32
100527.06
100543.45
100557.55
100569.45
100579.25
100587.03
100592.88
100596.9
100599.18
100599.81
100598.89
100596.47
100592.64
100587.44
100580.95
100573.02
100564.07
100552.89
100541.99
100525.19
100514.89
100484.39
100486.51
100418.22
100467.06
100305.06
100489.89
100132.36
100562.06
97817.783
97904.868
97913.49
97997.686
98019.161
98095.558
98131.146
98200.126
98247.679
98312.212
98368.231
98431.446
98492.854
98556.885
98621.684
98687.485
98754.576
98822.26
98891.016
98960.25
99030.175
99100.424
99170.985
99241.615
99312.19
99382.506
99452.39
99521.646
99590.08
99657.497
99723.702
99788.497
99851.698
99913.127
99972.578
100029.93
100084.94
100137.02
100186.15
100233.12
100277.58
100319.2
100358.17
100394.41
100427.87
100458.62
100486.65
100512.02
100534.78
100555
100572.75
100588.12
100601.21
100612.1
100620.89
100627.69
100632.6
100635.72
100637.14
100636.95
100635.26
100632.13
100627.64
100621.86
100614.83
100606.58
100597.07
100586.43
100574.11
100561.2
100544.51
100530.71
100503.93
100496.92
100442
100471.05
100337.53
100487.35
100165.18
100563.08
97845.618
97940.334
97949.263
98041.633
98063.451
98146.96
98183.895
98258.966
98309.082
98378.861
98438.242
98506.157
98571.35
98639.737
98708.458
98778.36
98849.315
98920.847
98993.264
99066.036
99139.302
99212.697
99286.168
99359.457
99432.408
99504.799
99576.43
99647.087
99716.559
99784.632
99851.101
99915.765
99978.431
100038.91
100097.06
100152.74
100205.68
100256.02
100303.15
100346.81
100388.09
100426.36
100461.59
100494
100523.49
100550.14
100574.04
100595.23
100613.82
100629.91
100643.59
100654.99
100664.19
100671.34
100676.53
100679.88
100681.5
100681.49
100679.96
100676.99
100672.67
100667.09
100660.3
100652.37
100643.32
100633.18
100621.93
100609.59
100595.88
100581.23
100563.97
100547.58
100522.86
100509.86
100464.2
100478.39
100367.47
100488.8
100198.2
100570.28
97890.205
97993.424
98002.858
98103.534
98125.981
98217.36
98256.42
98338.377
98391.719
98467.385
98530.672
98603.801
98673.211
98746.359
98819.335
98893.636
98968.686
99044.253
99120.456
99196.838
99273.452
99349.937
99426.195
99501.95
99577.013
99651.14
99724.107
99795.68
99865.631
99933.736
99999.779
100063.56
100124.88
100183.58
100239.5
100292.52
100342.55
100389.44
100433.35
100473.69
100510.46
100544.49
100575.19
100602.89
100627.65
100649.47
100668.52
100684.89
100698.7
100710.09
100719.17
100726.1
100731
100733.99
100735.21
100734.78
100732.82
100729.43
100724.71
100718.75
100711.64
100703.45
100694.24
100684.05
100672.91
100660.83
100647.8
100633.78
100618.62
100602.43
100584.34
100566.01
100542.34
100525.01
100486.14
100488.39
100396.46
100492.55
100229.3
100581.26
97954.7
98067.493
98077.094
98187.076
98211.036
98310.905
98352.657
98441.829
98498.821
98580.74
98648.345
98727.04
98801.037
98879.264
98956.796
99035.754
99115.112
99194.876
99274.968
99354.998
99434.925
99514.391
99593.245
99671.188
99747.999
99823.408
99897.169
99969.028
100038.75
100106.09
100170.84
100232.81
100291.8
100347.68
100400.31
100449.6
100495.49
100537.96
100576.9
100612.71
100644.31
100673.03
100698.48
100720.63
100739.82
100756.06
100769.54
100780.42
100788.83
100794.96
100798.94
100800.94
100801.1
100799.58
100796.49
100791.99
100786.17
100779.16
100771.05
100761.92
100751.86
100740.93
100729.17
100716.64
100703.33
100689.26
100674.4
100658.7
100642.05
100624.41
100605.32
100585.46
100562.16
100541.7
100507.77
100500.58
100424.45
100498.3
100260.99
100595.58
98042.168
98165.793
98175.314
98295.896
98321.014
98429.879
98474.324
98571.023
98632.017
98720.427
98792.733
98877.254
98956.18
99039.743
99122.098
99205.915
99289.75
99373.814
99457.832
99541.469
99624.587
99706.82
99787.96
99867.684
99945.733
100021.81
100095.66
100167
100235.6
100301.21
100363.63
100422.68
100478.2
100530.08
100578.23
100622.61
100663.19
100700.03
100733.17
100762.46
100788.76
100810.85
100829.95
100845.66
100858.42
100868.33
100875.57
100880.35
100882.83
100883.21
100881.66
100878.36
100873.46
100867.13
100859.49
100850.69
100840.85
100830.06
100818.42
100806.01
100792.91
100779.16
100764.81
100749.88
100734.39
100718.31
100701.63
100684.27
100666.14
100647.15
100627
100605.89
100582.56
100559.89
100529.5
100514.83
100452.23
100506.39
100293.39
100611.71
98150.433
98285.967
98295.322
98427.426
98454.053
98572.724
98620.65
98725.476
98791.274
98886.705
98964.435
99055.275
99139.713
99229.038
99316.641
99405.623
99494.178
99582.675
99670.657
99757.825
99843.94
99928.623
100011.61
100092.54
100171.14
100247.08
100320.09
100389.88
100456.23
100518.9
100577.72
100632.53
100683.23
100729.75
100772.05
100810.17
100844.15
100874.1
100900.09
100922.35
100941.27
100956.02
100967.73
100976.27
100981.86
100984.79
100985.19
100983.35
100979.43
100973.67
100966.25
100957.35
100947.15
100935.79
100923.43
100910.2
100896.2
100881.54
100866.3
100850.56
100834.37
100817.78
100800.81
100783.49
100765.82
100747.76
100729.27
100710.3
100690.73
100670.44
100649.24
100627.09
100603.45
100579.28
100551.3
100530.89
100479.66
100516.3
100325.73
100628.93
98278.062
98426.871
98436.3
98581.331
98610.362
98739.82
98792.277
98906.044
98977.715
99080.872
99164.956
99262.737
99353.409
99448.996
99542.327
99636.79
99730.286
99823.29
99915.176
100005.66
100094.42
100181.04
100265.2
100346.53
100424.72
100499.43
100570.38
100637.31
100700
100758.25
100811.94
100860.96
100905.28
100944.88
100979.82
101010.2
101036.17
101057.87
101075.49
101089.42
101099.38
101106.31
101109.86
101110.5
101108.28
101103.64
101096.72
101087.83
101077.16
101064.96
101051.42
101036.74
101021.07
101004.59
100987.42
100969.69
100951.5
100932.95
100914.11
100895.04
100875.78
100856.38
100836.84
100817.17
100797.35
100777.36
100757.14
100736.61
100715.66
100694.17
100671.95
100648.92
100624.81
100599.71
100573.24
100548.68
100506.98
100528.07
100359.58
100646.84
98425.26
98589.268
98599.572
98759.529
98791.96
98933.612
98991.826
99115.483
99194.227
99305.85
99397.276
99502.606
99600.215
99702.503
99801.965
99902.102
100000.62
100098.02
100193.54
100286.89
100377.64
100465.38
100549.73
100630.3
100706.75
100778.78
100846.1
100908.49
100965.77
101017.83
101064.57
101106
101142.16
101173.13
101199.08
101220.19
101236.7
101248.84
101256.94
101261.3
101261.8
101259.8
101254.37
101246.36
101235.75
101223.04
101208.39
101192.14
101174.48
101155.67
101135.89
101115.33
101094.17
101072.53
101050.56
101028.37
101006.04
100983.65
100961.27
100938.94
100916.69
100894.55
100872.51
100850.57
100828.71
100806.87
100784.99
100762.99
100740.76
100718.14
100694.97
100671.17
100646.54
100620.94
100595.29
100567.99
100534.12
100541.36
100394.14
100665.84
98597.797
98780.344
98791.788
98968.084
99004.234
99159.012
99223.876
99358.055
99444.899
99565.533
99665.163
99778.513
99883.635
99992.913
100098.74
100204.54
100307.92
100409.33
100507.89
100603.3
100695.03
100782.65
100865.75
100943.94
101016.89
101084.32
101146.01
101201.79
101251.56
101295.29
101333.01
101364.82
101390.87
101411.38
101426.62
101436.89
101442.51
101443.83
101441.27
101435.06
101425.56
101413.72
101398.63
101381.39
101361.99
101340.89
101318.31
101294.54
101269.81
101244.33
101218.32
101191.93
101165.32
101138.63
101111.96
101085.42
101059.06
101032.97
101007.18
100981.73
100956.62
100931.87
100907.46
100883.37
100859.57
100836
100812.59
100789.23
100765.79
100742.14
100718.12
100693.65
100668.53
100642.75
100617.43
100588.7
100561.06
100556.32
100430.58
100685.34
98798.839
99002.548
99014.102
99208.833
99249.391
99418.499
99491.3
99636.825
99733.051
99863.38
99972.186
100094.06
100207.24
100323.71
100435.95
100547.19
100654.96
100759.62
100860.22
100956.39
101047.55
101133.28
101213.14
101286.78
101353.92
101414.34
101467.91
101514.57
101554.34
101587.32
101613.68
101633.66
101647.55
101655.72
101658.54
101656.45
101649.86
101639.21
101624.98
101607.44
101587.28
101564.78
101539.81
101513.06
101484.71
101455.13
101424.57
101393.3
101361.55
101329.52
101297.4
101265.34
101233.47
101201.91
101170.74
101140.04
101109.87
101080.27
101051.26
101022.87
100995.08
100967.89
100941.28
100915.2
100889.62
100864.47
100839.64
100815.04
100790.53
100765.95
100741.18
100716.14
100690.63
100664.9
100639.61
100610.55
100587.69
100572.87
100467.69
100704.14
99026.976
99255.011
99267.379
99483.219
99529.641
99714.728
99797.304
99955.313
100062.52
100203.4
100322.45
100453.37
100575.05
100698.7
100817.14
100933.18
101044.4
101151.02
101252.03
101347.01
101435.39
101516.74
101590.68
101656.93
101715.32
101765.74
101808.22
101842.84
101869.8
101889.37
101901.89
101907.76
101907.46
101901.46
101890.29
101874.49
101854.56
101831.01
101804.39
101774.98
101743.59
101710.27
101675.34
101639.03
101601.72
101563.73
101525.32
101486.74
101448.19
101409.86
101371.9
101334.45
101297.6
101261.45
101226.06
101191.49
101157.77
101124.92
101092.95
101061.85
101031.6
101002.19
100973.58
100945.71
100918.53
100891.95
100865.87
100840.16
100814.69
100789.3
100763.89
100738.39
100712.65
100687.15
100661.8
100633.33
100613.94
100590.64
100504.81
100722.61
99286.312
99542.794
99556.566
99796.301
99850.311
100053.05
100147.45
100319.09
100438.92
100591.14
100721.34
100861.56
100991.81
101122.22
101246.03
101365.6
101478.59
101585.05
101683.98
101774.96
101857.44
101931.07
101995.61
102050.9
102096.94
102133.84
102161.8
102181.14
102192.27
102195.66
102191.86
102181.44
102165.04
102143.29
102116.83
102086.27
102052.18
102015.15
101975.74
101934.25
101891.5
101847.64
101802.67
101756.97
101710.91
101664.81
101618.87
101573.33
101528.35
101484.1
101440.69
101398.22
101356.78
101316.41
101277.17
101239.07
101202.12
101166.34
101131.69
101098.17
101065.74
101034.36
101003.97
100974.52
100945.93
100918.11
100890.93
100864.27
100837.97
100811.89
100785.98
100760.17
100734.41
100709.29
100683.95
100656.79
100639.85
100609.47
100541.68
100740.65
99581.305
99871.087
99886.939
100153.71
100217.51
100439.63
100548.25
100734.64
100868.74
101032.92
101174.87
101324.26
101462.54
101598.53
101726.04
101846.89
101958.91
102062
102155.23
102238.26
102310.66
102372.28
102423.04
102463.05
102492.57
102511.96
102521.71
102522.39
102514.66
102499.21
102476.81
102448.22
102414.19
102375.49
102332.82
102286.88
102238.24
102187.56
102135.38
102081.9
102028.06
101974.05
101919.4
101864.74
101810.39
101756.66
101703.69
101651.7
101600.81
101551.14
101502.78
101455.78
101410.2
101366.06
101323.38
101282.15
101242.36
101204
101167.02
101131.39
101097.06
101063.97
101032.07
101001.27
100971.48
100942.6
100914.5
100887.03
100860.04
100833.44
100807.2
100781.25
100755.71
100731.06
100705.95
100680.65
100665.31
100629.88
100578.14
100757.38
99916.364
100245.53
100264.85
100562.06
100638.6
100881.94
101007.53
101209.74
101359.61
101536.02
101689.7
101847.33
101992.1
102131.37
102259.59
102378.1
102484.94
102580
102662.53
102732.36
102789.35
102833.63
102865.45
102885.28
102893.69
102891.41
102879.23
102858.01
102828.67
102792.14
102749.35
102701.2
102648.57
102592.27
102533.07
102471.64
102408.58
102344.55
102280.01
102215.02
102150.79
102087.37
102023.59
101960.62
101898.61
101837.9
101778.56
101720.77
101664.59
101610.1
101557.36
101506.39
101457.2
101409.79
101364.13
101320.22
101278
101237.44
101198.48
101161.08
101125.16
101090.65
101057.49
101025.58
100994.82
100965.07
100936.21
100908.09
100880.59
100853.65
100827.25
100801.4
100776.29
100752.23
100727.62
100704.42
100689.71
100651.81
100614.63
100772.98
100298.68
100674.28
100699.12
101030.47
101123.46
101389.67
101535.15
101753.91
101920.49
102108.58
102272.83
102436.43
102584.54
102723.03
102847.1
102957.73
103053.33
103133.93
103199.15
103249.19
103284.33
103305.13
103312.32
103306.78
103289.51
103261.6
103224.16
103178.36
103125.32
103066.15
103001.91
102933.58
102862.09
102788.24
102712.8
102636.39
102559.57
102483
102406.89
102331.26
102257.86
102185.84
102113.66
102043.2
101974.35
101907.47
101842.53
101779.68
101718.93
101660.32
101603.84
101549.5
101497.26
101447.11
101398.98
101352.84
101308.62
101266.27
101225.7
101186.87
101149.67
101114.04
101079.89
101047.1
101015.57
100985.15
100955.71
100927.13
100899.3
100872.21
100845.9
100820.36
100795.91
100772.52
100748.72
100727.66
100712.98
100674.78
100649.96
100787.53
100736.78
101167.45
101200.9
101570.19
101684.49
101974.89
102142.9
102378.18
102561.2
102758.91
102930.56
103095.69
103241.53
103372.66
103485.22
103580.06
103656.2
103714.05
103753.85
103776.36
103782.46
103773.3
103750.15
103714.37
103667.38
103610.63
103545.51
103473.39
103395.56
103313.2
103227.42
103139.2
103049.41
102958.84
102868.13
102777.82
102688.43
102600.52
102513.98
102429.09
102347.89
102267.89
102188.39
102111.46
102036.78
101964.65
101895
101827.92
101763.37
101701.34
101641.81
101584.73
101530.04
101477.69
101427.6
101379.7
101333.91
101290.16
101248.37
101208.43
101170.28
101133.8
101098.91
101065.47
101033.38
101002.48
100972.65
100943.79
100915.85
100888.86
100862.85
100837.88
100814.24
100791.64
100768.87
100749.89
100735.25
100697.96
100683
100800.67
101242.08
101738.04
101784.25
102194.96
102336.65
102652.28
102844.43
103094.34
103291.18
103493.74
103666.49
103825.43
103960.03
104074.04
104164.73
104233.26
104279.59
104304.83
104310.07
104296.84
104266.76
104221.6
104163.2
104093.37
104013.88
103926.41
103832.55
103733.73
103631.29
103526.38
103420.04
103313.16
103206.5
103100.72
102996.33
102893.73
102793.4
102695.67
102600.17
102507.66
102419.77
102332.79
102247.35
102165.03
102085.58
102009.16
101935.72
101865.24
101797.68
101732.98
101671.07
101611.88
101555.33
101501.32
101449.76
101400.56
101353.64
101308.88
101266.2
101225.5
101186.68
101149.62
101114.23
101080.36
101047.9
101016.72
100986.7
100957.79
100929.97
100903.31
100877.83
100853.63
100830.95
100809.2
100787.64
100770.84
100756.41
100718.52
100714.85
100813.24
101830.91
102404.31
102469.2
102923.01
103097.26
103437.28
103653.5
103913.05
104117.07
104315.7
104478.75
104619.37
104729.58
104812.95
104868.38
104897.82
104902.53
104884.63
104846.24
104789.74
104717.48
104631.83
104535.03
104429.2
104316.28
104198.05
104076.07
103951.74
103826.24
103700.62
103575.74
103452.3
103330.91
103212.05
103096.02
102983.11
102873.78
102767.96
102665.08
102566.69
102473.43
102380.82
102290.64
102203.99
102120.8
102041.06
101964.71
101891.68
101821.89
101755.23
101691.61
101630.92
101573.06
101517.91
101465.36
101415.31
101367.63
101322.24
101279.01
101237.84
101198.62
101161.23
101125.56
101091.47
101058.84
101027.57
100997.58
100968.84
100941.39
100915.28
100890.54
100867.28
100845.62
100824.8
100804.76
100789.88
100774.3
100738.63
100745.51
100823.69
102532.81
103197.64
103291.82
103787.49
103995.37
104346.36
104581.56
104842.45
105040.65
105219.97
105356.14
105460.58
105528.59
105564.4
105568.99
105545.65
105497.1
105426.6
105337.28
105232.22
105114.33
104986.3
104850.55
104709.24
104564.25
104417.22
104269.53
104122.35
103976.63
103833.17
103692.58
103555.35
103421.88
103292.43
103167.11
103046.17
102929.91
102817.69
102709.2
102607.06
102509.83
102412.46
102318.58
102228.65
102142.73
102060.61
101982.24
101907.46
101836.18
101768.24
101703.53
101641.92
101583.27
101527.46
101474.36
101423.84
101375.79
101330.09
101286.61
101245.25
101205.87
101168.37
101132.62
101098.5
101065.9
101034.75
101005.01
100976.68
100949.83
100924.48
100900.65
100878.45
100857.84
100838.04
100819.63
100806.22
100790.04
100758.73
100771.9
100831.53
103378.32
104139.26
104268.61
104787.41
105036.43
105413.19
105642.83
105881.59
106050.1
106185.25
106270.26
106315.68
106320.69
106290.91
106229.64
106141.61
106030.93
105901.77
105757.9
105602.78
105439.44
105270.52
105098.29
104924.65
104751.18
104579.18
104409.68
104243.52
104081.33
103923.59
103770.67
103622.81
103480.17
103342.78
103210.66
103084.02
102962.77
102845.8
102733.94
102630.16
102528.72
102427.59
102331.44
102239.42
102151.8
102068.24
101988.67
101912.92
101840.82
101772.24
101707.02
101645
101586.04
101530
101476.74
101426.13
101378.02
101332.3
101288.84
101247.52
101208.21
101170.79
101135.16
101101.2
101068.83
101038.02
101008.76
100981.07
100955.01
100930.58
100907.79
100886.71
100867.2
100848.54
100831.87
100819.7
100803.4
100776.62
100793.85
100836.8
104404.66
105247.98
105427.38
106001.76
106258.28
106598.83
106808.37
106993.4
107102.38
107163.9
107170.54
107133.46
107056.11
106945.84
106808.08
106648.63
106472.43
106283.99
106087.09
105885
105680.41
105475.51
105272.08
105071.52
104874.91
104683.09
104496.68
104316.11
104141.67
103973.56
103811.84
103656.55
103507.63
103364.93
103228.43
103098.24
102973.63
102853.74
102740.94
102635.68
102530.59
102427.9
102330.28
102237.22
102148.73
102064.55
101984.52
101908.45
101836.16
101767.49
101702.25
101640.29
101581.45
101525.56
101472.49
101422.09
101374.22
101328.74
101285.53
101244.46
101205.41
101168.27
101132.94
101099.33
101067.41
101037.15
101008.57
100981.71
100956.59
100933.19
100911.5
100891.57
100873.16
100855.75
100840.83
100829.6
100813.22
100791.66
100810.89
100839.53
105680.11
106612.77
106838.51
107378.89
107624.26
107898.84
108037.49
108127.11
108135.94
108090.64
107991.98
107852.79
107679.88
107481.75
107264.81
107034.99
106797.06
106554.98
106311.9
106070.3
105832.1
105598.77
105371.39
105150.72
104937.29
104731.45
104533.37
104343.14
104160.73
103986.04
103818.94
103659.28
103506.79
103361.23
103222.6
103090.7
102964.2
102843.4
102731.67
102624.83
102517.27
102414.03
102315.86
102222.64
102134.1
102050.02
101970.2
101894.42
101822.49
101754.21
101689.41
101627.92
101569.55
101514.16
101461.58
101411.66
101364.27
101319.27
101276.51
101235.89
101197.28
101160.59
101125.73
101092.67
101061.38
101031.87
101004.15
100978.26
100954.18
100931.86
100911.29
100892.5
100875.17
100859.07
100845.68
100835.09
100819.68
100803.23
100821.28
100838.94
107281.34
108227.01
108451.97
108913.9
109078.69
109225.79
109236.08
109184.04
109056.34
108879.31
108659.97
108411.78
108142.89
107861.34
107572.95
107282.55
106993.69
106709.09
106430.73
106160.01
105897.89
105644.99
105401.66
105168.06
104944.22
104730.03
104525.32
104329.85
104143.36
103965.55
103796.13
103634.76
103481.06
103334.8
103195.97
103063.68
102936.77
102817.47
102707.49
102598.19
102489.53
102386.85
102289.17
102196.6
102108.74
102025.4
101946.35
101871.36
101800.24
101732.77
101668.78
101608.09
101550.51
101495.88
101444.05
101394.85
101348.15
101303.81
101261.69
101221.68
101183.68
101147.6
101113.4
101081.06
101050.57
101021.95
100995.21
100970.36
100947.35
100926.12
100906.67
100888.96
100872.71
100857.91
100845.82
100835.75
100821.83
100809.7
100825.13
100834.68
109136.02
110030.23
110182.93
110473.24
110480.59
110433.67
110265.79
110040.28
109758.99
109445.94
109110.6
108764.41
108414.22
108065.8
107722.99
107388.56
107064.34
106751.49
106450.7
106162.28
105886.29
105622.62
105371.04
105131.21
104902.75
104685.25
104478.28
104281.38
104094.12
103916.09
103746.85
103585.96
103432.99
103287.86
103150.17
103018.4
102892.94
102777.23
102667.01
102555.85
102448.59
102346.91
102250.53
102159.17
102072.58
101990.48
101912.66
101838.89
101768.94
101702.63
101639.77
101580.16
101523.63
101470.03
101419.18
101370.93
101325.15
101281.7
101240.46
101201.3
101164.15
101128.94
101095.63
101064.2
101034.67
101007.05
100981.34
100957.53
100935.55
100915.36
100896.94
100880.25
100865.04
100851.46
100840.46
100830.89
100818.63
100810.15
100823.04
100825.1
111198.84
111903.54
111876.62
111864.83
111633.2
111341.85
110973.17
110573.39
110151.33
109723.84
109298.08
108880.76
108475.4
108084.51
107709.33
107350.5
107008.12
106682.01
106371.77
106076.86
105796.68
105530.6
105277.96
105038.12
104810.45
104594.34
104389.2
104194.45
104009.57
103834.08
103667.47
103509.2
103359.02
103216.79
103081.31
102951.56
102830.21
102718.44
102607.1
102496.09
102391.27
102291.75
102197.55
102108.26
102023.65
101943.46
101867.47
101795.45
101727.18
101662.48
101601.14
101542.99
101487.85
101435.57
101385.97
101338.92
101294.28
101251.92
101211.73
101173.62
101137.52
101103.38
101071.18
101040.89
101012.53
100986.07
100961.5
100938.77
100917.85
100898.69
100881.29
100865.57
100851.38
100838.92
100828.79
100819.78
100809.46
100803.59
100812.07
100810.42
113406.37
113462.04
113179.35
112805.76
112330.7
111824
111297.87
110774.89
110262.35
109767.42
109292.75
108840.07
108409.67
108001.35
107614.42
107248.03
106901.19
106572.89
106262.11
105967.88
105689.26
105425.35
105175.33
104938.39
104713.79
104500.84
104298.9
104107.34
103925.62
103753.21
103589.55
103434.2
103287.05
103147.44
103013.74
102887.16
102771.04
102658.66
102545.47
102437.06
102334.22
102236.8
102144.47
102056.98
101974.07
101895.51
101821.06
101750.52
101683.67
101620.32
101560.29
101503.4
101449.47
101398.35
101349.88
101303.91
101260.32
101218.98
101179.78
101142.64
101107.49
101074.3
101043.03
101013.69
100986.25
100960.7
100937.01
100915.14
100895.04
100876.69
100860.06
100845.1
100831.71
100820.07
100810.44
100801.96
100793.54
100788.97
100792.88
100790.43
114366.74
114002.18
113487.64
112899.71
112287.86
111680.25
111089.43
110523.69
109985.62
109476.5
108995.84
108542.71
108115.71
107713.36
107334.12
106976.5
106639.1
106320.63
106019.82
105735.51
105466.61
105212.17
104971.28
104743.12
104526.93
104322.03
104127.74
103943.5
103768.76
103602.96
103445.58
103296.36
103154.97
103020.19
102891.7
102772.11
102659.84
102548.08
102438.38
102334.51
102235.97
102142.62
102054.15
101970.33
101890.89
101815.63
101744.31
101676.75
101612.73
101552.07
101494.59
101440.11
101388.48
101339.54
101293.14
101249.15
101207.43
101167.9
101130.45
101095.03
101061.57
101030.03
101000.41
100972.67
100946.8
100922.75
100900.49
100879.97
100861.16
100844.01
100828.51
100814.6
100802.25
100791.55
100782.56
100774.87
100768.16
100764.15
100764.38
100762.77
113342.85
113134.22
112706.77
112195.13
111648.15
111099.78
110562.4
110045.25
109550.93
109081.17
108635.76
108214.17
107815.34
107438.15
107081.37
106743.83
106424.37
106121.91
105835.4
105563.83
105306.35
105062.15
104830.47
104610.61
104401.94
104203.83
104015.73
103837.12
103667.48
103506.29
103353.26
103208.23
103070.18
102937.99
102813.75
102699.18
102586.48
102474.22
102367.77
102266.43
102170.31
102079.06
101992.51
101910.43
101832.62
101758.85
101688.95
101622.72
101559.96
101500.52
101444.21
101390.87
101340.35
101292.49
101247.15
101204.21
101163.53
101125
101088.54
101054.04
101021.46
100990.74
100961.86
100934.78
100909.5
100885.99
100864.22
100844.16
100825.76
100808.99
100793.82
100780.2
100768.13
100757.62
100748.67
100741.15
100735.06
100730.77
100728.5
100727.42
113748.94
113556.54
112916.23
112316.17
111634.03
110964.45
110271.65
109592.62
108922.7
108271.59
107638.37
107027.99
106440.73
105879.64
105356.95
104876.48
104436.4
104036.09
103673.35
103346.56
103052.52
102790.1
102556.39
102349.19
102164.73
102000.57
101853.93
101722.01
101602.72
101494.42
101395.54
101304.71
101221.14
101144.27
101073.11
101006.05
100943.32
100886.15
100832.67
100781.86
100734.51
100689.83
100647.06
100607.56
100570.88
100536.38
100504.4
100475.04
100448.21
100423.81
100401.66
100381.63
100363.59
100347.4
100332.94
100320.06
100308.64
100298.55
100289.62
100281.76
100274.73
100268.57
100262.76
100257.95
100252.42
100249.12
100242.15
100241.83
100229.91
100236.81
100212.91
100236.03
100187.64
100242.47
100150.61
100259.14
100099.97
100287.52
100039.33
100323.64
95615.601
96425.065
97205.931
97882.627
98395.495
98857.634
99274.379
99634.162
99946.132
100217.49
100450.77
100650.42
100820.48
100964.63
101086.2
101186.2
101266.05
101327.73
101371.86
101402.14
101417.57
101421.2
101415.41
101400.79
101377.25
101345.61
101308.11
101266.87
101222.32
101175.22
101126.69
101077.41
101028.4
100979.78
100931.52
100884.49
100839.01
100794.85
100751.26
100709.56
100671.08
100633.77
100599.08
100567.74
100536.51
100507.84
100481.13
100456.21
100433.27
100412.32
100393.27
100375.99
100360.37
100346.31
100333.71
100322.47
100312.47
100303.6
100295.72
100288.73
100282.43
100276.87
100271.52
100267.1
100261.76
100258.72
100251.67
100251.62
100239.21
100246.65
100221.52
100246.01
100195.08
100252.82
100156.07
100270.01
100102.76
100299.36
100040.01
100336.33
103318.88
103380.62
103349.06
103314.72
103265.52
103207.58
103138.29
103063.48
102981.69
102895.34
102804
102708.98
102611.11
102511.1
102409.83
102309.49
102210.44
102112.77
102018.93
101925.16
101838.76
101750.9
101665.66
101580.38
101500.96
101426.32
101355.67
101288.63
101224.31
101162.54
101103.17
101046.51
100991.33
100937.99
100886.86
100839.01
100793.15
100749.24
100707.74
100667.26
100628.61
100592.36
100559.04
100528.85
100501.11
100475.18
100451.22
100429.3
100409.27
100390.96
100374.37
100359.44
100346.07
100334.18
100323.64
100314.36
100306.2
100299.04
100292.75
100287.23
100282.27
100277.92
100273.65
100270.19
100265.68
100263.37
100256.89
100257.41
100245.27
100253.22
100227.94
100253.14
100201.3
100260.65
100161.34
100278.19
100106.29
100309.05
100040.96
100348.37
101181.86
101191.23
101195.28
101212.98
101228.43
101250.92
101273.2
101296.12
101317.69
101338.56
101357.59
101374.26
101388
101398.1
101403.87
101405.38
101402.23
101394.23
101382.03
101365.04
101344.3
101320.33
101293.21
101263.13
101229.28
101191.76
101151.77
101110.21
101067.81
101025.08
100982.29
100939.65
100897.34
100855.61
100814.79
100775.12
100736.63
100699.5
100663.49
100628.85
100595.88
100564.33
100535.75
100508.46
100483.28
100460.15
100438.7
100418.88
100400.69
100384.17
100369.24
100355.85
100343.9
100333.32
100323.99
100315.81
100308.66
100302.43
100296.97
100292.2
100287.9
100284.13
100280.35
100277.33
100273.15
100271.17
100264.8
100265.59
100253.31
100261.59
100235.76
100261.58
100208.47
100269.17
100167.36
100286.88
100110.77
100318.26
100043.42
100359.23
101359.64
101375.04
101375.81
101384.29
101383.9
101388.51
101388.85
101389.29
101387.64
101385.19
101380.95
101375.14
101367.19
101357.09
101345.02
101329.95
101312.48
101293.08
101269.96
101246.67
101217.9
101189.32
101156.99
101124.42
101090.09
101055.32
101019.81
100983.96
100947.98
100911.99
100876.12
100840.47
100805.17
100770.33
100736.12
100702.69
100670.1
100638.57
100607.92
100578.47
100550.32
100523.73
100498.87
100475.47
100453.69
100433.6
100415.11
100398.22
100382.83
100368.92
100356.42
100345.29
100335.45
100326.81
100319.29
100312.77
100307.15
100302.31
100298.12
100294.48
100291.2
100288.34
100285.34
100282.99
100279.36
100277.87
100271.83
100272.97
100260.75
100269.35
100243.19
100269.54
100215.37
100277.54
100173.32
100295.25
100115.03
100327.41
100045.39
100370.21
100920.58
100933.69
100938.05
100946.51
100948.46
100956.91
100958.8
100965.59
100968.58
100972.33
100974.46
100975.83
100976.21
100975.38
100973.55
100970.3
100965.79
100959.84
100952.61
100943.77
100933.67
100921.68
100908.32
100893.15
100876.38
100857.98
100838.09
100816.84
100794.44
100771.05
100746.86
100722.07
100696.87
100671.43
100645.97
100620.62
100595.58
100571.07
100546.99
100523.78
100501.47
100480.5
100459.95
100440.94
100423.21
100406.85
100391.79
100378.04
100365.58
100354.39
100344.42
100335.63
100327.94
100321.29
100315.58
100310.73
100306.61
100303.14
100300.17
100297.63
100295.31
100293.29
100291.01
100289.28
100286.15
100285.08
100279.32
100280.74
100268.55
100277.4
100250.9
100277.67
100222.39
100285.78
100179.36
100303.81
100119.53
100336.44
100047.32
100381.04
100670.08
100683.76
100688.02
100699.57
100703.36
100713.92
100718.67
100726.62
100731.91
100737.84
100742.62
100746.83
100750.36
100752.86
100754.63
100755.24
100754.9
100753.36
100750.66
100746.73
100741.48
100734.98
100727.14
100718.06
100707.72
100696.22
100683.59
100669.89
100655.28
100639.8
100623.56
100606.69
100589.3
100571.49
100553.46
100535.25
100517.12
100499.14
100481.25
100463.97
100447.24
100431.28
100416.07
100401.78
100388.44
100376.14
100364.86
100354.66
100345.49
100337.36
100330.23
100324.06
100318.78
100314.35
100310.68
100307.67
100305.23
100303.27
100301.66
100300.32
100299.05
100297.95
100296.47
100295.41
100292.82
100292.2
100286.77
100288.46
100276.35
100285.41
100258.65
100285.73
100229.58
100293.67
100185.46
100312.62
100124.09
100345.36
100049.08
100391.84
100410.5
100424.34
100428.48
100440.65
100444.69
100456.32