/*--------------------------------*- C++ -*----------------------------------*\
  =========                 |
  \\      /  F ield         | OpenFOAM: The Open Source CFD Toolbox
   \\    /   O peration     | Website:  https://openfoam.org
    \\  /    A nd           | Version:  6
     \\/     M anipulation  |
\*---------------------------------------------------------------------------*/
FoamFile
{
    version     2.0;
    format      ascii;
    class       surfaceScalarField;
    location    "50";
    object      phi;
}
// * * * * * * * * * * * * * * * * * * * * * * * * * * * * * * * * * * * * * //

dimensions      [1 0 -1 0 0 0 0];

internalField   nonuniform List<scalar> 
31760
(
-0.00054994371
-0.044391351
0.044941294
-0.0010657723
-0.048043299
0.048559126
-0.0016295216
-0.050044275
0.050608023
-0.0022244402
-0.052440233
0.05303515
-0.002881755
-0.054621759
0.055279073
-0.0035805496
-0.057117351
0.057816143
-0.0043413759
-0.059564596
0.060325421
-0.0051525372
-0.062204507
0.063015666
-0.0060275284
-0.06488764
0.065762631
-0.0069596758
-0.067714547
0.068646692
-0.0079572198
-0.070639424
0.071636968
-0.0090167173
-0.073693633
0.074753128
-0.010143114
-0.076874871
0.078001268
-0.011335336
-0.080190871
0.08138309
-0.012596801
-0.083651569
0.084913035
-0.013927788
-0.08726042
0.088591406
-0.015330559
-0.09102948
0.092432252
-0.016806124
-0.094963166
0.096438728
-0.01835638
-0.09907314
0.1006234
-0.019982999
-0.10336606
0.10499268
-0.021687678
-0.10785294
0.10955762
-0.023472565
-0.11254265
0.11432753
-0.025338981
-0.1174463
0.11931272
-0.027289136
-0.12257436
0.12452451
-0.029324797
-0.12793829
0.12997395
-0.031447423
-0.13355055
0.13567318
-0.033658889
-0.1394231
0.14163457
-0.035961046
-0.14556965
0.1478718
-0.038355207
-0.15200397
0.15439813
-0.040843112
-0.15874083
0.16122873
-0.043426493
-0.16579537
0.16837875
-0.04610855
-0.17318506
0.17586711
-0.048875743
-0.18092535
0.18369255
-0.051727673
-0.18903877
0.1918907
-0.054667643
-0.19752407
0.20046404
-0.057700297
-0.20641508
0.20944773
-0.060839273
-0.21572177
0.21886074
-0.064074755
-0.22548646
0.22872194
-0.067401117
-0.23572828
0.23905464
-0.07081559
-0.24647493
0.2498894
-0.074315547
-0.25775571
0.26125567
-0.07789733
-0.26959305
0.27317483
-0.081556892
-0.28201141
0.28567097
-0.0852877
-0.29504341
0.29877422
-0.089082945
-0.30872152
0.31251677
-0.092934823
-0.32307922
0.3269311
-0.096833557
-0.33815134
0.34205007
-0.10076878
-0.35397551
0.35791073
-0.10472833
-0.37059014
0.37454968
-0.1086978
-0.3880368
0.39200626
-0.11266173
-0.40635771
0.41032164
-0.11660175
-0.42559846
0.42953848
-0.12049749
-0.44580636
0.44970209
-0.1243255
-0.46703156
0.47085957
-0.12805997
-0.48932598
0.49306044
-0.13167101
-0.512745
0.51635604
-0.13512546
-0.53734658
0.54080102
-0.13838525
-0.56319207
0.56645186
-0.14140827
-0.59034475
0.59336777
-0.14414669
-0.61887258
0.621611
-0.14654635
-0.64884715
0.65124682
-0.14854716
-0.68034268
0.68234349
-0.1500811
-0.71343934
0.71497327
-0.15107191
-0.74821995
0.74921076
-0.15143469
-0.78477403
0.78513681
-0.15107221
-0.82319551
0.82283302
-0.14988112
-0.86358849
0.86239741
-0.14772914
-0.90604536
0.90389338
-0.14451299
-0.95071661
0.94750046
-0.14002121
-0.99763478
0.99314301
-0.13421699
-1.0471072
1.0413029
-0.12675238
-1.09883
1.0913654
-0.11785614
-1.1536626
1.1447663
-0.10674046
-1.209868
1.1987524
-0.094439671
-1.2705871
1.2582863
-0.079180471
-1.3297025
1.3144433
-0.063099488
-1.3976088
1.3815278
-0.04279192
-1.4566989
1.4363913
-0.021125345
-1.5341555
1.512489
-1.5943873
1.5672944
-0.00054113208
-0.043850222
-0.0010231518
-0.047561282
-0.0015702506
-0.049497178
-0.0021493919
-0.051861095
-0.002782652
-0.0539885
-0.0034585826
-0.056441423
-0.0041948667
-0.058828313
-0.0049808801
-0.061418497
-0.0058286362
-0.064039885
-0.0067314446
-0.066811742
-0.0076970095
-0.06967386
-0.0087218014
-0.072668845
-0.0098107453
-0.075785928
-0.010962854
-0.079038765
-0.012180735
-0.082433688
-0.013465073
-0.085976085
-0.014817928
-0.089676626
-0.016240574
-0.093540522
-0.01773484
-0.097578874
-0.0193023
-0.10179861
-0.020944782
-0.10621046
-0.02266395
-0.11082348
-0.024462182
-0.11564807
-0.026340916
-0.12069563
-0.028301971
-0.12597724
-0.030347571
-0.13150495
-0.03247942
-0.13729125
-0.034699315
-0.14334976
-0.037008481
-0.1496948
-0.039408727
-0.15634059
-0.041901112
-0.16330298
-0.044487487
-0.17059869
-0.047168482
-0.17824436
-0.049947522
-0.18625973
-0.05280815
-0.19466344
-0.055750394
-0.20347284
-0.058771384
-0.21270078
-0.061892601
-0.22236524
-0.065106192
-0.23251469
-0.068405561
-0.24317557
-0.071788982
-0.25437229
-0.075253586
-0.26612844
-0.078794658
-0.27847034
-0.082406822
-0.29143125
-0.086083517
-0.30504483
-0.089817537
-0.3193452
-0.093599981
-0.3343689
-0.097421122
-0.35015437
-0.10126949
-0.36674177
-0.10513254
-0.38417375
-0.10899537
-0.40249488
-0.11284163
-0.42175221
-0.1166526
-0.44199538
-0.12040708
-0.46327708
-0.12408108
-0.48565198
-0.1276476
-0.50917849
-0.13107601
-0.53391817
-0.1343326
-0.55993548
-0.13737802
-0.58729933
-0.14016867
-0.61608193
-0.1426562
-0.64635963
-0.14478464
-0.67821424
-0.1464928
-0.71173117
-0.14771028
-0.74700247
-0.14835914
-0.78412516
-0.1483531
-0.82320156
-0.14759341
-0.86434818
-0.14596751
-0.90767126
-0.14336701
-0.95331712
-0.13962884
-1.0013729
-0.13468711
-1.0520489
-0.1282983
-1.1052188
-0.12058828
-1.1613726
-0.11104664
-1.2194097
-0.10031359
-1.2813202
-0.087158023
-1.342858
-0.072991612
-1.4117752
-0.055058894
-1.4746316
-0.035672668
-1.5535417
-1.618675
-0.00052748706
-0.043322736
-0.00097777547
-0.047110996
-0.0015085528
-0.048966402
-0.0020582104
-0.051311439
-0.0026730487
-0.053373663
-0.0033269766
-0.055787497
-0.0040452311
-0.058110059
-0.0048140901
-0.06064964
-0.0056412482
-0.063212728
-0.0065231217
-0.06592987
-0.0074642017
-0.068732781
-0.0084626656
-0.071670383
-0.009522375
-0.074726219
-0.010642305
-0.077918837
-0.011825896
-0.081250098
-0.013072761
-0.084729223
-0.014385906
-0.088363481
-0.015765675
-0.092160755
-0.017214931
-0.096129619
-0.018734689
-0.10027885
-0.020327322
-0.10461783
-0.021994821
-0.10915599
-0.023738417
-0.11390448
-0.02556101
-0.11887304
-0.027464366
-0.12407388
-0.029450263
-0.12951906
-0.031520617
-0.1352209
-0.033677179
-0.1411932
-0.035921949
-0.14745003
-0.038256404
-0.15400614
-0.040681587
-0.1608778
-0.043199392
-0.16808088
-0.045810023
-0.17563373
-0.048515112
-0.18355465
-0.051314959
-0.19186359
-0.054205572
-0.20058223
-0.057170082
-0.20973627
-0.060206713
-0.21932861
-0.063335517
-0.22938589
-0.066553159
-0.23995793
-0.069853058
-0.25107239
-0.073233939
-0.26274756
-0.076691745
-0.27501253
-0.08022118
-0.28790181
-0.083816233
-0.30144978
-0.087470017
-0.31569142
-0.091174867
-0.33066405
-0.094921698
-0.34640754
-0.098700493
-0.36296298
-0.10249944
-0.3803748
-0.10630541
-0.39868891
-0.11010353
-0.41795409
-0.11387669
-0.43822222
-0.11760609
-0.45954769
-0.12127025
-0.48198781
-0.12484459
-0.50560415
-0.12830179
-0.53046097
-0.13161088
-0.55662638
-0.13473695
-0.58417326
-0.13764076
-0.61317813
-0.14027772
-0.64372267
-0.14259841
-0.67589355
-0.1445463
-0.70978329
-0.14605893
-0.74548985
-0.14706513
-0.78311896
-0.14748389
-0.8227828
-0.14723216
-0.86459991
-0.14620421
-0.90869921
-0.14429914
-0.95522219
-0.14139114
-1.0042809
-0.13740356
-1.0560365
-0.1321728
-1.1104496
-0.12576978
-1.1677756
-0.11787853
-1.2273009
-0.1088989
-1.2902998
-0.09787415
-1.3538828
-0.085772538
-1.4238768
-0.070262972
-1.4901411
-0.053288154
-1.5705165
-1.6401122
-0.00052275184
-0.042799987
-0.00095043616
-0.046683314
-0.0014786521
-0.048438188
-0.0019938862
-0.050796208
-0.0026033103
-0.052764241
-0.0032470803
-0.05514373
-0.0039533903
-0.057403751
-0.0047112246
-0.059891808
-0.0055233135
-0.06240064
-0.0063892674
-0.065063919
-0.0073112147
-0.067810834
-0.0082887697
-0.07069283
-0.0093245256
-0.073690464
-0.010418818
-0.076824546
-0.011573797
-0.08009512
-0.012790448
-0.083512573
-0.014070856
-0.087083074
-0.015416641
-0.090814972
-0.016829809
-0.094716451
-0.018312421
-0.09879624
-0.01986637
-0.10306388
-0.021493579
-0.10752878
-0.023196698
-0.11220136
-0.024977627
-0.11709211
-0.026838277
-0.12221323
-0.028781075
-0.12757626
-0.030807653
-0.13319432
-0.032920285
-0.13908057
-0.03512047
-0.14524985
-0.03740998
-0.15171663
-0.039790161
-0.15849762
-0.042262309
-0.16560874
-0.044827854
-0.17306818
-0.047486945
-0.18089556
-0.050239158
-0.18911138
-0.053083813
-0.19773757
-0.056021493
-0.20679859
-0.059028702
-0.2163214
-0.062101502
-0.22631309
-0.065266923
-0.23679251
-0.068517633
-0.24782168
-0.07184916
-0.25941604
-0.075258812
-0.27160288
-0.078741701
-0.28441893
-0.082292505
-0.29789897
-0.085905212
-0.31207872
-0.089572908
-0.32699635
-0.093287606
-0.34269284
-0.097040263
-0.35921032
-0.10082053
-0.37659453
-0.10461715
-0.39489229
-0.10841625
-0.414155
-0.11220346
-0.434435
-0.11596189
-0.45578926
-0.11967197
-0.47827774
-0.12331258
-0.50196354
-0.12685959
-0.52691396
-0.13028489
-0.55320109
-0.13355775
-0.5809004
-0.13664323
-0.61009265
-0.1395017
-0.6408642
-0.14208861
-0.67330663
-0.14435403
-0.70751788
-0.14624112
-0.74360276
-0.14768683
-0.78167325
-0.14862022
-0.82184941
-0.14896157
-0.86425856
-0.14862225
-0.90903853
-0.14751409
-0.95633035
-0.1455354
-1.0062596
-0.14261781
-1.0589541
-0.13866664
-1.1144007
-0.13372303
-1.1727192
-0.1275775
-1.2334464
-0.12047358
-1.2974037
-0.11160538
-1.362751
-0.10164173
-1.4338405
-0.088581114
-1.5032017
-0.07396226
-1.5851352
-1.6586626
-0.00051768224
-0.042282309
-0.00092447352
-0.046276528
-0.0014530152
-0.04790965
-0.0019899035
-0.050259324
-0.0025883757
-0.052165771
-0.0032363744
-0.054495735
-0.0039304693
-0.056709658
-0.0046779693
-0.059144311
-0.0054760486
-0.061602562
-0.0063278335
-0.064212136
-0.0072331228
-0.066905546
-0.0081935096
-0.069732445
-0.0092100903
-0.072673884
-0.010283883
-0.075750756
-0.011417042
-0.07896196
-0.012611119
-0.082318498
-0.013868047
-0.085826146
-0.015189779
-0.089493242
-0.016578345
-0.093327886
-0.018035725
-0.097338861
-0.019564673
-0.10153493
-0.021167121
-0.10592633
-0.022845581
-0.1105229
-0.024601803
-0.11533589
-0.026438743
-0.12037629
-0.0283581
-0.12565691
-0.030362221
-0.1311902
-0.032452685
-0.13699011
-0.034631839
-0.14307069
-0.036900615
-0.14944785
-0.039261144
-0.15613709
-0.041714321
-0.16315556
-0.044261215
-0.17052129
-0.046902289
-0.17825449
-0.049637212
-0.18637646
-0.05246403
-0.19491076
-0.05538123
-0.20388139
-0.05838866
-0.21331398
-0.061463538
-0.22323821
-0.064606902
-0.23364914
-0.067844391
-0.24458419
-0.071164073
-0.25609636
-0.074563508
-0.26820345
-0.078039413
-0.28094302
-0.08158685
-0.29435154
-0.085200885
-0.30846468
-0.088875328
-0.32332191
-0.09260331
-0.33896486
-0.096377302
-0.35543633
-0.10018854
-0.37278329
-0.10402661
-0.39105422
-0.10788079
-0.41030082
-0.11173782
-0.43057797
-0.11558324
-0.45194384
-0.11940087
-0.47446011
-0.12317174
-0.49819266
-0.12687459
-0.52321111
-0.13048573
-0.54958995
-0.13397803
-0.5774081
-0.13732085
-0.60674983
-0.14047923
-0.63770582
-0.14341436
-0.6703715
-0.14608192
-0.70485031
-0.14843218
-0.7412525
-0.15040925
-0.77969618
-0.15195025
-0.82030841
-0.1529856
-0.86322321
-0.15344111
-0.90858303
-0.15324154
-0.95652993
-0.1523082
-1.007193
-0.15060118
-1.0606611
-0.1480641
-1.1169378
-0.14473106
-1.1760523
-0.14044577
-1.2377317
-0.13532103
-1.3025285
-0.12866655
-1.3694055
-0.12089564
-1.4416114
-0.11031801
-1.5137793
-0.098199331
-1.5972539
-1.674194
-0.0005161054
-0.041766204
-0.00091414103
-0.045878493
-0.0014453145
-0.047378477
-0.0020151616
-0.049689478
-0.002608403
-0.051572531
-0.003257955
-0.053846185
-0.0039470132
-0.0560206
-0.0046910948
-0.058400231
-0.005481807
-0.06081185
-0.0063269174
-0.063367027
-0.0072226129
-0.066009851
-0.0081732854
-0.068781774
-0.0091788204
-0.071668349
-0.010241543
-0.074688035
-0.011363046
-0.077840457
-0.012545046
-0.081136499
-0.013790285
-0.084580907
-0.015100398
-0.08818313
-0.016478244
-0.09195004
-0.017926083
-0.095891023
-0.019445998
-0.10001502
-0.021041119
-0.10433122
-0.022713203
-0.10885082
-0.024465243
-0.11358385
-0.026299209
-0.11854233
-0.028217363
-0.12373875
-0.030222038
-0.12918552
-0.032315042
-0.1348971
-0.034498244
-0.14088749
-0.036773323
-0.14717278
-0.039141792
-0.15376862
-0.041604426
-0.16069293
-0.044162369
-0.16796334
-0.046815571
-0.17560129
-0.049563253
-0.18362878
-0.052403905
-0.19207011
-0.055335583
-0.20094971
-0.058356422
-0.21029314
-0.061467381
-0.22012726
-0.064642976
-0.23047355
-0.067902013
-0.24132516
-0.071248747
-0.25274962
-0.074678724
-0.26477347
-0.078189351
-0.27743239
-0.081777062
-0.29076383
-0.085437333
-0.30480441
-0.089165549
-0.31959369
-0.092956247
-0.33517416
-0.096802607
-0.35158997
-0.10069784
-0.36888806
-0.10463386
-0.38711821
-0.10860109
-0.40633358
-0.11258914
-0.42658992
-0.11658575
-0.44794723
-0.12057712
-0.47046875
-0.12454785
-0.49422194
-0.12848011
-0.51927885
-0.13235334
-0.54571672
-0.13614489
-0.57361655
-0.13982794
-0.60306679
-0.14337363
-0.63416013
-0.14674756
-0.66699757
-0.14991214
-0.70168573
-0.15282428
-0.73834036
-0.15543561
-0.77708485
-0.15769214
-0.81805188
-0.15953613
-0.86137922
-0.1609058
-0.90721336
-0.16174004
-0.95569568
-0.1619959
-1.0069371
-0.16164647
-1.0610105
-0.1606784
-1.1179059
-0.15910695
-1.1776237
-0.15680502
-1.2400337
-0.15377003
-1.3055634
-0.1493855
-1.37379
-0.14389176
-1.4471051
-0.13586973
-1.5218013
-0.12648377
-1.6066398
-1.6865266
-0.00052004543
-0.04124616
-0.0009350561
-0.045463484
-0.0014790497
-0.046834485
-0.0020443711
-0.049124158
-0.0026440542
-0.050972848
-0.0032974372
-0.053192803
-0.0039895686
-0.05532847
-0.0047382939
-0.057651507
-0.0055301933
-0.060019952
-0.0063769438
-0.062520278
-0.0072725762
-0.065114219
-0.0082234388
-0.067830913
-0.0092282902
-0.070663498
-0.010290757
-0.07362557
-0.011412698
-0.076718517
-0.012596274
-0.079952924
-0.013843908
-0.083333274
-0.015158567
-0.086868472
-0.016542262
-0.090566346
-0.017998175
-0.094435111
-0.019528819
-0.098484373
-0.021136625
-0.10272341
-0.022824738
-0.1071627
-0.024595049
-0.11181354
-0.026450026
-0.11668735
-0.028392359
-0.12179642
-0.03042386
-0.12715402
-0.032546704
-0.13277426
-0.034762394
-0.1386718
-0.03707271
-0.14486246
-0.039479038
-0.15136229
-0.041982345
-0.15818962
-0.044582833
-0.16536286
-0.047280636
-0.17290348
-0.050074437
-0.18083498
-0.052962798
-0.18918175
-0.055944249
-0.19796826
-0.05901737
-0.20722002
-0.062183021
-0.2169616
-0.065436964
-0.22721961
-0.068757979
-0.23800414
-0.072175012
-0.24933259
-0.075679635
-0.26126885
-0.079270836
-0.2738412
-0.082946182
-0.28708848
-0.086702069
-0.30104852
-0.09053511
-0.31576065
-0.094441129
-0.33126814
-0.098415885
-0.34761522
-0.10245357
-0.36485038
-0.10654815
-0.38302362
-0.1106923
-0.40218944
-0.11487803
-0.42240419
-0.11909586
-0.4437294
-0.12333476
-0.46622985
-0.12758247
-0.48997422
-0.13182429
-0.51503703
-0.13604416
-0.54149684
-0.14022279
-0.56943793
-0.14433929
-0.59895029
-0.14836835
-0.63013106
-0.15228249
-0.66308343
-0.15604951
-0.69791871
-0.1596338
-0.73475608
-0.16299515
-0.7737235
-0.16608946
-0.81495756
-0.16886792
-0.85860077
-0.17128496
-0.90479631
-0.17330536
-0.95367529
-0.17490625
-1.0053362
-0.17608915
-1.0598276
-0.17685695
-1.1171381
-0.17721063
-1.17727
-0.17701217
-1.2402321
-0.17616818
-1.3064074
-0.17413301
-1.3758251
-0.17102469
-1.4502134
-0.16572037
-1.5271056
-0.15922901
-1.613131
-1.6954763
-0.00052317788
-0.040722983
-0.00097958059
-0.045007083
-0.0015360817
-0.046277984
-0.0021107456
-0.048549496
-0.0027194812
-0.050364114
-0.0033864646
-0.052525821
-0.0040860367
-0.054628899
-0.0048442051
-0.05689334
-0.0056431061
-0.059221051
-0.0064980866
-0.061665299
-0.0074016117
-0.064210694
-0.0083614787
-0.066871047
-0.0093765267
-0.069648451
-0.010451224
-0.072550873
-0.011586713
-0.075583029
-0.012786663
-0.078752975
-0.014053366
-0.082066571
-0.015389677
-0.085532162
-0.016798884
-0.08915714
-0.018283367
-0.092950629
-0.019846466
-0.096921273
-0.021490656
-0.10107922
-0.023218638
-0.10543472
-0.025033225
-0.10999896
-0.026936603
-0.11478397
-0.028930836
-0.11980219
-0.031018206
-0.12506665
-0.033200511
-0.13059196
-0.035479776
-0.13639254
-0.037857287
-0.14248495
-0.040334184
-0.1488854
-0.042911071
-0.15561274
-0.045588125
-0.1626858
-0.048364479
-0.17012713
-0.051239432
-0.17796002
-0.054211676
-0.1862095
-0.057279708
-0.19490023
-0.060444144
-0.20405558
-0.063705315
-0.21370043
-0.067064539
-0.22386038
-0.07050335
-0.23456533
-0.074033541
-0.2458024
-0.077659292
-0.2576431
-0.081379122
-0.27012137
-0.085192145
-0.28327546
-0.089095955
-0.29714471
-0.093089188
-0.31176742
-0.097169057
-0.32718827
-0.10133231
-0.34345196
-0.10557598
-0.36060671
-0.10989578
-0.37870382
-0.11428701
-0.39779821
-0.11874399
-0.41794721
-0.12325988
-0.43921351
-0.12782734
-0.46166239
-0.13243642
-0.48536515
-0.13707712
-0.51039633
-0.14173662
-0.53683735
-0.1464007
-0.56477385
-0.15105221
-0.59429878
-0.15567243
-0.62551084
-0.16023874
-0.65851712
-0.16472604
-0.69343141
-0.16910571
-0.73037641
-0.1733459
-0.76948331
-0.17741284
-0.81089063
-0.18127201
-0.8547416
-0.18489615
-0.90117218
-0.18826791
-0.95030352
-0.19139396
-1.0022102
-0.19429239
-1.0569292
-0.19697268
-1.1144578
-0.1994095
-1.1748332
-0.20144303
-1.2381986
-0.20290318
-1.3049473
-0.20332639
-1.3754019
-0.20276676
-1.450773
-0.20037611
-1.5294962
-0.19709131
-1.6164158
-1.7008154
-0.00052306792
-0.040199917
-0.001040566
-0.044489586
-0.0016104946
-0.045708057
-0.0022111908
-0.047948801
-0.0028336581
-0.049741647
-0.0035182409
-0.051841239
-0.0042315025
-0.053915638
-0.0050052421
-0.056119601
-0.005819282
-0.058407012
-0.0066913088
-0.060793273
-0.0076132296
-0.063288774
-0.0085941526
-0.065890125
-0.0096326711
-0.068609933
-0.010734017
-0.071449528
-0.011899733
-0.074417314
-0.013133904
-0.077518805
-0.014438967
-0.080761509
-0.01581847
-0.08415266
-0.017275209
-0.087700401
-0.018812617
-0.091413222
-0.020433556
-0.095300335
-0.022140859
-0.099371919
-0.02393704
-0.10363854
-0.025824554
-0.10811144
-0.027806092
-0.11280244
-0.029883453
-0.11772483
-0.032058551
-0.12289156
-0.034333407
-0.1283171
-0.036709499
-0.13401645
-0.039188462
-0.14000599
-0.041770564
-0.1463033
-0.044456606
-0.1529267
-0.047245745
-0.15989667
-0.050137563
-0.16723531
-0.05313107
-0.17496652
-0.056225062
-0.18311551
-0.059420196
-0.1917051
-0.062716778
-0.200759
-0.066115933
-0.21030128
-0.069618092
-0.22035823
-0.073222879
-0.23096054
-0.076914335
-0.24211095
-0.080710751
-0.25384668
-0.084611423
-0.2662207
-0.088617234
-0.27926965
-0.09272699
-0.29303496
-0.096940485
-0.30755393
-0.10125694
-0.32287182
-0.10567557
-0.33903333
-0.11019488
-0.35608741
-0.11481326
-0.37408544
-0.11952855
-0.39308293
-0.12433757
-0.41313819
-0.12923688
-0.4343142
-0.13422147
-0.4566778
-0.13928633
-0.48030029
-0.144424
-0.50525866
-0.14962659
-0.53163476
-0.15488402
-0.55951643
-0.16018466
-0.58899814
-0.16551449
-0.620181
-0.17085781
-0.65317381
-0.17619624
-0.68809298
-0.18150863
-0.72506402
-0.18677294
-0.764219
-0.19196624
-0.80569733
-0.19707065
-0.84963719
-0.20207432
-0.89616851
-0.20698885
-0.94538899
-0.21183621
-0.99736282
-0.21664932
-1.0521161
-0.22143021
-1.1096769
-0.22610803
-1.1701554
-0.23050273
-1.2338039
-0.23440328
-1.3010467
-0.23743724
-1.372368
-0.23964979
-1.4485605
-0.24044785
-1.528698
-0.24062319
-1.6162404
-1.7023015
-0.00051953269
-0.039680384
-0.0011026284
-0.04390649
-0.0016890505
-0.045121635
-0.0023199589
-0.047317892
-0.0029639878
-0.049097618
-0.0036748385
-0.051130389
-0.0044119421
-0.053178534
-0.0052118888
-0.055319655
-0.0060533129
-0.057565588
-0.0069555333
-0.059891053
-0.0079106327
-0.062333675
-0.0089284419
-0.064872316
-0.010008076
-0.067530299
-0.011155163
-0.070302441
-0.012371932
-0.073200546
-0.013662251
-0.076228486
-0.015029437
-0.079394323
-0.016476951
-0.082705146
-0.018008274
-0.086169079
-0.019626387
-0.08979511
-0.021334107
-0.093592616
-0.02313455
-0.097571476
-0.025030222
-0.10174287
-0.027023536
-0.10611813
-0.029116156
-0.11070982
-0.031310461
-0.11553053
-0.033608196
-0.12059382
-0.036010921
-0.12591438
-0.038519702
-0.13150767
-0.041136071
-0.13738962
-0.043860381
-0.14357899
-0.046692481
-0.1500946
-0.049631578
-0.15695757
-0.052677239
-0.16418965
-0.055828421
-0.17181534
-0.059085948
-0.17985799
-0.062450373
-0.18834067
-0.065923368
-0.19728601
-0.069506983
-0.20671767
-0.073201375
-0.21666383
-0.077009903
-0.22715202
-0.080915338
-0.23820551
-0.08493774
-0.24982428
-0.089077008
-0.26208143
-0.093334898
-0.27501176
-0.097713167
-0.28865669
-0.10221268
-0.30305441
-0.10683529
-0.31824922
-0.11158191
-0.33428672
-0.11645359
-0.35121572
-0.12145131
-0.36908772
-0.12657527
-0.38795897
-0.13182574
-0.40788772
-0.13720181
-0.42893813
-0.14270293
-0.45117668
-0.14832664
-0.47467657
-0.15407028
-0.49951502
-0.15993011
-0.52577493
-0.16590087
-0.55354567
-0.17197602
-0.58292299
-0.17814809
-0.61400894
-0.18440714
-0.64691475
-0.19074181
-0.68175831
-0.19714039
-0.71866544
-0.20359024
-0.75776915
-0.2100821
-0.79920547
-0.21661263
-0.84310666
-0.22319622
-0.88958492
-0.22985845
-0.93872676
-0.23664374
-0.99057753
-0.24358079
-1.045179
-0.25064633
-1.1026114
-0.25773038
-1.1630713
-0.26463569
-1.2268986
-0.27114015
-1.2945423
-0.2769959
-1.3665122
-0.28225929
-1.443297
-0.28653788
-1.5244194
-0.29049438
-1.6122838
-1.6996542
-0.00051928521
-0.0391611
-0.0011378714
-0.043287905
-0.0017494767
-0.04451003
-0.0024233533
-0.046644017
-0.0031013237
-0.048419649
-0.0038513211
-0.050380392
-0.004626612
-0.052403244
-0.0054673181
-0.05447895
-0.0063523889
-0.056680518
-0.0073016262
-0.058941817
-0.0083085621
-0.06132674
-0.0093829638
-0.063797915
-0.010525043
-0.06638822
-0.011740752
-0.069086733
-0.013032544
-0.071908754
-0.014405101
-0.07485593
-0.015861848
-0.077937577
-0.017406384
-0.081160611
-0.019042089
-0.084533374
-0.020772172
-0.088065027
-0.022599828
-0.091764961
-0.024527294
-0.095644011
-0.026557087
-0.099713078
-0.028691025
-0.10398419
-0.03093127
-0.10846957
-0.03327932
-0.11318248
-0.035736462
-0.11813668
-0.0383041
-0.12334674
-0.040983678
-0.12882809
-0.043775447
-0.13459785
-0.046680184
-0.14067425
-0.049696912
-0.14707787
-0.052825438
-0.15382904
-0.056064863
-0.16095023
-0.059415918
-0.16846428
-0.062879573
-0.17639433
-0.066458434
-0.18476181
-0.070154704
-0.19358974
-0.073970427
-0.20290194
-0.077907782
-0.21272648
-0.081970856
-0.22308894
-0.086146646
-0.23402972
-0.090453054
-0.24551787
-0.094891839
-0.25764265
-0.099467047
-0.27043655
-0.10418163
-0.28394211
-0.10903952
-0.29819653
-0.1140438
-0.31324494
-0.11919832
-0.3291322
-0.12450675
-0.34590729
-0.12997246
-0.363622
-0.13559878
-0.38233265
-0.14138889
-0.40209762
-0.14734583
-0.42298119
-0.15347163
-0.44505087
-0.15976866
-0.46837954
-0.16623858
-0.4930451
-0.17288163
-0.51913188
-0.17969833
-0.54672896
-0.18668781
-0.57593351
-0.19384763
-0.60684912
-0.20117579
-0.63958659
-0.20866892
-0.67426519
-0.2163238
-0.71101056
-0.22413973
-0.74995322
-0.23212214
-0.79122307
-0.24028758
-0.83494122
-0.24866666
-0.88120584
-0.25730721
-0.93008622
-0.26625314
-0.98163159
-0.27552294
-1.0359092
-0.28506197
-1.0930723
-0.29472766
-1.1534056
-0.30431861
-1.2173076
-0.31364696
-1.2852139
-0.32258362
-1.3575755
-0.33122237
-1.4346583
-0.33931909
-1.5163226
-0.34737245
-1.6042304
-1.6925451
-0.00052439672
-0.038636703
-0.0011751094
-0.042637192
-0.0018163098
-0.04386883
-0.0025417869
-0.045918539
-0.0032638582
-0.047697577
-0.0040641925
-0.049580058
-0.004891538
-0.051575899
-0.0057877281
-0.05358276
-0.0067335999
-0.055734646
-0.0077482812
-0.057927135
-0.0088275195
-0.060247502
-0.0099807622
-0.062644673
-0.011209454
-0.065159529
-0.01251962
-0.067776567
-0.013914587
-0.070513787
-0.015398848
-0.073371669
-0.016976183
-0.076360242
-0.018650261
-0.079486534
-0.020424391
-0.082759244
-0.022301706
-0.086187713
-0.024284802
-0.089781865
-0.026375992
-0.093552821
-0.028577419
-0.097511652
-0.030890457
-0.10167116
-0.033316444
-0.10604358
-0.035856604
-0.11064232
-0.038512116
-0.11548117
-0.041283956
-0.1205749
-0.044173106
-0.12593894
-0.047180049
-0.13159091
-0.050304434
-0.13754986
-0.053546203
-0.1438361
-0.056904832
-0.15047041
-0.060380389
-0.15747467
-0.063974724
-0.16486995
-0.067690553
-0.1726785
-0.071531148
-0.18092121
-0.075499847
-0.18962104
-0.07959914
-0.19880265
-0.083833017
-0.2084926
-0.088205604
-0.21871636
-0.092715436
-0.22951989
-0.09736776
-0.24086555
-0.10217305
-0.25283736
-0.10713593
-0.26547367
-0.11226203
-0.278816
-0.11755697
-0.29290158
-0.12302664
-0.30777528
-0.12867731
-0.32348152
-0.13451527
-0.34006934
-0.14054666
-0.35759061
-0.14677845
-0.37610086
-0.15321674
-0.39565933
-0.15986823
-0.41632971
-0.16673925
-0.43817985
-0.173836
-0.4612828
-0.18116446
-0.48571664
-0.18873065
-0.51156569
-0.19653935
-0.53892025
-0.20459628
-0.56787659
-0.21290597
-0.59853944
-0.22147299
-0.63101956
-0.23030294
-0.66543524
-0.23940324
-0.70191026
-0.24878622
-0.74057024
-0.25847271
-0.78153657
-0.26849782
-0.8249161
-0.27891154
-0.87079213
-0.28976956
-0.9192282
-0.30111336
-0.97028779
-0.31293311
-1.0240895
-0.32514331
-1.0808621
-0.33758222
-1.1409667
-0.3500736
-1.2048162
-0.36249818
-1.2727893
-0.37483912
-1.3452346
-0.38721074
-1.4222866
-0.39947611
-1.5040572
-0.41198205
-1.5917244
-1.6805806
-0.00053109663
-0.038105606
-0.001242506
-0.041925783
-0.0019176578
-0.043193678
-0.0027000954
-0.045136102
-0.0034761097
-0.046921563
-0.0043380261
-0.048718142
-0.0052321529
-0.050681772
-0.0062002738
-0.052614639
-0.0072262545
-0.054708666
-0.0083276679
-0.056825722
-0.0095030033
-0.059072167
-0.010760766
-0.061386911
-0.012104108
-0.063816187
-0.013538645
-0.06634203
-0.015068395
-0.068984037
-0.016697904
-0.071742161
-0.018430615
-0.074627531
-0.020270653
-0.077646497
-0.022220789
-0.080809108
-0.02428381
-0.084124693
-0.026461658
-0.087604018
-0.028756257
-0.091258222
-0.031168961
-0.095098947
-0.033700846
-0.099139272
-0.036352614
-0.10339182
-0.039125064
-0.10786987
-0.042018833
-0.1125874
-0.045034872
-0.11755886
-0.048173331
-0.12280048
-0.05143477
-0.12832947
-0.054819437
-0.1341652
-0.058326966
-0.14032857
-0.061957803
-0.14683958
-0.065713499
-0.15371898
-0.069597221
-0.16098623
-0.07361335
-0.16866238
-0.07776578
-0.17676879
-0.082059384
-0.18532744
-0.08649804
-0.194364
-0.091086767
-0.20390388
-0.095831033
-0.21397209
-0.10073688
-0.22461405
-0.10580583
-0.2357966
-0.1110511
-0.24759209
-0.11647963
-0.26004514
-0.1220995
-0.27319614
-0.12791845
-0.28708263
-0.13394521
-0.30174852
-0.14018885
-0.31723789
-0.14665828
-0.33359991
-0.1533633
-0.35088558
-0.16031366
-0.36915051
-0.16751944
-0.38845355
-0.17499096
-0.40885818
-0.18273892
-0.43043189
-0.19077402
-0.45324771
-0.19910696
-0.47738369
-0.20774888
-0.50292377
-0.21671097
-0.52995817
-0.22600441
-0.55858314
-0.23564141
-0.58890243
-0.24563451
-0.62102646
-0.2559988
-0.65507096
-0.26675302
-0.69115605
-0.27792398
-0.72939928
-0.28954948
-0.76991107
-0.30168188
-0.81278371
-0.31438301
-0.85809099
-0.32770943
-0.90590179
-0.34168972
-0.9563075
-0.35628051
-1.0094987
-0.37136934
-1.0657733
-0.38680942
-1.1255266
-0.40248008
-1.1891456
-0.41833643
-1.256933
-0.43445233
-1.3291186
-0.45094954
-1.4057894
-0.46776045
-1.4872462
-0.48511482
-1.5743699
-1.6633304
-0.00054351627
-0.03756209
-0.0013228711
-0.041146428
-0.0020424314
-0.042474118
-0.002891397
-0.044287136
-0.0037359233
-0.046077037
-0.0046748806
-0.047779184
-0.0056552955
-0.049701357
-0.0067165118
-0.051553423
-0.0078468065
-0.053578372
-0.0090612604
-0.055611268
-0.010361395
-0.057772033
-0.01175466
-0.059993646
-0.013245628
-0.062325219
-0.014839513
-0.064748145
-0.016540799
-0.067282752
-0.018353605
-0.069929355
-0.020281666
-0.072699471
-0.022327866
-0.075600297
-0.024494823
-0.078642151
-0.02678467
-0.081834846
-0.029198769
-0.085189919
-0.031738376
-0.088718615
-0.034403667
-0.092433656
-0.037195418
-0.096347521
-0.040113606
-0.10047363
-0.043158709
-0.10482477
-0.046330769
-0.10941534
-0.049630396
-0.11425924
-0.05305833
-0.11937255
-0.056614721
-0.12477308
-0.060300057
-0.13047986
-0.064115183
-0.13651345
-0.068062126
-0.14289264
-0.072144248
-0.14963685
-0.076365915
-0.15676456
-0.08073268
-0.16429561
-0.08525096
-0.17225051
-0.089925806
-0.18065259
-0.094763651
-0.18952615
-0.099771162
-0.19889637
-0.10495564
-0.20878761
-0.11032575
-0.21924394
-0.115888
-0.23023435
-0.12165412
-0.24182597
-0.12763389
-0.25406537
-0.13383756
-0.26699247
-0.14027593
-0.28064426
-0.14696071
-0.29506374
-0.15390328
-0.31029531
-0.16111656
-0.32638664
-0.16861296
-0.34338918
-0.17640637
-0.3613571
-0.18451071
-0.38034921
-0.19294028
-0.40042861
-0.20170993
-0.42166224
-0.21083544
-0.4441222
-0.22033279
-0.46788634
-0.23021861
-0.49303796
-0.24051038
-0.5196664
-0.25122599
-0.54786753
-0.26238534
-0.57774309
-0.27400985
-0.60940195
-0.28612511
-0.64295569
-0.29876297
-0.67851819
-0.31196462
-0.71619763
-0.32578509
-0.7560906
-0.34028958
-0.79827923
-0.35554577
-0.8428348
-0.37160275
-0.88984481
-0.38845872
-0.93945152
-0.40604959
-0.9919078
-0.4242646
-1.0475583
-0.44298843
-1.1068028
-0.46217401
-1.16996
-0.48185998
-1.237247
-0.50217326
-1.3088054
-0.52322814
-1.3847345
-0.54499319
-1.4654811
-0.56764937
-1.5517137
-1.6403383
-0.00056549161
-0.036996598
-0.0014160612
-0.040295858
-0.0021952499
-0.04169493
-0.0031231017
-0.043359285
-0.0040544842
-0.045145655
-0.0050895039
-0.046744165
-0.0061795492
-0.048611313
-0.0073594521
-0.05037352
-0.008622797
-0.052315027
-0.0099815569
-0.054252509
-0.011440375
-0.056313215
-0.013005341
-0.05842868
-0.014682202
-0.060648359
-0.016475508
-0.062954839
-0.01838979
-0.06536847
-0.02042858
-0.067890565
-0.022594893
-0.070533157
-0.024891015
-0.073304176
-0.02731869
-0.076214476
-0.029878827
-0.07927471
-0.032572208
-0.082496538
-0.035398524
-0.085892299
-0.038358005
-0.089474176
-0.041450046
-0.09325548
-0.044674729
-0.097248948
-0.048031603
-0.10146789
-0.051521242
-0.1059257
-0.055144053
-0.11063643
-0.058900271
-0.11561633
-0.062791502
-0.12088185
-0.066818648
-0.12645272
-0.070984931
-0.13234717
-0.075293579
-0.13858399
-0.079750135
-0.1451803
-0.08436079
-0.1521539
-0.089133241
-0.15952316
-0.09407447
-0.16730928
-0.09919217