/*--------------------------------*- C++ -*----------------------------------*\
  =========                 |
  \\      /  F ield         | OpenFOAM: The Open Source CFD Toolbox
   \\    /   O peration     | Website:  https://openfoam.org
    \\  /    A nd           | Version:  6
     \\/     M anipulation  |
\*---------------------------------------------------------------------------*/
FoamFile
{
    version     2.0;
    format      ascii;
    class       volScalarField;
    location    "50";
    object      rho;
}
// * * * * * * * * * * * * * * * * * * * * * * * * * * * * * * * * * * * * * //

dimensions      [1 -3 0 0 0 0 0];

internalField   nonuniform List<scalar> 
16000
(
1.1732504
1.1733111
1.1735086
1.1734453
1.1735684
1.1735878
1.1736871
1.1737297
1.1738172
1.173872
1.1739531
1.1740149
1.1740922
1.1741611
1.1742383
1.174312
1.1743892
1.1744657
1.1745445
1.1746244
1.1747066
1.174791
1.1748782
1.174968
1.1750602
1.1751546
1.1752499
1.1753457
1.1754407
1.1755338
1.175626
1.1757172
1.1758042
1.1759141
1.1757651
1.1756511
1.1755748
1.1755075
1.1754136
1.1753087
1.1752037
1.1750881
1.1749629
1.1748336
1.1746995
1.1745594
1.1744141
1.1742638
1.1741085
1.1739488
1.1737847
1.1736168
1.1734455
1.1732714
1.1730947
1.1729162
1.1727361
1.1725551
1.1723736
1.1721921
1.172011
1.1718308
1.1716518
1.1714745
1.1712991
1.1711262
1.1709555
1.1707884
1.1706219
1.1704638
1.1702957
1.1701599
1.1699604
1.1698988
1.1695466
1.1697278
1.1688751
1.1697626
1.1676519
1.1701122
1.1735972
1.173725
1.1739327
1.1738747
1.1739961
1.1740214
1.1741228
1.17417
1.1742607
1.1743195
1.174405
1.1744712
1.1745535
1.1746275
1.1747102
1.1747899
1.1748736
1.1749566
1.1750421
1.1751287
1.1752173
1.1753079
1.1754008
1.1754959
1.1755926
1.1756907
1.1757893
1.1758874
1.1759841
1.1760784
1.1761693
1.1762572
1.1763434
1.1764209
1.176507
1.1765216
1.1763437
1.1762283
1.1761216
1.1759963
1.1758658
1.1757269
1.1755778
1.1754231
1.175264
1.1750991
1.174929
1.1747542
1.174575
1.1743918
1.174205
1.1740151
1.1738225
1.173628
1.1734318
1.1732346
1.1730368
1.172839
1.1726416
1.1724452
1.1722501
1.1720567
1.1718653
1.1716763
1.1714899
1.1713065
1.1711261
1.1709493
1.1707751
1.1706068
1.1704346
1.1702819
1.1700885
1.1699953
1.1696788
1.1697822
1.1690168
1.1697786
1.1677722
1.1701359
1.173994
1.1742028
1.1744117
1.1743613
1.1744805
1.1745114
1.1746103
1.1746621
1.1747534
1.1748153
1.1749032
1.1749728
1.1750584
1.1751364
1.1752235
1.1753079
1.1753965
1.1754849
1.1755757
1.1756675
1.1757614
1.1758568
1.1759542
1.1760533
1.1761536
1.1762545
1.1763551
1.1764545
1.1765514
1.176645
1.1767344
1.1768196
1.176901
1.1769796
1.177049
1.1771096
1.1771928
1.1769949
1.1768274
1.1766835
1.176531
1.1763644
1.1761891
1.1760085
1.1758226
1.1756317
1.1754358
1.1752357
1.1750317
1.1748245
1.1746144
1.1744022
1.1741883
1.1739733
1.1737577
1.1735422
1.1733271
1.1731131
1.1729005
1.1726899
1.1724815
1.1722759
1.1720731
1.1718736
1.1716775
1.1714851
1.1712965
1.171112
1.1709311
1.1707552
1.1705795
1.170416
1.1702275
1.1701051
1.1698193
1.1698524
1.1691749
1.1697929
1.1679194
1.1701572
1.1744611
1.1747724
1.1749704
1.1749357
1.1750427
1.1750853
1.1751813
1.1752396
1.1753314
1.1753984
1.1754896
1.1755645
1.1756551
1.175739
1.1758321
1.1759232
1.1760187
1.176114
1.1762117
1.1763102
1.1764103
1.1765116
1.1766141
1.1767175
1.1768211
1.1769242
1.177026
1.1771253
1.1772209
1.1773116
1.1773965
1.1774753
1.1775484
1.1776156
1.1776773
1.1777305
1.1777718
1.177828
1.1776183
1.1774127
1.1772412
1.1770477
1.17684
1.1766301
1.1764142
1.1761935
1.1759689
1.1757404
1.175509
1.1752752
1.1750396
1.1748029
1.1745656
1.1743285
1.174092
1.1738567
1.1736231
1.1733917
1.173163
1.1729373
1.1727151
1.1724965
1.172282
1.1720715
1.1718655
1.1716639
1.1714669
1.1712745
1.1710868
1.170904
1.1707235
1.1705509
1.1703632
1.1702176
1.1699534
1.169931
1.1693158
1.1698274
1.1680533
1.1702228
1.1749785
1.1754198
1.1755914
1.1755897
1.1756722
1.1757307
1.1758224
1.175887
1.1759793
1.1760529
1.1761481
1.1762296
1.176326
1.176417
1.1765172
1.1766158
1.1767188
1.1768217
1.1769268
1.1770323
1.1771387
1.1772456
1.1773527
1.1774596
1.1775655
1.1776697
1.177771
1.1778683
1.1779603
1.1780459
1.1781238
1.1781937
1.1782559
1.1783107
1.1783568
1.1783942
1.1784222
1.1784367
1.1784679
1.1781836
1.1779632
1.1777494
1.1775058
1.1772618
1.1770146
1.1767616
1.1765062
1.1762478
1.1759873
1.1757258
1.1754634
1.1752014
1.1749401
1.1746802
1.1744223
1.174167
1.1739147
1.173666
1.1734212
1.1731807
1.1729448
1.1727137
1.1724877
1.1722668
1.1720513
1.1718412
1.1716365
1.1714372
1.1712432
1.1710544
1.1708692
1.1706896
1.1705012
1.1703368
1.1700877
1.1700165
1.1694648
1.1698675
1.1682055
1.1703072
1.1755531
1.1761525
1.176279
1.1763172
1.1763743
1.1764463
1.176532
1.1766097
1.1767036
1.1767865
1.1768873
1.1769779
1.1770819
1.1771822
1.1772912
1.177399
1.1775112
1.177623
1.1777363
1.1778494
1.1779625
1.1780749
1.1781862
1.1782958
1.1784028
1.1785062
1.1786049
1.1786978
1.1787834
1.1788604
1.1789278
1.178985
1.179032
1.1790695
1.1790973
1.1791141
1.1791191
1.1791135
1.1790964
1.1790341
1.1787059
1.1784614
1.1781882
1.1779049
1.1776244
1.1773374
1.1770487
1.1767589
1.1764676
1.176177
1.1758869
1.1755986
1.1753124
1.1750293
1.1747496
1.174474
1.1742028
1.1739367
1.1736758
1.1734205
1.1731711
1.1729278
1.1726907
1.1724598
1.1722351
1.1720169
1.1718049
1.1715991
1.1713995
1.1712055
1.1710158
1.17083
1.1706392
1.1704596
1.1702214
1.1701069
1.1696129
1.1699186
1.1683616
1.1704107
1.1761757
1.1769638
1.1770264
1.1771012
1.17714
1.1772368
1.1773159
1.177409
1.1775061
1.1776009
1.1777093
1.1778115
1.1779252
1.1780368
1.1781562
1.1782751
1.1783973
1.1785188
1.178641
1.1787619
1.1788814
1.1789987
1.179113
1.1792237
1.1793297
1.1794299
1.1795232
1.1796082
1.1796836
1.1797482
1.1798008
1.1798408
1.1798683
1.1798839
1.1798881
1.1798803
1.17986
1.1798254
1.1797805
1.1797219
1.1794789
1.1791769
1.1788759
1.1785518
1.1782337
1.1779115
1.1775875
1.1772649
1.1769419
1.1766214
1.1763029
1.175988
1.1756768
1.1753703
1.1750689
1.1747732
1.1744835
1.1742003
1.1739238
1.1736543
1.1733919
1.1731369
1.1728892
1.1726489
1.1724159
1.1721902
1.1719717
1.1717603
1.1715556
1.1713569
1.1711631
1.1709722
1.1707783
1.170586
1.1703555
1.1702023
1.1697664
1.1699784
1.1685362
1.1705259
1.1768523
1.1778561
1.1778308
1.177963
1.1779815
1.1781055
1.1781797
1.1782907
1.178393
1.1785028
1.1786212
1.1787375
1.1788633
1.1789883
1.1791201
1.1792513
1.179385
1.1795171
1.1796484
1.1797769
1.1799021
1.180023
1.1801386
1.180248
1.1803501
1.1804437
1.1805275
1.1806003
1.1806609
1.1807079
1.1807405
1.180758
1.1807604
1.1807487
1.1807239
1.1806862
1.1806337
1.1805689
1.1804898
1.1803925
1.1802883
1.1798974
1.1795582
1.1791954
1.1788356
1.1784774
1.1781169
1.1777606
1.1774053
1.1770545
1.1767075
1.1763659
1.1760299
1.1757004
1.1753777
1.1750624
1.1747547
1.174455
1.1741636
1.1738805
1.1736059
1.1733399
1.1730825
1.1728335
1.1725928
1.1723605
1.1721363
1.1719198
1.1717108
1.1715083
1.1713106
1.171115
1.1709174
1.1707155
1.1704905
1.1703042
1.1699219
1.1700481
1.1687212
1.1706494
1.1775793
1.178806
1.1787003
1.1788964
1.1788933
1.1790513
1.1791233
1.1792565
1.1793673
1.1794959
1.1796277
1.1797614
1.179902
1.1800431
1.1801893
1.1803347
1.1804807
1.1806238
1.180764
1.1808992
1.1810286
1.1811509
1.1812649
1.1813695
1.1814636
1.1815459
1.1816152
1.1816702
1.1817099
1.1817333
1.1817396
1.1817282
1.1816994
1.1816544
1.1815946
1.1815207
1.1814327
1.1813302
1.1812131
1.1810803
1.1809467
1.1806109
1.1802233
1.1798242
1.1794217
1.1790266
1.1786294
1.1782389
1.1778513
1.1774703
1.1770951
1.1767274
1.1763673
1.1760154
1.1756723
1.1753382
1.1750135
1.1746983
1.1743929
1.1740972
1.1738114
1.1735354
1.1732691
1.1730124
1.1727651
1.172527
1.1722979
1.1720774
1.1718647
1.1716588
1.1714576
1.1712582
1.1710566
1.1708476
1.1706262
1.1704141
1.1700812
1.1701279
1.1689213
1.1707813
1.1783534
1.1797955
1.1796283
1.1799024
1.1798791
1.180078
1.1801516
1.1803127
1.1804368
1.1805885
1.1807377
1.1808924
1.1810511
1.1812105
1.1813734
1.1815339
1.1816927
1.1818466
1.1819947
1.1821348
1.1822657
1.1823858
1.182494
1.1825889
1.1826694
1.1827342
1.1827823
1.1828126
1.1828242
1.1828166
1.1827891
1.1827417
1.1826748
1.1825898
1.1824886
1.1823731
1.1822434
1.1820991
1.1819407
1.1817725
1.1815825
1.1813062
1.1808687
1.1804309
1.1799851
1.1795518
1.179118
1.1786933
1.178274
1.1778634
1.177461
1.1770681
1.1766849
1.1763119
1.1759495
1.175598
1.1752574
1.174928
1.1746098
1.1743027
1.1740068
1.1737219
1.173448
1.1731846
1.1729317
1.1726889
1.1724559
1.172232
1.1720165
1.1718079
1.1716037
1.1714008
1.1711954
1.1709822
1.1707628
1.1705324
1.1702442
1.1702177
1.1691352
1.1709204
1.179185
1.1808396
1.1806223
1.1809873
1.1809478
1.1811945
1.1812757
1.1814705
1.1816129
1.1817924
1.1819634
1.1821425
1.1823221
1.1825025
1.182683
1.182859
1.1830305
1.1831936
1.1833472
1.1834887
1.1836168
1.1837296
1.1838258
1.1839041
1.1839635
1.1840029
1.1840214
1.1840183
1.1839933
1.183946
1.1838765
1.183785
1.1836726
1.1835408
1.1833919
1.1832289
1.1830525
1.1828618
1.1826607
1.1824486
1.1822089
1.1819783
1.181483
1.1810041
1.1805166
1.1800445
1.1795752
1.1791172
1.1786673
1.1782285
1.1778002
1.1773837
1.1769789
1.1765863
1.1762062
1.1758387
1.1754839
1.1751418
1.1748123
1.1744953
1.1741906
1.1738982
1.1736178
1.173349
1.1730916
1.1728452
1.1726092
1.1723831
1.1721654
1.1719545
1.1717479
1.1715423
1.1713339
1.1711187
1.1709009
1.17066
1.1704107
1.1703176
1.1693645
1.1710642
1.1800779
1.1819594
1.1816921
1.182164
1.1821106
1.1824133
1.1825085
1.182743
1.1829098
1.1831217
1.183319
1.1835258
1.1837293
1.1839317
1.1841302
1.1843213
1.1845033
1.1846726
1.1848273
1.1849648
1.1850835
1.1851814
1.1852572
1.1853098
1.1853384
1.1853423
1.185321
1.1852744
1.1852026
1.185106
1.1849853
1.1848415
1.1846758
1.1844904
1.184288
1.1840717
1.1838443
1.1836041
1.1833552
1.1830979
1.1828109
1.1825926
1.1820568
1.1815334
1.1810071
1.1804971
1.179994
1.1795042
1.1790256
1.1785604
1.1781082
1.1776699
1.1772456
1.1768354
1.1764396
1.176058
1.1756907
1.1753376
1.1749985
1.1746732
1.1743614
1.1740629
1.1737774
1.1735045
1.1732439
1.1729949
1.1727571
1.1725294
1.1723104
1.172098
1.1718895
1.1716819
1.1714718
1.1712574
1.1710407
1.1707967
1.1705799
1.1704283
1.1696062
1.1712076
1.181055
1.1831825
1.1828482
1.1834366
1.1833803
1.1837473
1.1838657
1.1841459
1.1843438
1.1845929
1.184821
1.1850584
1.1852877
1.1855121
1.185728
1.1859315
1.18612
1.1862898
1.1864387
1.1865639
1.1866637
1.1867362
1.1867804
1.1867955
1.1867812
1.1867374
1.1866643
1.1865625
1.1864329
1.1862767
1.1860954
1.1858906
1.1856644
1.1854192
1.1851579
1.1848844
1.1846011
1.1843094
1.1840125
1.1837077
1.1833764
1.1831116
1.1825793
1.1820116
1.1814484
1.1809028
1.1803678
1.1798488
1.1793437
1.1788546
1.1783809
1.1779233
1.1774817
1.1770563
1.1766469
1.1762534
1.1758757
1.1755136
1.1751667
1.1748348
1.1745176
1.1742146
1.1739255
1.17365
1.1733874
1.1731371
1.1728983
1.1726701
1.1724505
1.1722371
1.1720277
1.1718194
1.1716091
1.1713972
1.1711827
1.1709424
1.1707515
1.1705497
1.1698573
1.1713513
1.1821129
1.1844927
1.1841051
1.1848259
1.1847728
1.1852145
1.1853651
1.1856984
1.1859349
1.1862259
1.1864889
1.1867589
1.1870141
1.1872594
1.187489
1.1876994
1.1878872
1.1880487
1.1881812
1.1882822
1.1883499
1.1883832
1.1883813
1.1883442
1.1882724
1.1881668
1.1880284
1.1878588
1.1876598
1.1874336
1.1871825
1.1869091
1.186616
1.186306
1.1859819
1.1856482
1.1853077
1.1849619
1.1846164
1.184265
1.1838918
1.183589
1.1830402
1.1824318
1.1818334
1.1812554
1.1806913
1.180146
1.1796174
1.1791073
1.178615
1.1781409
1.1776847
1.1772466
1.1768261
1.1764231
1.1760372
1.1756681
1.1753155
1.1749789
1.1746579
1.1743521
1.174061
1.1737842
1.1735209
1.1732706
1.173032
1.1728038
1.1725844
1.1723711
1.1721616
1.1719538
1.1717455
1.1715383
1.1713269
1.171096
1.1709247
1.1706821
1.1701163
1.1714931
1.1832917
1.1859238
1.1854843
1.1863451
1.1863135
1.1868372
1.1870313
1.1874245
1.1877072
1.1880438
1.1883449
1.1886471
1.1889264
1.1891877
1.1894241
1.1896321
1.1898076
1.1899471
1.1900481
1.1901083
1.1901268
1.190103
1.1900374
1.1899307
1.1897848
1.1896017
1.1893837
1.1891335
1.188854
1.1885483
1.1882196
1.1878712
1.1875065
1.1871284
1.1867399
1.1863447
1.1859468
1.185548
1.1851545
1.1847588
1.184345
1.1840107
1.1834306
1.1827868
1.1821561
1.1815496
1.1809598
1.1803919
1.1798433
1.1793155
1.1788077
1.1783201
1.1778524
1.1774043
1.1769754
1.1765653
1.1761736
1.1757998
1.1754435
1.1751042
1.1747813
1.1744743
1.1741828
1.173906
1.1736435
1.1733941
1.1731566
1.1729297
1.1727111
1.1724988
1.1722908
1.1720851
1.1718806
1.1716793
1.1714729
1.1712559
1.1710986
1.1708262
1.1703795
1.1716291
1.1846318
1.1874928
1.1870011
1.1880198
1.1880236
1.1886413
1.1888922
1.1893514
1.189688
1.1900728
1.1904125
1.1907443
1.1910416
1.1913095
1.1915403
1.1917306
1.1918763
1.1919744
1.192023
1.1920209
1.1919682
1.1918659
1.1917158
1.1915202
1.1912824
1.1910059
1.1906945
1.190352
1.1899824
1.1895896
1.1891778
1.1887506
1.188312
1.1878647
1.1874129
1.1869578
1.1865036
1.1860546
1.1856169
1.1851771
1.1847275
1.1843725
1.1837448
1.1830718
1.1824124
1.1817818
1.1811704
1.1805837
1.1800189
1.179477
1.1789572
1.1784595
1.1779833
1.1775281
1.1770935
1.1766789
1.1762837
1.1759075
1.1755496
1.1752095
1.1748865
1.1745801
1.1742896
1.1740145
1.1737537
1.1735064
1.1732711
1.1730461
1.1728296
1.1726195
1.1724142
1.1722124
1.1720139
1.1718198
1.1716198
1.1714197
1.1712723
1.1709826
1.1706425
1.1717592
1.1859565
1.1892236
1.188716
1.189884
1.1899396
1.1906635
1.1909865
1.1915165
1.1919129
1.1923448
1.1927194
1.1930712
1.1933741
1.1936316
1.1938365
1.193986
1.1940766
1.1941066
1.1940757
1.1939844
1.1938347
1.1936294
1.1933725
1.1930681
1.1927212
1.1923368
1.1919203
1.1914764
1.1910101
1.1905262
1.190029
1.1895226
1.1890109
1.1884966
1.1879836
1.1874741
1.1869678
1.1864723
1.1859928
1.1855139
1.1850383
1.184677
1.1839793
1.1832833
1.1825999
1.1819495
1.1813212
1.1807199
1.1801429
1.1795908
1.1790626
1.1785581
1.1780765
1.1776172
1.1771796
1.1767631
1.1763669
1.1759904
1.175633
1.175294
1.1749727
1.1746684
1.1743805
1.1741081
1.1738506
1.1736063
1.173374
1.173152
1.1729385
1.172732
1.1725312
1.1723348
1.1721438
1.171958
1.1717668
1.1715844
1.1714442
1.171149
1.1709018
1.1718828
1.1874946
1.1910362
1.1905829
1.1920027
1.1921198
1.1929496
1.1933612
1.1939646
1.1944202
1.1948922
1.1952889
1.1956429
1.1959281
1.196148
1.1962964
1.1963721
1.1963737
1.1963017
1.1961583
1.1959468
1.1956715
1.1953381
1.1949527
1.1945214
1.1940511
1.1935481
1.1930187
1.1924689
1.191904
1.1913287
1.1907479
1.1901653
1.1895846
1.189009
1.1884399
1.1878808
1.1873318
1.1867976
1.1862789
1.1857607
1.1852793
1.1849009
1.1841332
1.1834179
1.1827173
1.1820517
1.1814115
1.1808
1.180215
1.1796565
1.1791236
1.1786156
1.1781318
1.1776713
1.1772335
1.1768175
1.1764225
1.176048
1.175693
1.1753569
1.1750389
1.1747383
1.1744543
1.1741861
1.1739325
1.1736925
1.1734642
1.1732462
1.173037
1.1728354
1.1726405
1.1724514
1.1722691
1.172092
1.1719113
1.1717468
1.1716124
1.1713218
1.1711543
1.172
1.1892922
1.1931254
1.1927075
1.1943211
1.1946322
1.1955647
1.1960701
1.1967434
1.1972486
1.1977414
1.1981349
1.1984587
1.1986896
1.1988311
1.1988801
1.1988386
1.1987088
1.1984948
1.1982023
1.1978382
1.19741
1.1969257
1.1963941
1.195823
1.1952205
1.1945939
1.1939502
1.1932953
1.1926349
1.1919734
1.1913152
1.1906636
1.1900215
1.1893919
1.1887761
1.1881736
1.1875886
1.1870249
1.1864747
1.1859278
1.1854521
1.1849996
1.1842083
1.1834763
1.1827654
1.1820894
1.1814421
1.1808248
1.1802359
1.1796749
1.1791407
1.1786325
1.1781494
1.1776906
1.177255
1.1768419
1.1764504
1.1760797
1.175729
1.1753975
1.1750844
1.1747889
1.1745102
1.1742471
1.1739987
1.1737635
1.1735403
1.1733274
1.1731238
1.1729285
1.1727408
1.1725603
1.1723878
1.1722201
1.1720508
1.1719043
1.171774
1.1714935
1.1713996
1.1721135
1.1914245
1.195553
1.1952178
1.1970307
1.1974844
1.1985749
1.1991736
1.199897
1.2004265
1.2009033
1.2012492
1.2014916
1.201614
1.2016212
1.2015158
1.2013049
1.2009959
1.2005979
1.2001208
1.1995755
1.1989724
1.1983216
1.1976338
1.196918
1.1961826
1.195435
1.1946824
1.1939299
1.1931827
1.1924447
1.1917194
1.1910088
1.190316
1.1896417
1.1889887
1.1883541
1.1877421
1.187156
1.18658
1.1860157
1.1855546
1.1850042
1.1842071
1.1834623
1.1827465
1.182065
1.1814151
1.1807962
1.1802073
1.1796473
1.1791152
1.1786098
1.1781303
1.1776756
1.1772447
1.1768366
1.1764506
1.1760856
1.1757408
1.1754154
1.1751086
1.1748193
1.1745469
1.1742901
1.1740477
1.1738186
1.1736012
1.1733946
1.1731977
1.1730099
1.1728306
1.1726597
1.1724975
1.1723397
1.1721832
1.1720536
1.1719262
1.1716619
1.1716363
1.1722197
1.194001
1.1984236
1.1982211
1.2002382
1.2008639
1.2020469
1.2027233
1.2034588
1.2039604
1.2043579
1.2045857
1.2046731
1.2046124
1.2044162
1.2040928
1.2036572
1.2031229
1.2025045
1.2018154
1.2010699
1.2002808
1.1994596
1.1986165
1.197761
1.1969012
1.1960441
1.1951946
1.194358
1.1935376
1.1927369
1.1919576
1.1912016
1.1904695
1.1897628
1.1890803
1.1884232
1.187795
1.1871933
1.1865956
1.186031
1.185599
1.1849274
1.1841327
1.1833796
1.1826636
1.1819813
1.181333
1.1807166
1.1801312
1.1795756
1.1790485
1.1785488
1.1780754
1.1776271
1.177203
1.1768019
1.176423
1.1760654
1.175728
1.1754101
1.1751106
1.1748288
1.1745635
1.1743139
1.1740784
1.1738561
1.1736457
1.1734463
1.1732572
1.1730779
1.1729079
1.1727471
1.1725955
1.1724482
1.1723057
1.1721912
1.1720663
1.1718272
1.1718535
1.1723159
1.197183
1.2018585
1.2018722
1.2040287
1.2048778
1.2060986
1.206773
1.2074308
1.207809
1.2080238
1.2080321
1.2078687
1.2075391
1.2070651
1.2064639
1.2057568
1.2049631
1.2041016
1.2031899
1.2022416
1.2012703
1.2002877
1.1993031
1.1983244
1.1973575
1.1964085
1.1954812
1.1945781
1.193702
1.1928542
1.1920358
1.1912479
1.1904902
1.1897626
1.1890629
1.1883933
1.1877574
1.1871432
1.1865324
1.1859945
1.1856056
1.1847695
1.1839864
1.183232
1.1825199
1.1818418
1.1811989
1.1805887
1.1800102
1.1794619
1.1789426
1.178451
1.1779859
1.1775461
1.1771306
1.1767382
1.176368
1.176019
1.1756903
1.1753808
1.1750899
1.1748162
1.1745591
1.1743172
1.1740896
1.1738749
1.1736723
1.1734811
1.1733006
1.1731304
1.1729702
1.1728199
1.1726789
1.1725426
1.1724147
1.1723135
1.1721924
1.1719844
1.1720473
1.1723985
1.2012632
1.2060197
1.2063112
1.2086663
1.2095354
1.2106807
1.2112542
1.2116942
1.2118127
1.2117156
1.2113877
1.2108736
1.2101944
1.209382
1.2084612
1.2074579
1.206395
1.2052922
1.2041664
1.2030321
1.2019002
1.2007793
1.1996778
1.1985999
1.1975513
1.196533
1.1955496
1.1946002
1.1936871
1.1928093
1.1919683
1.1911611
1.19039
1.1896509
1.1889451
1.1882728
1.1876344
1.1870085
1.1864088
1.1859243
1.1853893
1.1845502
1.1837706
1.1830252
1.1823199
1.1816506
1.1810165
1.1804157
1.1798468
1.1793085
1.1787993
1.1783179
1.177863
1.1774334
1.1770279
1.1766456
1.1762853
1.1759461
1.175627
1.1753271
1.1750452
1.1747807
1.1745323
1.1742989
1.1740796
1.1738734
1.1736794
1.173497
1.1733256
1.173165
1.1730147
1.1728749
1.1727443
1.1726194
1.1725061
1.1724165
1.1723006
1.172128
1.1722141
1.1724658
1.2063128
1.211094
1.2117834
1.2140959
1.2148277
1.2157049
1.2159765
1.2160156
1.2157071
1.2151586
1.2143844
1.2134398
1.2123592
1.2111808
1.2099335
1.2086427
1.2073304
1.2060139
1.2047067
1.2034198
1.2021611
1.2009363
1.1997493
1.1986028
1.1974987
1.1964377
1.1954197
1.1944454
1.1935128
1.1926222
1.1917706
1.190959
1.190184
1.1894449
1.1887401
1.188074
1.1874362
1.1868072
1.1862396
1.1858147
1.1850924
1.1842732
1.1834976
1.1827645
1.1820696
1.1814121
1.1807897
1.1802009
1.1796441
1.1791179
1.1786206
1.178151
1.1777079
1.1772898
1.1768958
1.1765246
1.1761752
1.1758467
1.175538
1.1752481
1.1749761
1.1747211
1.174482
1.1742577
1.1740474
1.1738501
1.1736651
1.1734918
1.17333
1.173179
1.1730386
1.1729089
1.1727885
1.1726748
1.172575
1.172495
1.172388
1.1722511
1.1723454
1.1725138
1.2127645
1.2173294
1.2181137
1.2200065
1.2204526
1.2208086
1.2205464
1.2199935
1.2191087
1.2180069
1.216726
1.2153256
1.2138457
1.2123234
1.2107853
1.2092523
1.2077396
1.2062592
1.2048193
1.2034257
1.2020823
1.2007913
1.1995536
1.1983688
1.1972365
1.1961557
1.195125
1.1941427
1.1932071
1.1923163
1.1914683
1.1906619
1.1898931
1.1891618
1.1884685
1.1878111
1.1871729
1.1865576
1.1860515
1.185601
1.1847315
1.1839344
1.1831718
1.1824536
1.1817732
1.1811301
1.1805221
1.1799475
1.1794047
1.1788921
1.1784083
1.1779519
1.1775215
1.1771161
1.1767342
1.176375
1.1760372
1.17572
1.1754222
1.1751429
1.1748812
1.174636
1.1744066
1.1741917
1.1739907
1.1738025
1.1736268
1.1734628
1.1733103
1.1731688
1.1730381
1.1729182
1.1728075
1.1727049
1.1726171
1.1725449
1.1724493
1.1723466
1.1724372
1.1725362
1.2204078
1.2245732
1.2249962
1.2261588
1.2259386
1.2254658
1.2244394
1.2231457
1.2216058
1.2199269
1.2181583
1.2163515
1.2145385
1.2127454
1.2109901
1.2092867
1.2076413
1.2060597
1.2045436
1.2030933
1.2017088
1.2003892
1.1991328
1.1979378
1.1968016
1.1957214
1.1946954
1.1937201
1.1927942
1.1919147
1.1910797
1.1902856
1.1895313
1.1888135
1.1881377
1.1874911
1.186854
1.1862836
1.1858497
1.185157
1.1843237
1.1835372
1.182795
1.182093
1.1814299
1.1808034
1.1802116
1.1796529
1.1791255
1.1786279
1.1781586
1.1777164
1.1772998
1.1769076
1.1765388
1.1761921
1.1758665
1.1755611
1.1752748
1.1750066
1.1747556
1.1745208
1.1743014
1.1740963
1.1739047
1.173726
1.1735595
1.1734049
1.1732616
1.1731294
1.173008
1.1728974
1.1727961
1.1727041
1.1726267
1.1725612
1.1724787
1.1724045
1.1724808
1.1725289
1.2286195
1.232063
1.2318418
1.2316756
1.2304591
1.2289241
1.2270324
1.2249861
1.2228425
1.2206779
1.2185296
1.2164282
1.2143927
1.2124334
1.2105567
1.2087649
1.2070583
1.2054359
1.2038963
1.2024357
1.2010502
1.1997368
1.1984912
1.1973108
1.1961915
1.1951303
1.1941241
1.1931695
1.1922639
1.1914047
1.1905897
1.1898155
1.1890799
1.1883846
1.1877261
1.1870821
1.1864721
1.1859746
1.1855141
1.184646
1.1838418
1.1830768
1.1823565
1.1816753
1.1810324
1.1804252
1.1798521
1.1793113
1.1788013
1.1783205
1.1778674
1.1774407
1.1770391
1.1766615
1.1763065
1.1759733
1.1756607
1.1753677
1.1750934
1.1748367
1.1745968
1.1743727
1.1741634
1.1739682
1.1737862
1.1736168
1.1734595
1.1733138
1.1731794
1.1730559
1.1729434
1.1728414
1.172749
1.1726665
1.1725979
1.1725387
1.1724699
1.1724198
1.1724765
1.1724846
1.2383251
1.2386208
1.237453
1.2355821
1.2333034
1.2308001
1.2282119
1.2256196
1.2230794
1.2206214
1.2182642
1.2160158
1.2138801
1.2118544
1.2099377
1.2081244
1.2064107
1.2047907
1.2032614
1.2018143
1.200448
1.1991536
1.1979309
1.1967712
1.1956752
1.194635
1.1936509
1.1927164
1.1918315
1.190991
1.1901942
1.1894362
1.1887189
1.1880435
1.1873937
1.1867514
1.1862008
1.1857972
1.1850249
1.1841894
1.1834018
1.1826583
1.1819556
1.1812922
1.1806657
1.1800744
1.1795166
1.1789904
1.1784944
1.178027
1.1775869
1.1771728
1.1767833
1.1764173
1.1760737
1.1757514
1.1754494
1.1751666
1.1749021
1.1746549
1.174424
1.1742086
1.1740076
1.1738203
1.1736459
1.1734838
1.1733336
1.1731949
1.1730674
1.1729508
1.1728449
1.1727496
1.172664
1.1725888
1.172526
1.1724718
1.1724164
1.1723805
1.1724087
1.1724037
1.2436056
1.2414203
1.2390577
1.236093
1.2331005
1.2300704
1.2271373
1.2243171
1.2216375
1.2191014
1.2167104
1.214459
1.2123412
1.2103484
1.2084736
1.2067086
1.2050459
1.2034784
1.2020005
1.2006057
1.1992885
1.1980443
1.1968688
1.1957565
1.194704
1.1937077
1.1927637
1.191869
1.1910208
1.1902163
1.1894521
1.1887266
1.1880414
1.1873904
1.1867544
1.1861688
1.1857052
1.1851273
1.1842756
1.1834776
1.1827224
1.1820101
1.1813373
1.1807022
1.1801029
1.1795375
1.1790044
1.178502
1.1780287
1.177583
1.1771639
1.1767696
1.1763994
1.1760517
1.1757257
1.1754202
1.1751341
1.1748667
1.1746168
1.1743835
1.1741657
1.1739626
1.1737732
1.1735968
1.1734328
1.1732806
1.1731397
1.1730099
1.172891
1.1727825
1.1726845
1.1725965
1.1725184
1.1724503
1.1723928
1.1723444
1.172301
1.172273
1.1722766
1.1722713
1.2412845
1.2391662
1.2368881
1.2340105
1.2311568
1.228276
1.2254995
1.2228313
1.2202965
1.2178945
1.2156254
1.2134837
1.2114637
1.2095584
1.2077608
1.2060645
1.2044627
1.2029496
1.2015197
1.2001677
1.198888
1.1976774
1.19653
1.195444
1.1944128
1.1934374
1.1925089
1.191631
1.1907941
1.1900019
1.1892453
1.188533
1.1878553
1.1871976
1.1865607
1.1860335
1.1855868
1.1847085
1.1838842
1.1830996
1.1823601
1.1816597
1.1809983
1.1803734
1.1797836
1.179227
1.1787022
1.1782077
1.1777417
1.1773033
1.1768909
1.1765033
1.1761396
1.1757981
1.1754783
1.1751787
1.1748986
1.1746369
1.1743924
1.1741642
1.1739513
1.1737527
1.1735674
1.173395
1.1732343
1.1730854
1.1729474
1.1728206
1.172704
1.172598
1.1725017
1.1724157
1.1723391
1.1722723
1.1722153
1.1721676
1.1721286
1.1721004
1.1720864
1.1720814
1.2351299
1.2324895
1.2286381
1.225789
1.2223107
1.2188543
1.2153648
1.2119526
1.2086003
1.2053728
1.2022698
1.1993118
1.1965079
1.1938721
1.1914488
1.1892235
1.1871969
1.1853583
1.1837119
1.182231
1.1808927
1.1797077
1.1786752
1.1777828
1.1770051
1.1763121
1.1757013
1.1751664
1.1747036
1.1742878
1.1739074
1.1735514
1.1732149
1.1729001
1.1726077
1.1723332
1.1720743
1.1718276
1.1715884
1.1713574
1.1711306
1.1709065
1.1706897
1.1704767
1.1702726
1.1700836
1.169906
1.1697389
1.1695817
1.1694337
1.1692943
1.169163
1.169039
1.1689216
1.1688102
1.1687044
1.1686036
1.1685073
1.1684147
1.1683254
1.1682388
1.1681544
1.1680715
1.1679901
1.1679086
1.1678299
1.1677471
1.1676735
1.1675836
1.1675248
1.1674123
1.1673948
1.1672217
1.167309
1.1669976
1.1673114
1.1667003
1.1674314
1.1662617
1.1676869
1.1205269
1.1306644
1.1367059
1.141095
1.1452667
1.148976
1.152269
1.1552309
1.1578933
1.1602796
1.1624091
1.164299
1.1659625
1.1674221
1.1686924
1.16979
1.1707207
1.1715066
1.1721412
1.1726528
1.1730315
1.1733158
1.1735042
1.1736226
1.1736747
1.1736742
1.17364
1.1735803
1.1734868
1.1733608
1.1732111
1.1730368
1.1728438
1.1726442
1.172446
1.1722471
1.1720495
1.1718493
1.1716489
1.1714527
1.1712543
1.1710506
1.1708537
1.1706538
1.1704624
1.1702827
1.1701118
1.1699492
1.1697949
1.1696484
1.1695091
1.1693765
1.1692502
1.1691296
1.1690144
1.1689042
1.1687984
1.1686966
1.1685982
1.1685028
1.1684099
1.1683191
1.1682296
1.1681418
1.1680538
1.1679687
1.1678794
1.1677998
1.1677032
1.1676391
1.167519
1.1674984
1.1673145
1.1674044
1.1670745
1.1674009
1.1667555
1.16752
1.1662909
1.1677802
1.1884867
1.1880668
1.1872153
1.186374
1.185507
1.1847047
1.1839383
1.1832326
1.1825572
1.181907
1.1812733
1.1806578
1.1800556
1.1794732
1.1789135
1.1783784
1.1778895
1.1774255
1.1769872
1.1765702
1.176183
1.1758207
1.1754933
1.1751807
1.174871
1.1745826
1.1743038
1.1740375
1.1737777
1.1735347
1.1732992
1.1730604
1.1728248
1.1726006
1.1723883
1.172179
1.1719768
1.1717731
1.1715847
1.1713784
1.1711673
1.1709727
1.1707854
1.1706015
1.1704262
1.170261
1.1701037
1.1699539
1.1698106
1.169674
1.1695438
1.1694194
1.1693006
1.1691871
1.1690782
1.1689736
1.1688728
1.1687754
1.1686807
1.1685885
1.1684982
1.1684093
1.1683213
1.1682345
1.168147
1.168062
1.1679723
1.167892
1.1677942
1.167729
1.1676063
1.1675846
1.1673963
1.1674874
1.1671475
1.1674813
1.1668118
1.1676032
1.16632
1.1678741
1.1705464
1.1699024
1.1698951
1.1700928
1.1702732
1.1705365
1.1708068
1.1710996
1.1714029
1.1717297
1.1720554
1.1723714
1.172665
1.1729272
1.1731549
1.1733519
1.1735152
1.1735719
1.173741
1.1737066
1.1738269
1.1737748
1.1738159
1.1737567
1.1736942
1.1735996
1.1734882
1.1733605
1.1732194
1.1730731
1.1729203
1.1727513
1.1725784
1.1724063
1.1722375
1.1720672
1.1718978
1.1717245
1.1715563
1.1713776
1.1711977
1.171019
1.1708408
1.1706683
1.1705044
1.1703476
1.1701971
1.1700529
1.169915
1.1697832
1.1696571
1.1695363
1.1694204
1.1693091
1.169202
1.1690987
1.1689986
1.1689013
1.1688065
1.1687137
1.1686223
1.1685321
1.1684424
1.1683534
1.1682635
1.1681759
1.1680832
1.168
1.1678985
1.1678302
1.1677031
1.1676796
1.1674836
1.1675766
1.1672218
1.1675662
1.1668698
1.1676872
1.1663541
1.1679647
1.1733341
1.1732033
1.1732316
1.1733583
1.173433
1.1735361
1.1736176
1.1737048
1.1737815
1.1738522
1.1739141
1.1739657
1.1740065
1.174036
1.1740566
1.1740616
1.1740546
1.1740369
1.1739942
1.1739562
1.1738644
1.1737927
1.1736826
1.1735772
1.1734624
1.173343
1.1732194
1.1730906
1.1729574
1.1728259
1.172689
1.1725385
1.1723866
1.1722375
1.1720914
1.1719418
1.1717926
1.1716377
1.17149
1.1713265
1.1711622
1.171001
1.1708384
1.1706797
1.1705282
1.1703832
1.1702436
1.1701095
1.1699808
1.1698571
1.1697382
1.1696237
1.1695134
1.1694068
1.1693036
1.1692036
1.1691061
1.1690109
1.1689174
1.1688253
1.1687342
1.1686439
1.1685534
1.1684635
1.1683721
1.1682828
1.1681879
1.1681026
1.1679981
1.1679278
1.1677963
1.1677713
1.1675687
1.1676635
1.1672964
1.1676491
1.1669277
1.167771
1.1663862
1.1680568
1.1717281
1.1715928
1.171627
1.1717348
1.1718086
1.1719378
1.1720227
1.1721379
1.172233
1.1723328
1.1724267
1.1725153
1.1725972
1.172669
1.172733
1.1727859
1.1728314
1.1728653
1.1728895
1.1728966
1.1729046
1.1728936
1.1728776
1.172848
1.1728068
1.1727561
1.1726958
1.1726247
1.1725455
1.1724621
1.1723669
1.1722573
1.1721438
1.1720291
1.171914
1.1717931
1.1716706
1.1715396
1.1714131
1.1712693
1.1711264
1.1709842
1.1708376
1.1706944
1.1705571
1.1704245
1.1702961
1.1701721
1.1700522
1.1699365
1.1698247
1.1697165
1.1696116
1.1695096
1.1694102
1.1693133
1.1692182
1.1691247
1.1690324
1.1689409
1.1688498
1.1687589
1.1686676
1.1685763
1.1684833
1.168392
1.1682947
1.1682069
1.1680994
1.1680266
1.1678909
1.1678643
1.1676548
1.1677511
1.1673708
1.167733
1.1669856
1.1678551
1.1664189
1.1681493
1.1714379
1.1713184
1.1714336
1.1715192
1.1715949
1.1716901
1.171773
1.1718642
1.1719498
1.1720336
1.1721128
1.1721863
1.1722526
1.1723108
1.1723643
1.1724114
1.1724511
1.1724818
1.1725012
1.1725126
1.1725127
1.1725054
1.1724884
1.1724646
1.1724326
1.1723943
1.1723491
1.1722959
1.1722366
1.1721739
1.1720995
1.1720136
1.1719242
1.1718339
1.1717427
1.1716447
1.1715448
1.1714361
1.1713306
1.1712058
1.171082
1.1709578
1.1708279
1.1707004
1.1705773
1.1704577
1.1703411
1.1702277
1.1701176
1.1700106
1.1699064
1.1698049
1.1697059
1.1696089
1.1695138
1.1694202
1.1693278
1.1692363
1.1691453
1.1690546
1.1689637
1.1688725
1.1687804
1.1686879
1.1685932
1.1685001
1.1684006
1.1683104
1.1681999
1.1681248
1.1679849
1.1679565
1.1677405
1.1678381
1.1674457
1.1678166
1.167044
1.1679392
1.1664515
1.1682426
1.1708752
1.1707594