/*--------------------------------*- C++ -*----------------------------------*\
  =========                 |
  \\      /  F ield         | OpenFOAM: The Open Source CFD Toolbox
   \\    /   O peration     | Website:  https://openfoam.org
    \\  /    A nd           | Version:  6
     \\/     M anipulation  |
\*---------------------------------------------------------------------------*/
FoamFile
{
    version     2.0;
    format      ascii;
    class       volScalarField;
    location    "50";
    object      T;
}
// * * * * * * * * * * * * * * * * * * * * * * * * * * * * * * * * * * * * * //

dimensions      [0 0 0 1 0 0 0];

internalField   nonuniform List<scalar> 
16000
(
295.21267
294.41377
294.57579
294.81238
295.06307
295.26369
295.48273
295.67836
295.88276
296.07372
296.2606
296.44062
296.61126
296.77669
296.93187
297.08114
297.22082
297.35368
297.47788
297.59483
297.70399
297.80622
297.90169
297.99093
298.07417
298.15159
298.22317
298.28909
298.34958
298.40502
298.45588
298.50252
298.54464
298.58567
298.59691
298.60845
298.62068
298.63011
298.63282
298.63022
298.62401
298.61441
298.60248
298.5888
298.57318
298.55574
298.5367
298.51614
298.4942
298.47101
298.44666
298.42127
298.39495
298.36781
298.33992
298.31137
298.28221
298.25252
298.22232
298.19162
298.16042
298.12869
298.0964
298.06353
298.03006
297.99591
297.96118
297.92546
297.8894
297.85128
297.81445
297.77255
297.73972
297.71611
297.71416
297.71635
297.76374
297.80902
297.87477
297.89115
295.25403
294.30065
294.50677
294.72213
295.00943
295.20298
295.44857
295.64642
295.86795
296.06461
296.26261
296.44843
296.62641
296.79661
296.95665
297.10948
297.2524
297.38774
297.51403
297.63262
297.74309
297.8463
297.94249
298.03225
298.11583
298.19347
298.2652
298.33116
298.39162
298.44694
298.49747
298.54364
298.58593
298.62385
298.65906
298.68394
298.68591
298.69107
298.69274
298.68794
298.67908
298.66721
298.65296
298.63682
298.61883
298.59905
298.5777
298.55489
298.53076
298.50542
298.47899
298.45158
298.4233
298.39426
298.36453
298.33419
298.3033
298.27192
298.24007
298.20777
298.17499
298.1417
298.10788
298.07346
298.03842
298.00269
297.96626
297.92892
297.89094
297.85148
297.81286
297.77314
297.74166
297.71701
297.72247
297.73622
297.79009
297.83799
297.90167
297.90139
295.32569
294.1943
294.46997
294.66431
294.98601
295.17671
295.44662
295.64667
295.88579
296.0874
296.29619
296.48683
296.6714
296.84531
297.00929
297.16459
297.30969
297.44646
297.57382
297.69302
297.80382
297.90707
298.00309
298.09248
298.17558
298.25261
298.32368
298.38893
298.44862
298.5031
298.55277
298.59803
298.63924
298.67673
298.71012
298.73929
298.76766
298.76386
298.75922
298.7521
298.74046
298.72547
298.70835
298.68933
298.66844
298.64587
298.62178
298.59629
298.56955
298.54168
298.51281
298.48304
298.45248
298.42123
298.38937
298.35699
298.32412
298.29082
298.25712
298.22301
298.18847
298.15345
298.11791
298.08178
298.04501
298.00754
297.9693
297.93017
297.89026
297.84935
297.80938
297.77109
297.74327
297.72473
297.73741
297.76493
297.82017
297.87096
297.93262
297.92896
295.4316
294.09618
294.46872
294.59677
295.00304
295.17041
295.47312
295.67358
295.92853
296.13308
296.35063
296.54407
296.73331
296.90912
297.07535
297.23161
297.37757
297.51454
297.64192
297.76082
297.87116
297.97377
298.06903
298.15757
298.23974
298.31581
298.38589
298.45014
298.50879
298.5622
298.61075
298.65483
298.6948
298.73089
298.76316
298.79133
298.81513
298.8369
298.8274
298.81416
298.80056
298.7828
298.76246
298.74054
298.71672
298.69128
298.66443
298.63625
298.60691
298.57653
298.54523
298.51314
298.48034
298.44695
298.41303
298.37868
298.34393
298.30881
298.27336
298.23756
298.20138
298.16476
298.12766
298.08997
298.05165
298.01259
297.97275
297.93203
297.89061
297.84878
297.80865
297.77267
297.74928
297.74188
297.76131
297.79821
297.8546
297.90237
297.95654
297.94028
295.57965
294.01549
294.50834
294.55015
295.05534
295.20549
295.53316
295.73171
295.99982
296.20532
296.42927
296.62362
296.8156
296.99166
297.15866
297.31454
297.46018
297.59634
297.72285
297.84066
297.94985
298.05122
298.14517
298.23236
298.31314
298.38782
298.45651
298.51937
298.57662
298.6286
298.67569
298.71827
298.75669
298.79115
298.82151
298.84762
298.86929
298.88628
298.90113
298.87954
298.8613
298.84155
298.81763
298.79236
298.76549
298.73694
298.70715
298.67611
298.64401
298.61101
298.57717
298.54267
298.50755
298.47195
298.43594
298.39958
298.36291
298.32597
298.28877
298.25129
298.21349
298.1753
298.13666
298.09747
298.05763
298.01707
297.97572
297.93358
297.89096
297.84872
297.80951
297.77726
297.7598
297.76173
297.78896
297.83369
297.88752
297.93033
297.97109
297.95546
295.76407
293.94989
294.60306
294.58522
295.11963
295.26136
295.61939
295.81546
296.09393
296.299
296.52711
296.72092
296.91397
297.08901
297.25552
297.41001
297.55443
297.689
297.81396
297.9301
298.03763
298.1373
298.22955
298.315
298.39404
298.46696
298.53392
298.59506
298.65058
298.70081
298.74611
298.78685
298.82333
298.85569
298.8838
298.90729
298.92599
298.94003
298.94971
298.95106
298.92215
298.89952
298.87265
298.84358
298.81358
298.78182
298.74894
298.71499
298.68006
298.64438
298.60798
298.57104
298.53361
298.49582
298.45773
298.4194
298.38088
298.34216
298.30328
298.26419
298.22485
298.18518
298.1451
298.10451
298.06329
298.02137
297.9787
297.93541
297.89215
297.85042
297.81356
297.78653
297.77656
297.78789
297.82189
297.87021
297.91936
297.95397
297.98471
297.96194
295.97937
293.91225
294.74447
294.65639
295.21262
295.35075
295.73084
295.92364
296.20924
296.41272
296.64277
296.83489
297.02752
297.20057
297.36559
297.51796
297.66045
297.79287
297.91579
298.02984
298.13534
298.23295
298.32316
298.40654
298.48349
298.55431
298.61917
298.67822
298.73165
298.77976
298.82289
298.86136
298.89543
298.92517
298.95038
298.97071
298.98607
298.99648
299.00269
299.00499
298.98489
298.95686
298.92747
298.8945
298.86103
298.82602
298.78988
298.75292
298.71507
298.67665
298.63765
298.59826
298.55852
298.51854
298.47839
298.43814
298.39779
298.35736
298.31685
298.27622
298.23542
298.19435
298.15293
298.11104
298.06856
298.02543
297.98168
297.93766
297.8944
297.85419
297.82113
297.80072
297.79904
297.81863
297.85684
297.90464
297.94609
297.97181
297.98873
297.96974
296.22419
293.92978
294.92546
294.77912
295.36313
295.47859
295.86904
296.05733
296.34613
296.54667
296.77618
296.96541
297.15605
297.32618
297.48874
297.63829
297.77824
297.90803
298.02848
298.14006
298.24316
298.33838
298.42619
298.50714
298.58163
298.64996
298.7123
298.76882
298.81973
298.86528
298.90577
298.94147
298.97255
298.99903
299.02067
299.03723
299.04856
299.05533
299.05785
299.05605
299.0511
299.01428
298.98136
298.94471
298.90735
298.86901
298.8295
298.78946
298.74866
298.70748
298.66588
298.62404
298.58202
298.5399
298.49776
298.45563
298.41354
298.37148
298.32943
298.28736
298.24519
298.20283
298.16018
298.11712
298.07355
298.02943
297.98493
297.94069
297.89833
297.8609
297.83306
297.82016
297.82659
297.85244
297.89181
297.93526
297.96711
297.98375
297.99402
297.97933
296.4928
294.02616
295.14295
294.93893
295.5386
295.63369
296.03078
296.21353
296.50196
296.69867
296.9256
297.11121
297.29872
297.46536
297.62479
297.77113
297.90813
298.03496
298.15261
298.26142
298.36181
298.4543
298.53934
298.61745
298.68903
298.75437
298.81369
298.86717
298.91502
298.95747
298.99474
299.02702
299.05441
299.07687
299.09422
299.10633
299.1134
299.11595
299.11455
299.10926
299.10204
299.07113
299.03356
298.99351
298.95213
298.91039
298.86748
298.8243
298.78055
298.7366
298.69243
298.6482
298.60394
298.55976
298.51569
298.47178
298.42804
298.38444
298.34097
298.29756
298.25414
298.21062
298.16687
298.1228
298.07832
298.0335
297.98869
297.94497
297.90455
297.87116
297.8497
297.84464
297.858
297.88718
297.92433
297.96042
297.98219
297.99169
297.9953
297.98722
296.775
294.20854
295.39333
295.10958
295.735
295.81529
296.21298
296.38956
296.67457
296.86697
297.08982
297.27147
297.4551
297.618
297.77395
297.91686
298.05063
298.1743
298.28889
298.39463
298.49196
298.58131
298.66312
298.73788
298.80597
298.86772
298.92337
298.97316
299.01729
299.05595
299.08928
299.11738
299.14026
299.15787
299.17019
299.1773
299.1796
299.17769
299.17208
299.16343
299.15066
299.1264
299.08404
299.04042
298.99496
298.94967
298.90337
298.85704
298.81036
298.7637
298.71701
298.67046
298.62407
298.57791
298.53203
298.48645
298.44118
298.39617
298.35139
298.30678
298.26225
298.2177
298.17302
298.12813
298.083
298.03785
297.99333
297.95098
297.91366
297.88555
297.87113
297.87332
297.89151
297.92068
297.95249
297.97957
297.99244
297.99698
297.99689
297.99527
297.06009
294.46577
295.66776
295.32702
295.95746
296.02292
296.41506
296.5851
296.86401
297.05183
297.26939
297.44691
297.62612
297.7852
297.93735
298.07666
298.20697
298.3272
298.4384
298.54067
298.63445
298.72012
298.79807
298.86877
298.93262
298.98997
299.04115
299.08642
299.126
299.16004
299.18857
299.21159
299.22906
299.24102
299.24761
299.24923
299.24642
299.23971
299.22986
299.21697
299.1992
299.18009
299.13214
299.08467
299.03525
298.98632
298.93669
298.88724
298.83772
298.78842
298.73933
298.69057
298.64217
298.59418
298.54662
298.49952
298.45285
298.40657
298.36064
298.31498
298.2695
298.22409
298.17867
298.13319
298.08774
298.04274
297.99922
297.95928
297.92621
297.9042
297.89681
297.90478
297.92493
297.95078
297.97503
297.99285
297.99897
298.00088
297.99735
298.00247
297.34066
294.71617
295.96246
295.58162
296.20355
296.25649
296.63784
296.80108
297.07154
297.25449
297.46579
297.63902
297.81341
297.96849
298.11652
298.25203
298.37852
298.49492
298.60221
298.70042
298.78996
298.87116
298.94438
299.01009
299.06872
299.12069
299.16638
299.20612
299.24015
299.26856
299.29129
299.30824
299.3194
299.32494
299.32524
299.3209
299.3127
299.30098
299.28638
299.26904
299.24647
299.22911
299.17724
299.12546
299.07231
299.01976
298.9669
298.91445
298.86221
298.81042
298.75908
298.70827
298.65802
298.60836
298.5593
298.51083
298.46294
298.41557
298.36865
298.32212
298.27586
298.22979
298.18385
298.13808
298.09272
298.04848
298.00684
297.97031
297.94245
297.92689
297.92559
297.93699
297.95599
297.97586
297.99152
298.00112
298.00304
298.00411
297.9974
298.00951
297.6183
295.00793
296.27215
295.86815
296.47232
296.51575
296.88188
297.03844
297.29859
297.47652
297.68079
297.84959
298.01879
298.16961
298.3132
298.44449
298.56661
298.67855
298.78117
298.87446
298.95878
299.03444
299.1018
299.16132
299.21351
299.25887
299.29786
299.33088
299.3582
299.37983
299.39566
299.40554
299.40954
299.40803
299.40159
299.39103
299.37704
299.36011
299.34068
299.31858
299.29154
299.26962
299.21831
299.16219
299.10545
299.04943
298.9935
298.93822
298.88344
298.82936
298.77596
298.72331
298.67141
298.62027
298.5699
298.52027
298.47135
298.42307
298.37537
298.32815
298.28133
298.23483
298.18865
298.14294
298.0982
298.05543
298.01655
297.9844
297.96227
297.95271
297.95576
297.96779
297.98271
297.99496
298.0024
298.00562
298.00567
298.00796
298.00046
298.01581
297.88732
295.35514
296.59109
296.18332
296.76085
296.79911
297.14698
297.29777
297.54651
297.71951
297.9163
298.08054
298.24413
298.39038
298.52896
298.65537
298.7723
298.87882
298.97566
299.06281
299.1406
299.20931
299.26936
299.32124
299.36554
299.40285
299.43376
299.45873
299.47803
299.49166
299.49947
299.50135
299.49751
299.48849
299.47505
299.45807
299.43816
299.41568
299.39127
299.36438
299.33308
299.30722
299.25449
299.19428
299.13407
299.07482
299.01603
298.95816
298.90108
298.84494
298.78972
298.73546
298.68214
298.62976
298.5783
298.52773
298.47799
298.42902
298.38074
298.33306
298.2859
298.23924
298.19315
298.14796
298.1044
298.0639
298.02864
298.00145
297.98499
297.98024
297.98524
297.99505
298.00385
298.0082
298.00884
298.00778
298.00723
298.01181
298.00554
298.02213
298.14687
295.69747
296.91922
296.52272
297.06953
297.10681
297.4349
297.58112
297.81789
297.98603
298.17497
298.33429
298.49173
298.63267
298.76532
298.88576
298.99622
299.09589
299.18539
299.26474
299.33426
299.39428
299.44526
299.48779
299.52254
299.55025
299.57158
299.58709
299.59705
299.60149
299.60027
299.59339
299.58122
299.56447
299.54396
299.52043
299.49454
299.4665
299.43703
299.40554
299.37
299.34085
299.28498
299.22112
299.15764
299.09549
299.03411
298.97395
298.91485
298.85694
298.80017
298.74456
298.69009
298.63672
298.58442
298.53315
298.48283
298.43339
298.38476
298.33685
298.28962
298.24309
298.19748
298.1533
298.11161
298.07409
298.04306
298.02099
298.00938
298.00754
298.01197
298.01734
298.01914
298.01648
298.01247
298.00916
298.00812
298.01446
298.011
298.0298
298.40208
296.09489
297.25793
296.88493
297.3988
297.43957
297.74773
297.89062
298.1154
298.27872
298.45938
298.61316
298.7635
298.89794
299.0232
299.136
299.23814
299.32895
299.40902
299.47842
299.53754
299.58678
299.6267
299.65798
299.68144
299.69793
299.70822
299.71289
299.7123
299.70651
299.69549
299.67939
299.6587
299.63417
299.60671
299.57677
299.54485
299.51139
299.47712
299.44096
299.40153
299.37006
299.30926
299.24232
299.17585
299.11118
299.04754
298.98542
298.92462
298.86525
298.80723
298.75057
298.69522
298.64113
298.58825
298.53652
298.48586
298.43619
298.38745
298.33957
298.29255
298.2465
298.20179
298.15918
298.11995
298.08601
298.05946
298.042
298.03379
298.03263
298.03422
298.03401
298.0294
298.02155
298.01486
298.01087
298.01015
298.01649
298.01451
298.03668
298.64338
296.50667
297.61371
297.26918
297.7498
297.79847
298.08786
298.22867
298.44184
298.60015
298.77193
298.91895
299.06074
299.18677
299.3025
299.40524
299.49649
299.5758
299.64378
299.70064
299.74687
299.78301
299.80975
299.82789
299.83838
299.84214
299.84008
299.8328
299.82073
299.80403
299.78282
299.75737
299.72827
299.69619
299.66195
299.62601
299.58833
299.54964
299.51071
299.47026
299.42764
299.39533
299.32719
299.25771
299.18864
299.1218
299.0563
298.99257
298.93042
298.86991
298.81096
298.75355
298.6976
298.64306
298.58985
298.53791
298.48715
298.4375
298.3889
298.34131
298.2948
298.24959
298.20624
298.16569
298.12947
298.09935
298.077
298.06306
298.05637
298.05374
298.05107
298.04531
298.036
298.02539
298.01714
298.01339
298.01265
298.0181
298.01832
298.04174
298.89479
296.92713
297.98313
297.67975
298.12662
298.18606
298.45862
298.59831
298.80002
298.95267
299.11431
299.25266
299.38354
299.49833
299.60146
299.69088
299.76793
299.83246
299.88521
299.92659
299.95727
299.97795
299.98948
299.99277
299.98887
299.97878
299.96343
299.94352
299.91952
299.89169
299.86033
299.8258
299.78864
299.74953
299.70887
299.66722
299.62453
299.58126
299.53784
299.49279
299.44883
299.41472
299.33899
299.26726
299.19613
299.12751
299.06054
298.99558
298.93242
298.8711
298.81153
298.75365
298.69738
298.64264
298.58936
298.53745
298.48683
298.43743
298.3892
298.34217
298.29647
298.25247
298.21088
298.17285
298.13984
298.11343
298.09449
298.08257
298.07549
298.06984
298.06249
298.05223
298.04024
298.02907
298.02099
298.01675
298.01435
298.01801
298.02408
298.04532
299.16441
297.37852
298.37768
298.11075
298.5354
298.60709
298.86402
299.003
299.19274
299.33797
299.48717
299.61361
299.73004
299.82963
299.91604
299.988
300.04686
300.09286
300.12695
300.14986
300.16244
300.16555
300.16021
300.14738
300.1282
300.10367
300.07473
300.04208
300.00629
299.96772
299.92676
299.88378
299.83923
299.79362
299.7473
299.70034
299.6531
299.60604
299.55877
299.50993
299.46582
299.42386
299.34508
299.27128
299.19866
299.12863
299.06061
298.99475
298.93093
298.8691
298.80919
298.75111
298.69477
298.64008
298.58695
298.53529
298.48502
298.43608
298.38846
298.34223
298.29764
298.25517
298.21568
298.18035
298.15052
298.12722
298.11052
298.09902
298.0901
298.0808
298.06938
298.05619
298.04327
298.03285
298.02578
298.02103
298.01765
298.01624
298.02674
298.04758
299.45784
297.86887
298.80953
298.58283
298.97898
299.06822
299.30949
299.44649
299.62208
299.75621
299.88884
299.99843
300.09539
300.17455
300.23919
300.28889
300.32517
300.3488
300.36096
300.36272
300.35513
300.33918
300.31598
300.28653
300.25192
300.21308
300.17095
300.1262
300.0794
300.031
299.98139
299.93086
299.87982
299.82845
299.77719
299.72581
299.67471
299.62444
299.57379
299.52206
299.47862
299.42598
299.34591
299.27031
299.19665
299.1256
299.05686
298.99045
298.92625
298.8642
298.8042
298.74616
298.68997
298.63553
298.58275
298.53153
298.4818
298.43352
298.38671
298.3415
298.29826
298.25755
298.22031
298.18765
298.16057
298.13949
298.12372
298.11135
298.09986
298.08725
298.07309
298.05863
298.04588
298.03631
298.02973
298.02456
298.02189
298.02234
298.02256
298.0479
299.77403
298.40581
299.27832
299.09931
299.47384
299.57738
299.80051
299.93027
300.08671
300.20379
300.31357
300.39973
300.47067
300.52327
300.56052
300.58299
300.59254
300.59042
300.57809
300.55685
300.52795
300.49244
300.45132
300.4056
300.35624
300.30411
300.24991
300.19435
300.13788
300.08101
300.02401
299.96715
299.91054
299.8544
299.79874
299.74371
299.68959
299.63667
299.58285
299.52953
299.48817
299.42241
299.3418
299.26476
299.19042
299.11871
299.04958
298.98291
298.91861
298.85658
298.79671
298.73891
298.68305
298.62904
298.57677
298.52616
298.47713
298.42967
298.38383
298.33984
298.29808
298.25925
298.2242
298.19388
298.16886
298.14898
298.13305
298.11909
298.10514
298.09022
298.07483
298.06041
298.04837
298.03937
298.03282
298.02763
298.02491
298.02332
298.02285
298.04439
300.10463
299.01314
299.80373
299.69167
300.01223
300.12904
300.33365
300.45079
300.58054
300.67216
300.7506
300.80503
300.84256
300.86206
300.86662
300.85763
300.83725
300.80718
300.76917
300.72447
300.67435
300.61987
300.56193
300.5013
300.4387
300.3749
300.31046
300.24583
300.18146
300.11765
300.05464
299.99263
299.93162
299.87168
299.81267
299.75475
299.69841
299.64312
299.58647
299.53389
299.49699
299.41324
299.33275
299.25479
299.18006
299.10808
299.03884
298.97219
298.90802
298.84623
298.78668
298.72929
298.67392
298.62048
298.56887
298.51898
298.47078
298.42426
298.37954
298.33685
298.29667
298.25964
298.22654
298.19803
298.17429
298.15473
298.13801
298.12244
298.10676
298.0908
298.0754
298.06171
298.05046
298.04163
298.0345
298.02886
298.02572
298.02357
298.02318
298.0396
300.4922
299.71121
300.37918
300.3207
300.66043
300.7484
300.91199
301.00314
301.09256
301.14621
301.18283
301.19642
301.19333
301.17418
301.1422
301.09931
301.04789
300.98972
300.92647
300.85951
300.78984
300.71823
300.64546
300.57198
300.49841
300.42502
300.35241
300.28069
300.21027
300.14118
300.07373
300.00768
299.94334
299.88039
299.81899
299.75905
299.70107
299.64331
299.58571
299.53734
299.48491
299.39918
299.31838
299.24033
299.16553
299.09363
299.02458
298.9582
298.89439
298.83301
298.77396
298.71712
298.66237
298.60961
298.55874
298.50968
298.4624
298.41692
298.37336
298.33202
298.29334
298.25794
298.22641
298.19916
298.17605
298.15634
298.13877
298.12212
298.10573
298.08982
298.07517
298.06245
298.0519
298.0432
298.03565
298.02936
298.02559
298.02323
298.02269
298.03309
300.95809
300.44117
301.09712
301.07558
301.32539
301.39379
301.50949
301.55703
301.59485
301.59889
301.58511
301.55108
301.50295
301.44257
301.37322
301.29693
301.21591
301.13182
301.04598
300.95946
300.87303
300.78718
300.70227
300.61858
300.53635
300.45579
300.37701
300.30023
300.2254
300.15268
300.08188
300.01317
299.94637
299.88145
299.81818
299.75707
299.69782
299.63814
299.58131
299.53846
299.46574
299.38063
299.29942
299.22161
299.14701
299.07547
299.00682
298.94093
298.87766
298.81686
298.75843
298.70224
298.64819
298.59618
298.54611
298.49792
298.45159
298.40716
298.36478
298.32472
298.28743
298.25342
298.22312
298.19674
298.17399
298.15414
298.13616
298.11922
298.10301
298.08781
298.07414
298.0623
298.05228
298.04376
298.03626
298.03005
298.02568
298.02183
298.02076
298.02605
301.55604
301.33747
301.85415
301.8319
302.02002
302.04586
302.09426
302.08211
302.05576
302.00093
301.93124
301.84683
301.7534
301.6533
301.54939
301.44346
301.33707
301.23138
301.12725
301.02524
300.92577
300.82901
300.73503
300.64382
300.55537
300.46969
300.38674
300.30645
300.22875
300.15354
300.08074
300.01033
299.94202
299.87583
299.81168
299.7498
299.6891
299.62848
299.5758
299.53048
299.44104
299.35682
299.27593
299.19862
299.12457
299.05362
298.98561
298.92038
298.85779
298.7977
298.73998
298.68451
298.63119
298.57993
298.53064
298.48329
298.43786
298.39442
298.35314
298.31428
298.27825
298.24547
298.21628
298.19074
298.16854
298.14899
298.13129
298.11479
298.0993
298.08498
298.07211
298.06082
298.05109
298.0427
298.0354
298.02949
298.02504
298.02082
298.01906
298.01857
302.36321
302.29806
302.66298
302.6197
302.70363
302.65982
302.62097
302.53515
302.43702
302.32007
302.19534
302.06423
301.93101
301.79746
301.66554
301.5365
301.41099
301.2896
301.17253
301.05982
300.95149
300.8474
300.74742
300.65135
300.55898
300.47009
300.38459
300.3022
300.22285
300.1463
300.07246
300.00108
299.93215
299.86519
299.80089
299.73873
299.67631
299.6173
299.57161
299.50051
299.41261
299.3288
299.24873
299.17216
299.09887
299.0287
298.96147
298.89702
298.8352
298.77587
298.7189
298.66416
298.61156
298.561
298.51241
298.46577
298.42109
298.37848
298.33812
298.30032
298.26546
298.23391
298.20595
298.18156
298.1604
298.1418
298.12501
298.10945
298.09487
298.08136
298.06905
298.05807
298.04842
298.03999
298.03271
298.02694
298.02273
298.01885
298.01623
298.01152
303.32272
303.25475
303.4342
303.341
303.29983
303.17094
303.038
302.87744
302.71223
302.54109
302.37106
302.20343
302.0407
301.88354
301.7327
301.58833
301.4505
301.31909
301.19403
301.07492
300.96139
300.85315
300.74973
300.6509
300.55628
300.46562
300.37866
300.29513
300.21478
300.13741
300.0629
299.99099
299.92144
299.85431
299.7898
299.72612
299.66347
299.60922
299.56072
299.46962
299.3827
299.29971
299.22042
299.1446
299.07205
299.0026
298.93608
298.87232
298.81117
298.75249
298.69614
298.64201
298.58998
298.53998
298.49194
298.44587
298.40182
298.35993
298.32046
298.28375
298.25019
298.22014
298.19378
298.17097
298.15126
298.13394
298.11824
298.10362
298.08985
298.07699
298.06517
298.0545
298.04497
298.03648
298.02897
298.02275
298.01777
298.01364
298.01233
298.01415
304.23387
304.11956
304.06995
303.89922
303.72057
303.50529
303.28863
303.06729
302.85209
302.64334
302.44401
302.25423
302.07455
301.90446
301.74382
301.59198
301.44851
301.3128
301.18453
301.06284
300.94758
300.83784
300.73356
300.63387
300.53887
300.44777
300.36067
300.27695
300.19662
300.11921
300.04475
299.97277
299.90331
299.83671
299.77217
299.70689
299.64734
299.60351
299.52248
299.43244
299.34691
299.2651
299.18691
299.11211
299.04053
298.97197
298.90628
298.84331
298.78289
298.7249
298.66919
298.61565
298.56418
298.5147
298.46719
298.42168
298.37829
298.33724
298.29885
298.26355
298.23173
298.20369
298.17946
298.15873
298.14082
298.12491
298.11026
298.09643
298.08332
298.07107
298.05985
298.04975
298.04074
298.03272
298.02568
298.01972
298.01474
298.01061
298.00815
298.00529
304.74524
304.62349
304.42515
304.17635
303.91495
303.64723
303.38777
303.13761
302.90076
302.67703
302.46689
302.26957
302.08446
301.91057
301.74712
301.59322
301.44809
301.31099
301.18143
301.05881
300.94256
300.8322
300.72729
300.62724
300.53168
300.44032
300.35277
300.26878
300.18808
300.11043
300.03556
299.9632
299.89353
299.82649
299.76016
299.69634
299.64335
299.57995
299.4873
299.39856
299.31393
299.23299
299.15559
299.08151
299.01059
298.94264
298.87751
298.81504
298.75508
298.6975
298.64218
298.58899
298.53785
298.48872
298.4416
298.39659
298.35388
298.31383
298.27681
298.24331
298.21366
298.18802
298.16616
298.14749
298.13116
298.11629
298.10227
298.08885
298.07612
298.06431
298.05357
298.04394
298.03535
298.02775
298.02109
298.01549
298.0108
298.00707
298.00464
298.0025
304.45527
304.43645
304.24885
304.01274
303.75652
303.49786
303.24744
303.00705
302.77991
302.56551
302.36406
302.17466
301.99666
301.82912
301.67124
301.52226
301.38145
301.24821
301.12205
301.00249
300.88897
300.78114
300.67838
300.58049
300.48677
300.39736
300.31131
300.22903
300.14954
300.07331
299.99933
299.92837
299.85989
299.79294
299.7261
299.66735
299.61836
299.52479
299.43439
299.34805
299.26542
299.18633
299.11059
299.03802
298.96849
298.90179
298.83778
298.77634
298.71727
298.6605
298.60589
298.55333
298.5028
298.45424
298.40778
298.36357
298.32196
298.28336
298.24827
298.21714
298.1902
298.16739
298.14816
298.13169
298.11699
298.10331
298.09019
298.07768
298.06589
298.05513
298.04536
298.03664
298.02885
298.02198
298.01604
298.01103
298.00695
298.00379
298.00172
298.00056
295.37501
295.84404
295.31986
294.9196
294.73917
294.44863
294.15555
293.88848
293.72424
293.62329
293.57116
293.54071
293.58738
293.74051
293.91649
294.07745
294.24785
294.43581
294.55288
294.66706
294.85345
295.04077
295.22558
295.40882
295.58982
295.76931
295.94432
296.11197
296.27158
296.42182
296.5629
296.69915
296.82815
296.94617
297.05237
297.14811
297.23872
297.32305
297.3968
297.45242
297.50518
297.5513
297.59752
297.6395
297.6732
297.70432
297.73088
297.75372
297.77415
297.79239
297.80878
297.82358
297.83703
297.84933
297.8606
297.87098
297.88059
297.88953
297.89783
297.9055
297.91254
297.91906
297.92506
297.93003
297.93475
297.93746
297.94206
297.93974
297.94746
297.93651
297.9534
297.91987
297.96381
297.878
297.98061
297.80817
298.02562
297.68474
298.11006
297.57662
301.36077
299.12815
297.91653
297.23446
296.93488
296.64377
296.36927
296.14387
295.95012
295.78459
295.64421
295.53302
295.45124
295.40135
295.35914
295.33814
295.34128
295.36065
295.40403
295.48161
295.59902
295.72338
295.853
295.98051
296.11212
296.24404
296.37792
296.51178
296.64179
296.76271
296.8824
296.99794
297.10651
297.20003
297.27848
297.35321
297.42408
297.48919
297.54612
297.59127
297.63227
297.66711
297.69507
297.72399
297.75023
297.77139
297.78992
297.80621
297.82016
297.83247
297.84357
297.85364
297.86292
297.87155
297.87959
297.88712
297.89422
297.90093
297.90726
297.91318
297.91858
297.92365
297.92824
297.93201
297.93564
297.93723
297.94063
297.93788
297.94381
297.93221
297.9479
297.91376
297.95863
297.86967
297.97595
297.79842
298.02129
297.67346
298.10449
297.55951
289.29462
289.22573
289.37105
289.73879
290.21363
290.66936
291.13691
291.54941
291.96604
292.36956
292.78109
293.17925
293.55876
293.91613
294.26313
294.59455
294.86198
295.13166
295.38398
295.63104
295.84253
296.03706
296.23618
296.40296
296.56703
296.7059
296.83192
296.94644
297.05546
297.14943
297.23889
297.32672
297.39926
297.46282
297.52422
297.5794
297.62878
297.6725
297.70551
297.73672
297.7637
297.78471
297.80256
297.81664
297.82974
297.84159
297.8519
297.86075
297.86855
297.87553
297.8818
297.88763
297.89315
297.89842
297.90342
297.9082
297.91282
297.91725
297.92148
297.92545
297.92908
297.93241
297.93534
297.93744
297.93965
297.9399
297.94211
297.93799
297.94308
297.92966
297.94546
297.90977
297.95403
297.86276
297.97139
297.78909
298.01801
297.66074
298.10362
297.53886
293.32715
293.43453
293.62432
293.85865
294.05812
294.22957
294.38013
294.52387
294.64865
294.76387
294.89815
295.03991
295.18798
295.34824
295.50978
295.62672
295.77512
295.92461
296.03679
296.22998
296.29991
296.46974
296.54973
296.67631
296.77805
296.88974
296.99242
297.09092
297.1832
297.26311
297.34321
297.41869
297.48176
297.53852
297.59277
297.64187
297.68561
297.72385
297.75341
297.77861
297.80115
297.81924
297.83491
297.84603
297.85604
297.86479
297.87261
297.87951
297.88569
297.8912
297.89624
297.90095
297.90542
297.90966
297.91369
297.91754
297.92122
297.92474
297.92808
297.93117
297.93408
297.93646
297.93862
297.93967
297.94122
297.93999
297.94175
297.93712
297.94124
297.92753
297.94221
297.90519
297.94881
297.85618
297.96632
297.78079
298.01212
297.65073
298.09764
297.52119
292.73225
292.6274
292.58285
292.74829
292.9839
293.21188
293.41903
293.63899
293.85783
294.08347
294.30231
294.51906
294.73218
294.94121
295.14211
295.34585
295.54028
295.72534
295.92289
296.07393
296.27626
296.41659
296.58839
296.72484
296.86006
296.97926
297.09149
297.19403
297.28765
297.36628
297.44168
297.51332
297.57385
297.62742
297.67729
297.72181
297.7611
297.79437
297.82136
297.84379
297.86162
297.87727
297.88455
297.89318
297.90075
297.90679
297.91166
297.91562
297.91899
297.92194
297.92457
297.92698
297.92926
297.93142
297.93347
297.93542
297.9373
297.93909
297.94077
297.94227
297.94362
297.94456
297.9453
297.94518
297.94519
297.94307
297.94314
297.93731
297.94108
297.92501
297.93999
297.9013
297.94507
297.85041
297.96167
297.77264
298.00738
297.6404
298.09336
297.50313
293.24203
293.08639
293.13135
293.46602
293.68937
293.90211
294.10084
294.30062
294.49612
294.68986
294.88182
295.07173
295.25858
295.44172
295.62044
295.79114
295.95626
296.11682
296.26707
296.41809
296.54986
296.68522
296.80542
296.92168
297.02977
297.1323
297.22685
297.31553
297.39614
297.46436
297.53396
297.59548
297.64859
297.69586
297.74084
297.78114
297.81647
297.84562
297.86903
297.88756
297.90239
297.91258
297.92145
297.92766
297.93278
297.93676
297.93983
297.94211
297.94387
297.94524
297.94635
297.94728
297.94812
297.94887
297.94954
297.95014
297.95068
297.95115
297.95153
297.95174
297.95176
297.95148
297.95097
297.94964
297.94853
297.94525
297.94435
297.93732
297.94006
297.92315
297.93703
297.89749
297.94089
297.84525
297.95656
297.76441
298.00183
297.63023
298.08841
297.48563
293.33404
293.17414
293.11728
293.4614
293.70358
293.92178
294.12473
294.33161
294.53389
294.73442
294.93122
295.12473
295.31421
295.49912
295.67819
295.85146
296.01852
296.17917
296.33463
296.48024
296.62379
296.75711
296.88416
297.00112
297.10999
297.21155
297.30748
297.39345
297.47058
297.53576
297.60177
297.65971
297.70884
297.75242
297.79494
297.8331
297.86609
297.89263
297.915
297.9313
297.94364
297.95256
297.95863
297.96321
297.96666
297.96889
297.97025
297.97086
297.971
297.97078
297.97035
297.96976
297.96908
297.96834
297.96752
297.96665
297.96573
297.96475
297.96369
297.96249
297.96114
297.95946
297.95762
297.95496
297.95258
297.94806
297.9461
297.93767
297.93954
297.92123
297.93464
297.89398
297.93682
297.84084
297.95125
297.75721
297.9956
297.62016
298.08319
297.4687