/*--------------------------------*- C++ -*----------------------------------*\
  =========                 |
  \\      /  F ield         | OpenFOAM: The Open Source CFD Toolbox
   \\    /   O peration     | Website:  https://openfoam.org
    \\  /    A nd           | Version:  6
     \\/     M anipulation  |
\*---------------------------------------------------------------------------*/
FoamFile
{
    version     2.0;
    format      ascii;
    class       volVectorField;
    location    "50";
    object      U;
}
// * * * * * * * * * * * * * * * * * * * * * * * * * * * * * * * * * * * * * //

dimensions      [0 1 -1 0 0 0 0];

internalField   nonuniform List<vector> 
16000
(
(171.49929 1.1008403e-15 -19.218441)
(177.02696 -1.0132476e-15 -13.173362)
(175.95778 3.8780306e-18 -18.259161)
(176.02369 3.5587182e-18 -14.528376)
(174.98866 0 -17.204634)
(174.66193 -8.2139271e-16 -15.371607)
(173.84983 7.8015669e-16 -16.538519)
(173.29083 0 -15.780459)
(172.53354 -1.7190639e-19 -16.146525)
(171.84875 1.633641e-19 -15.878476)
(171.1039 3.1058624e-19 -15.894463)
(170.36512 -6.0467402e-16 -15.79009)
(169.61776 5.7503587e-16 -15.682658)
(168.86325 4.5429757e-18 -15.598382)
(168.11538 5.2055195e-16 -15.455605)
(167.36463 -4.9538503e-16 -15.34628)
(166.62422 -9.4395514e-16 -15.19106)
(165.88785 8.9782343e-16 -15.051196)
(165.1632 0 -14.884389)
(164.44793 8.1483711e-16 -14.718744)
(163.74578 -7.7624942e-16 -14.537466)
(163.05648 -7.4059217e-16 -14.350753)
(162.38182 -8.0496844e-19 -14.153397)
(161.72225 -4.4145736e-19 -13.948519)
(161.07876 6.3096755e-16 -13.73495)
(160.4519 0 -13.513645)
(159.84233 5.84084e-16 -13.2846)
(159.25054 -5.476358e-16 -13.048258)
(158.67695 -5.1845939e-19 -12.804864)
(158.1218 -4.9479281e-19 -12.55483)
(157.58537 -4.8389932e-16 -12.298369)
(157.06911 4.6120587e-16 -12.034512)
(156.57273 -1.378593e-17 -11.767619)
(156.09742 -1.2343414e-17 -11.499152)
(155.6445 8.0473131e-16 -11.228063)
(155.21157 -1.5379318e-15 -10.955405)
(154.79872 7.3418423e-16 -10.678273)
(154.40532 1.0970278e-17 -10.395758)
(154.03417 1.0484314e-17 -10.110656)
(153.68807 0 -9.8261639)
(153.36709 -1.196496e-18 -9.5427497)
(153.06843 1.1438927e-18 -9.2601914)
(152.78956 -5.5919152e-16 -8.9785101)
(152.5304 5.3661502e-16 -8.6988078)
(152.29143 5.1142146e-16 -8.4220603)
(152.07216 -4.8996919e-16 -8.1489487)
(151.87211 -9.1541536e-19 -7.8802642)
(151.69099 0 -7.6167474)
(151.52826 4.293052e-16 -7.3590496)
(151.38347 -4.1076742e-16 -7.1078567)
(151.25602 0 -6.8637226)
(151.14538 0 -6.6272065)
(151.05094 2.2536632e-17 -6.3987992)
(150.97208 -1.348309e-18 -6.178934)
(150.90815 2.0675483e-17 -5.968028)
(150.85853 0 -5.7664195)
(150.82256 0 -5.5744649)
(150.79957 0 -5.3924626)
(150.78889 0 -5.2207238)
(150.78988 -3.5566979e-17 -5.0595451)
(150.80192 -3.2114396e-17 -4.9092682)
(150.82444 0 -4.7702625)
(150.85694 2.9581983e-17 -4.642954)
(150.89888 0 -4.5279016)
(150.95011 -3.069442e-17 -4.4256016)
(151.00975 -4.2270238e-16 -4.3371865)
(151.07923 4.0321262e-16 -4.2626642)
(151.1548 -3.0290576e-18 -4.2055517)
(151.24536 3.7304034e-16 -4.1618747)
(151.33178 -3.7877848e-16 -4.1451756)
(151.45345 0 -4.1305469)
(151.52945 -3.3323881e-16 -4.1718458)
(151.70294 6.4237647e-16 -4.1350801)
(151.64222 -3.1016822e-16 -4.2430524)
(151.88659 4.6712691e-18 -4.0268888)
(151.45563 0 -4.2609579)
(151.9042 -1.3964363e-16 -3.4368662)
(150.71169 1.7129586e-17 -4.2195511)
(151.5977 1.3104016e-16 -2.0249391)
(149.73283 -3.2037556e-17 -4.6599937)
(171.59763 -1.1054492e-15 -21.23036)
(177.66489 1.0160907e-15 -14.791551)
(176.30717 -3.8049205e-18 -20.27185)
(176.46741 9.2576331e-16 -16.148129)
(175.21901 -8.840086e-16 -19.090277)
(174.91337 6.5034259e-18 -16.992223)
(173.95999 0 -18.301912)
(173.37183 0 -17.38114)
(172.51591 7.0384671e-16 -17.800786)
(171.78389 -6.9000593e-16 -17.435649)
(170.96834 6.3643105e-16 -17.454216)
(170.18135 -6.1464567e-16 -17.287369)
(169.38029 0 -17.157935)
(168.5828 5.525241e-16 -17.026681)
(167.79284 -5.2972651e-16 -16.851657)
(167.00603 0 -16.701448)
(166.23225 0 -16.510195)
(165.46659 0 -16.331573)
(164.71555 -8.5842344e-16 -16.127446)
(163.977 8.3035642e-16 -15.923665)
(163.25421 0 -15.704602)
(162.54683 7.5478726e-16 -15.47984)
(161.85639 -7.0784009e-16 -15.244455)
(161.18323 -6.861246e-16 -15.00142)
(160.52817 3.0219966e-17 -14.749633)
(159.89166 6.0418903e-16 -14.49)
(159.27425 6.1400412e-16 -14.222514)
(158.6764 -1.1446319e-15 -13.947605)
(158.09853 1.0838018e-15 -13.66557)
(157.54097 -5.008402e-16 -13.37683)
(157.00395 4.9381705e-16 -13.081793)
(156.48755 -9.4252178e-16 -12.780948)
(155.99136 9.1393052e-16 -12.474578)
(155.51724 -8.4582874e-16 -12.161973)
(155.06472 4.1017835e-16 -11.847143)
(154.63505 0 -11.532453)
(154.22829 2.3414059e-17 -11.218697)
(153.84494 -1.117522e-17 -10.904628)
(153.48568 -6.9457073e-16 -10.587119)
(153.15274 6.9408742e-16 -10.26971)
(152.84601 0 -9.9545976)
(152.56223 -5.9697645e-16 -9.6413711)
(152.29897 3.5444588e-17 -9.3297466)
(152.05638 1.09086e-15 -9.0211986)
(151.83465 -5.2139596e-16 -8.7168395)
(151.63312 -4.98731e-16 -8.4172349)
(151.45125 5.0660901e-16 -8.1233054)
(151.28859 -3.9911222e-16 -7.8358581)
(151.14447 8.1796035e-16 -7.5555292)
(151.01835 -4.1729525e-16 -7.2830541)
(150.9095 0 -7.018996)
(150.81731 0 -6.7639143)
(150.74108 -2.2847572e-17 -6.5183042)
(150.68012 -7.0001551e-16 -6.2825685)
(150.63373 6.491372e-16 -6.0571085)
(150.60123 6.0158948e-16 -5.8422222)
(150.58197 4.1788479e-20 -5.6382183)
(150.57526 -6.6229374e-16 -5.4453486)
(150.58042 0 -5.2638649)
(150.59683 3.3776747e-17 -5.0939976)
(150.62391 -3.2397744e-17 -4.9360172)
(150.66113 -6.2099235e-17 -4.79021)
(150.70802 -4.4653359e-16 -4.6569246)
(150.76417 2.042801e-20 -4.536593)
(150.82934 4.1097986e-16 -4.4296933)
(150.90313 0 -4.3370117)
(150.98611 -4.0390268e-16 -4.2589554)
(151.07684 3.8792859e-16 -4.197576)
(151.17938 -4.6586632e-17 -4.1512018)
(151.28436 3.8050324e-16 -4.127041)
(151.40998 -6.8861079e-16 -4.1089981)
(151.50537 3.7263442e-16 -4.124805)
(151.64781 3.1860496e-16 -4.0861127)
(151.6316 -9.8332981e-20 -4.1302509)
(151.78101 -3.1859674e-16 -3.9118881)
(151.41429 2.6747953e-16 -4.0276902)
(151.68867 -2.7049988e-16 -3.2575859)
(150.65637 -1.6688074e-17 -3.8863044)
(151.35545 1.6006738e-17 -1.9026371)
(149.71029 3.1241454e-17 -4.3552497)
(171.45016 1.1140427e-15 -23.292911)
(178.15864 -1.9773716e-21 -16.478093)
(176.39983 -9.8587416e-16 -22.333131)
(176.67436 9.2558887e-16 -17.825374)
(175.22973 6.9423431e-18 -21.034951)
(174.93823 8.3715654e-16 -18.662834)
(173.83194 -1.6053446e-15 -20.118487)
(173.21967 1.1467352e-17 -19.022344)
(172.26278 7.2540805e-16 -19.498406)
(171.48872 1.0780568e-17 -19.02542)
(170.60395 -6.6706478e-16 -19.048263)
(169.77381 6.2457972e-16 -18.810614)
(168.92251 0 -18.659292)
(168.08704 0 -18.475072)
(167.25933 -5.3915303e-16 -18.26657)
(166.44138 5.131022e-16 -18.071168)
(165.63887 0 -17.841826)
(164.84869 1.4562225e-17 -17.621085)
(164.07587 -1.3863236e-17 -17.377166)
(163.31864 8.1971311e-16 -17.132301)
(162.57971 5.705686e-19 -16.872774)
(161.85869 -7.44317e-16 -16.607105)
(161.15686 7.2168122e-16 -16.330869)
(160.47447 -6.9863127e-16 -16.046761)
(159.81218 -6.8762169e-16 -15.753793)
(159.17039 6.5546747e-16 -15.452825)
(158.54957 1.8989676e-17 -15.143893)
(157.9501 3.6197394e-17 -14.827453)
(157.37233 3.4541759e-17 -14.503839)
(156.81656 -5.4374072e-16 -14.173484)
(156.28296 4.7147277e-16 -13.836837)
(155.77159 5.1043877e-16 -13.494352)
(155.28252 -4.5833769e-16 -13.146611)
(154.81582 -4.3787358e-16 -12.794365)
(154.37149 8.3595627e-16 -12.437581)
(153.951 -7.982961e-16 -12.078107)
(153.55459 -3.5765965e-16 -11.719405)
(153.18527 7.2816946e-16 -11.365489)
(152.84364 0 -11.015307)
(152.52949 -6.6495934e-16 -10.664933)
(152.24184 5.9538872e-16 -10.31644)
(151.97797 0 -9.9716851)
(151.73532 -3.6239623e-17 -9.6299573)
(151.51418 0 -9.2923745)
(151.31459 6.6267881e-17 -8.960582)
(151.13556 0 -8.6350485)
(150.97648 -3.0250207e-17 -8.3166495)
(150.83678 4.546628e-20 -8.0063315)
(150.71559 1.1064968e-16 -7.7046722)
(150.61228 0 -7.4124086)
(150.526 0 -7.1301047)
(150.45603 0 -6.8582643)
(150.40157 0 -6.5973646)
(150.36188 0 -6.3477565)
(150.33619 8.4731987e-17 -6.1097885)
(150.32378 4.0520878e-17 -5.8837046)
(150.32397 6.2067702e-16 -5.6697417)
(150.33609 -5.9414783e-16 -5.4680865)
(150.35946 -7.1115378e-17 -5.2789169)
(150.39347 0 -5.1023856)
(150.4376 6.5188447e-17 -4.9386809)
(150.49136 5.6204865e-16 -4.7880037)
(150.55434 -5.3848497e-16 -4.6506124)
(150.62622 0 -4.5268298)
(150.70681 -5.4971434e-17 -4.4170578)
(150.79593 -1.0536504e-16 -4.3218592)
(150.89384 4.0404565e-16 -4.2417416)
(151.00009 -3.8755909e-16 -4.1778495)
(151.11631 4.6467144e-17 -4.1295306)
(151.23722 -3.5673478e-16 -4.0994726)
(151.36909 5.2053207e-20 -4.0767493)
(151.47849 2.8776146e-16 -4.071523)
(151.59896 0 -4.0220596)
(151.58832 0 -4.0025903)
(151.65886 1.8233307e-17 -3.7719945)
(151.32568 1.7579701e-17 -3.7618489)
(151.4661 2.955039e-17 -3.0648768)
(150.56646 -1.1430856e-16 -3.5195913)
(151.12177 1.1380883e-16 -1.769993)
(149.64703 -6.0413491e-17 -3.9974976)
(171.04494 2.6851922e-17 -25.401381)
(178.50134 8.1652836e-18 -18.219766)
(176.26499 1.0126867e-15 -24.440988)
(176.77263 5.5790939e-19 -19.551408)
(174.99634 -8.9992606e-16 -23.017004)
(174.77885 -8.5469706e-16 -20.364698)
(173.47889 8.1336069e-16 -21.95843)
(172.85067 -1.2081017e-17 -20.684005)
(171.79814 7.4774922e-16 -21.212565)
(170.99015 -6.7807733e-16 -20.62963)
(170.04309 -6.6669228e-16 -20.654748)
(169.17744 1.2488648e-15 -20.344039)
(168.28285 -6.0374445e-16 -20.169783)
(167.41634 1.7981532e-17 -19.930602)
(166.55722 0 -19.687708)
(165.71417 0 -19.445407)
(164.88845 -4.9722942e-16 -19.17685)
(164.07891 4.5866162e-16 -18.912378)
(163.28906 0 -18.62723)
(162.51758 8.876882e-16 -18.339555)
(161.76662 -8.4567599e-16 -18.037805)
(161.03584 3.0801297e-20 -17.729275)
(160.32632 0 -17.410124)
(159.63824 -4.4490477e-17 -17.082737)
(158.97222 -6.7872081e-16 -16.746275)
(158.32858 6.0650237e-16 -16.401558)
(157.70778 -6.5626116e-16 -16.048692)
(157.11017 5.5214563e-16 -15.688177)
(156.5361 -3.5115311e-17 -15.320431)
(155.98583 -3.3557584e-17 -14.945977)
(155.45946 -4.8022609e-16 -14.565356)
(154.95697 4.5805132e-16 -14.179141)
(154.47832 0 -13.787952)
(154.02379 0 -13.392479)
(153.59393 0 -12.993915)
(153.189 -5.0780736e-17 -12.593731)
(152.81027 -4.8423465e-17 -12.192166)
(152.45895 7.8677603e-16 -11.793545)
(152.13784 -8.8123674e-17 -11.404795)
(151.847 -6.3297804e-16 -11.022482)
(151.58228 4.0301801e-17 -10.641124)
(151.34189 6.1642944e-16 -10.263817)
(151.124 -5.1505139e-16 -9.8922869)
(150.92811 -5.6261725e-16 -9.5262603)
(150.75426 -6.7303392e-17 -9.167543)
(150.60125 9.6289182e-16 -8.8170195)
(150.46826 -3.6794346e-16 -8.4752311)
(150.35464 -5.8598191e-17 -8.143253)
(150.25931 3.9223341e-16 -7.8216384)
(150.18154 -5.3547949e-16 -7.5110299)
(150.12035 -4.0948162e-16 -7.2120005)
(150.07492 3.9138252e-16 -6.9249599)
(150.04438 0 -6.6503399)
(150.02789 7.1548284e-16 -6.3884163)
(150.02466 -7.6955831e-16 -6.1394582)
(150.0339 0 -5.9036408)
(150.05495 6.2571236e-16 -5.6811157)
(150.08711 -9.7259024e-16 -5.4719849)
(150.12974 5.0097743e-16 -5.276345)
(150.18225 5.4783321e-16 -5.0942633)
(150.24415 -1.3110818e-16 -4.9258387)
(150.31503 -5.0170882e-16 -4.7711826)
(150.39453 -4.8017545e-16 -4.6304574)
(150.48242 5.7463632e-16 -4.5038811)
(150.57856 -4.4011737e-16 -4.3917491)
(150.68291 1.0538913e-16 -4.2944549)
(150.79564 4.0364144e-16 -4.2124052)
(150.91658 -3.8659676e-16 -4.1461397)
(151.04598 5.5565585e-16 -4.0949984)
(151.17966 0 -4.0585861)
(151.31614 0 -4.0272183)
(151.42933 0 -3.9988458)
(151.52695 0 -3.9264695)
(151.51051 1.5009148e-16 -3.8459791)
(151.51248 -2.8800261e-16 -3.5955111)
(151.20418 3.4621588e-16 -3.482458)
(151.24163 -3.6544142e-16 -2.8557865)
(150.47108 4.9662822e-16 -3.1743939)
(150.91413 -3.7260848e-16 -1.639085)
(149.59204 -1.4195219e-19 -3.726277)
(170.36894 1.1603843e-15 -27.548168)
(178.68016 6.1878907e-19 -20.021868)
(175.81967 -1.0396228e-15 -26.58967)
(176.72667 0 -21.31947)
(174.50557 -1.4237378e-17 -25.008305)
(174.37119 -2.7043032e-17 -22.087986)
(172.89998 0 -23.801914)
(172.26069 -7.5922105e-16 -22.359682)
(171.11818 7.4569088e-16 -22.932985)
(170.28169 -7.3230367e-16 -22.243937)
(169.27831 6.756536e-16 -22.268168)
(168.38267 -2.2590835e-20 -21.885035)
(167.45027 0 -21.686371)
(166.55781 5.6573534e-16 -21.391394)
(165.67208 -5.5589687e-16 -21.112857)
(164.80845 0 -20.822102)
(163.9637 5.0508653e-16 -20.512703)
(163.13877 -5.1110584e-16 -20.202458)
(162.33561 4.5884232e-16 -19.873931)
(161.55346 4.1040758e-16 -19.540969)
(160.79395 -8.074227e-16 -19.194356)
(160.05684 -2.4828822e-17 -18.840098)
(159.34305 4.7428802e-17 -18.475012)
(158.65278 -7.0913657e-20 -18.101183)
(157.9866 0 -17.717969)
(157.34484 -6.5836876e-20 -17.326184)
(156.72793 0 -16.926046)
(156.13623 3.7465056e-17 -16.518144)
(155.57007 0 -16.103007)
(155.02969 3.4056088e-17 -15.681284)
(154.51516 0 -15.253653)
(154.02639 0 -14.820842)
(153.56333 5.9296415e-17 -14.38367)
(153.12632 0 -13.943172)
(152.71613 -4.3191226e-16 -13.50065)
(152.33367 4.6355169e-16 -13.057809)
(151.97965 0 -12.61676)
(151.6543 -4.6921118e-17 -12.178464)
(151.35898 -6.277682e-16 -11.746463)
(151.09521 5.9918903e-16 -11.327123)
(150.85926 -6.5415034e-16 -10.914856)
(150.64705 7.0261174e-16 -10.505337)
(150.45868 -7.4571558e-16 -10.103953)
(150.29278 5.6961995e-16 -9.7107694)
(150.14892 -1.3610727e-16 -9.3262283)
(150.02612 6.49327e-17 -8.9520913)
(149.92311 -1.2404867e-16 -8.5885867)
(149.83922 1.1860691e-16 -8.23669)
(149.77318 -4.5301805e-16 -7.8970377)
(149.72412 9.7365047e-16 -7.5700804)
(149.69096 3.2987533e-20 -7.2563854)
(149.67276 -4.9378768e-16 -6.9562404)
(149.66859 1.8877713e-16 -6.6699951)
(149.67756 0 -6.3978295)
(149.69881 0 -6.1399094)
(149.73154 0 -5.8963202)
(149.77507 -6.2957551e-16 -5.6671122)
(149.82874 4.5141315e-16 -5.4522912)
(149.89192 1.4379979e-16 -5.2518599)
(149.96406 -1.3753934e-16 -5.0657929)
(150.04473 1.3145101e-16 -4.8940935)
(150.13357 -7.5433404e-16 -4.7367793)
(150.23031 9.6178131e-16 -4.5939126)
(150.33478 -1.0347826e-15 -4.4656046)
(150.44693 9.8973352e-16 -4.352029)
(150.56678 -2.1047145e-16 -4.2534106)
(150.69444 -6.038633e-16 -4.1699383)
(150.82967 0 -4.1015579)
(150.97153 -1.8423699e-16 -4.0469174)
(151.11524 1.7634993e-16 -4.0028715)
(151.25377 0 -3.9587677)
(151.36334 0 -3.9037001)
(151.43571 -1.5472041e-16 -3.8009823)
(151.40323 -2.9646569e-16 -3.6617228)
(151.34857 -2.8404393e-16 -3.3892538)
(151.05978 6.8148914e-17 -3.1954579)
(151.02846 -6.5398839e-17 -2.6422441)
(150.37321 2.5137641e-16 -2.8564988)
(150.76293 -6.0078893e-17 -1.5309847)
(149.53973 2.2751759e-16 -3.4762631)
(169.43047 1.156784e-15 -29.729025)
(178.69287 -1.0646116e-15 -21.890335)
(175.11951 1.5930514e-17 -28.755177)
(176.18702 0 -23.114742)
(173.80619 1.4386379e-17 -27.006292)
(173.68569 9.0265288e-16 -23.845797)
(172.10489 -8.0746494e-16 -25.658462)
(171.45741 -4.958441e-17 -24.06379)
(170.23265 0 -24.666407)
(169.37177 -7.1947969e-16 -23.877158)
(168.31869 6.3729712e-17 -23.892433)
(167.39754 1.9870036e-17 -23.438157)
(166.43268 5.8235194e-16 -23.21065)
(165.51854 0 -22.858751)
(164.61053 5.6436348e-16 -22.541476)
(163.7301 -1.0415701e-15 -22.199993)
(162.86996 1.0247525e-15 -21.846836)
(162.03302 -4.5769373e-16 -21.487908)
(161.21982 0 -21.112815)
(160.43018 2.7721919e-17 -20.731207)
(159.66529 -8.4683831e-16 -20.336195)
(158.92508 1.6144227e-15 -19.932511)
(158.21037 -1.587698e-15 -19.517678)
(157.52141 8.2570313e-16 -19.093509)
(156.85877 -7.0056005e-16 -18.659609)
(156.22281 6.6766444e-16 -18.216834)
(155.61396 0 -17.765563)
(155.03258 -5.7001054e-16 -17.306516)
(154.47898 5.7975831e-16 -16.84039)
(153.95338 6.9235404e-17 -16.368002)
(153.4558 6.6058282e-17 -15.890221)
(152.98611 -5.6692348e-16 -15.40799)
(152.54427 9.0131029e-16 -14.922401)
(152.13077 2.4817633e-19 -14.434819)
(151.74664 -8.7540468e-16 -13.947037)
(151.39292 5.2211783e-16 -13.461115)
(151.07016 0 -12.979117)
(150.77828 3.8050625e-16 -12.503367)
(150.51662 -4.5384731e-16 -12.033756)
(150.28437 0 -11.574097)
(150.0822 -6.6177332e-16 -11.128424)
(149.90332 7.8949105e-17 -10.689776)
(149.74867 5.2745524e-16 -10.259153)
(149.61732 0 -9.8403446)
(149.50756 1.3734804e-16 -9.4319296)
(149.41883 6.5614514e-16 -9.0359901)
(149.34944 -5.0106981e-16 -8.6529627)
(149.29857 1.1594326e-19 -8.2833888)
(149.26483 -4.5687627e-16 -7.9280499)
(149.2472 8.7249338e-16 -7.587161)
(149.24451 1.2472122e-20 -7.2612268)
(149.25575 -9.9407525e-17 -6.9504021)
(149.2799 -1.8988073e-16 -6.654915)
(149.31603 1.8145867e-16 -6.3748303)
(149.36327 1.7329314e-16 -6.1101903)
(149.42081 6.6181078e-16 -5.8609705)
(149.48797 -6.3220297e-16 -5.6271085)
(149.56411 0 -5.4085049)
(149.64865 0 -5.2050578)
(149.74111 1.3775803e-16 -5.0166451)
(149.84109 5.2653291e-16 -4.8431694)
(149.94831 -2.516199e-16 -4.6845522)
(150.06259 -4.8065768e-16 -4.5407525)
(150.18381 -2.2962963e-16 -4.4117697)
(150.31201 2.1943989e-16 -4.2976399)
(150.44722 4.1939976e-16 -4.1983878)
(150.58943 8.0156051e-16 -4.1138629)
(150.73797 -3.8306453e-16 -4.0432766)
(150.89056 3.6604656e-16 -3.9840248)
(151.0407 -6.9982244e-16 -3.9301642)
(151.17683 -3.3442766e-16 -3.8687644)
(151.27565 3.1979632e-16 -3.783163)
(151.32031 1.5287259e-16 -3.6439831)
(151.26673 1.4626195e-16 -3.4509454)
(151.16807 -2.7994719e-16 -3.1579172)
(150.90197 1.3407535e-16 -2.9091967)
(150.82621 1.2838154e-16 -2.4319196)
(150.28642 -4.9247681e-16 -2.5706789)
(150.61282 2.9419993e-16 -1.443428)
(149.49181 0 -3.2246321)
(168.21859 1.860073e-17 -31.940331)
(178.47885 -1.0415892e-15 -23.809116)
(174.12643 3.1588204e-17 -30.915924)
(175.42987 9.7540922e-16 -24.953348)
(172.85218 -9.3214667e-16 -29.024523)
(172.79696 9.1271759e-16 -25.648681)
(171.07741 -5.2737631e-17 -27.532)
(170.42625 2.5080986e-17 -25.799573)
(169.13065 0 -26.412931)
(168.24988 7.2871565e-16 -25.532136)
(167.15533 -7.8036089e-16 -25.52749)
(166.21322 0 -25.004463)
(165.2217 6.6936813e-16 -24.741717)
(164.28995 -5.9983121e-16 -24.331706)
(163.36392 5.7210652e-16 -23.971124)
(162.47018 -5.7883281e-16 -23.575911)
(161.59807 4.547192e-16 -23.174779)
(160.75225 -9.9045315e-16 -22.763222)
(159.9321 4.7192518e-16 -22.337148)
(159.13806 -4.5032502e-16 -21.902401)
(158.371 4.8273711e-16 -21.45428)
(157.63107 -5.1217965e-17 -20.996371)
(156.91907 -4.8842805e-17 -20.526921)
(156.23535 -4.6481866e-17 -20.047541)
(155.58051 0 -19.558144)
(154.95496 4.2280107e-17 -19.059687)
(154.35912 6.4607414e-16 -18.552773)
(153.79331 -6.9273025e-16 -18.038311)
(153.25783 5.1425399e-16 -17.517212)
(152.75285 -1.3977729e-16 -16.990522)
(152.27836 -6.0126234e-16 -16.459361)
(151.8342 -1.269312e-19 -15.924971)
(151.42036 -4.8666865e-16 -15.388801)
(151.03746 4.6403027e-16 -14.852656)
(150.68667 1.1080794e-16 -14.318743)
(150.36905 -1.055188e-16 -13.789469)
(150.08466 0 -13.26702)
(149.83247 -3.8454918e-16 -12.753185)
(149.61108 4.583974e-16 -12.249163)
(149.41848 -7.0005344e-16 -11.753476)
(149.25292 8.3496391e-16 -11.27335)
(149.11386 -1.5925097e-16 -10.807732)
(148.99796 7.6035611e-16 -10.350259)
(148.90592 -1.3063405e-15 -9.9072759)
(148.83472 -1.3866422e-16 -9.4776962)
(148.78397 3.9663697e-16 -9.0624732)
(148.75181 0 -8.662696)
(148.73715 1.2059912e-16 -8.2783213)
(148.73858 0 -7.91018)
(148.75491 -2.1948286e-16 -7.5582768)
(148.78493 0 -7.2229758)
(148.82755 -3.9971579e-16 -6.9042927)
(148.88172 1.9082806e-16 -6.6023002)
(148.94648 -3.6415158e-16 -6.3169298)
(149.02097 -1.7373394e-16 -6.0480855)
(149.10438 0 -5.7956157)
(149.19605 0 -5.559339)
(149.29541 0 -5.3390445)
(149.40193 -5.7723411e-16 -5.134518)
(149.51517 2.7568147e-16 -4.9455388)
(149.63483 7.0032075e-20 -4.7719073)
(149.7607 5.0232014e-16 -4.6134466)
(149.89266 0 -4.4700094)
(150.03068 6.8662958e-16 -4.3414735)
(150.17482 -6.5562476e-16 -4.2277108)
(150.3251 -2.0853077e-16 -4.1284805)
(150.48119 -1.9908133e-16 -4.043131)
(150.64169 7.6060166e-16 -3.9698642)
(150.80263 -3.6310105e-16 -3.9042961)
(150.95509 -5.1988587e-16 -3.8375331)
(151.0839 1.3558751e-19 -3.7540082)
(151.16587 1.3937936e-19 -3.6341633)
(151.18189 1.5091653e-15 -3.4555815)
(151.10727 -5.7683768e-16 -3.2168278)
(150.97906 5.5117687e-16 -2.9100412)
(150.7418 0 -2.6318068)
(150.646 5.0380266e-16 -2.2337637)
(150.21246 -4.8253494e-16 -2.3203391)
(150.51022 0 -1.3681333)
(149.44719 2.1422207e-16 -3.0079438)
(166.73147 1.18782e-15 -34.184052)
(177.93943 -2.1707067e-15 -25.762626)
(172.84504 -3.3321928e-17 -33.080451)
(174.48882 -8.0875545e-19 -26.843226)
(171.645 9.4203155e-16 -31.042913)
(171.65234 -8.960123e-16 -27.481514)
(169.81943 1.7339862e-15 -29.403186)
(169.16635 -8.1228958e-16 -27.557578)
(167.8125 0 -28.161017)
(166.91478 0 -27.201238)
(165.7867 8.7819163e-17 -27.164842)
(164.82687 -6.6959667e-16 -26.577236)
(163.81379 6.7738353e-16 -26.272172)
(162.86747 0 -25.803286)
(161.92699 0 -25.39406)
(161.02275 5.5230184e-16 -24.941734)
(160.14162 -4.6027172e-16 -24.487488)
(159.28972 0 -24.018538)
(158.46561 4.7841931e-16 -23.536025)
(157.67035 -4.557148e-16 -23.042634)
(156.90459 -5.4277052e-17 -22.535641)
(156.1688 5.1750395e-17 -22.017705)
(155.46377 4.9343253e-17 -21.487818)
(154.79002 0 -20.947508)
(154.14817 0 -20.397069)
(153.53866 0 -19.837648)
(152.96188 0 -19.270142)
(152.41807 0 -18.695713)
(151.90745 6.6856938e-16 -18.115553)
(151.43013 -4.9569774e-16 -17.530993)
(150.98606 0 -16.943485)
(150.57508 5.7977933e-16 -16.354655)
(150.19723 2.3750827e-19 -15.766399)
(149.85314 2.0687903e-19 -15.181003)
(149.54394 -8.9364287e-16 -14.601073)
(149.27036 4.2615218e-16 -14.029163)
(149.03167 5.0827219e-16 -13.467427)
(148.82584 -3.8760982e-16 -12.917212)
(148.65062 -3.6976267e-16 -12.378948)
(148.50362 -3.5271859e-16 -11.853573)
(148.38143 -1.68149e-16 -11.342172)
(148.28803 6.4162659e-16 -10.848575)
(148.21619 -1.5314309e-16 -10.368887)
(148.16765 -4.3808457e-16 -9.9045818)
(148.13913 1.3916604e-16 -9.4573036)
(148.12987 6.6440092e-16 -9.0263066)
(148.13808 -2.5364843e-16 -8.6132)
(148.1624 2.4195939e-16 -8.2175337)
(148.2014 -2.3061907e-16 -7.8400036)
(148.25376 2.2001218e-16 -7.480462)
(148.31824 0 -7.1390662)
(148.39372 -1.5702495e-19 -6.8156852)
(148.47913 -1.9104173e-16 -6.5102139)
(148.57353 1.8225542e-16 -6.2224357)
(148.67607 -3.4796101e-16 -5.9521066)
(148.78599 0 -5.6989384)
(148.90267 -3.1666769e-16 -5.4626272)
(149.02561 3.0191565e-16 -5.2428465)
(149.15433 -1.1526344e-15 -5.0392697)
(149.2885 5.4998988e-16 -4.8515774)
(149.42788 5.2449621e-16 -4.6794684)
(149.57234 -2.501954e-16 -4.5226663)
(149.72183 4.7732121e-16 -4.3809124)
(149.8764 -9.107336e-16 -4.2539452)
(150.03609 -4.3435826e-16 -4.1414256)
(150.20074 8.2873848e-16 -4.0427353)
(150.36956 9.0254468e-20 -3.9564933)
(150.53999 3.7694112e-16 -3.8795332)
(150.70602 3.5950531e-16 -3.8052375)
(150.85606 0 -3.7217454)
(150.97243 9.8071538e-16 -3.6113911)
(151.03326 -1.8713331e-15 -3.4548614)
(151.02222 7.2323595e-20 -3.2377817)
(150.93098 8.5180807e-16 -2.9648771)
(150.7893 -1.355148e-15 -2.6551834)
(150.58792 1.8200829e-19 -2.3722086)
(150.4902 2.4708874e-16 -2.0532434)
(150.15424 -4.7195628e-16 -2.1012007)
(150.40652 1.1255074e-15 -1.3005806)
(149.40665 -2.0795729e-16 -2.7824439)
(164.99465 0 -36.463101)
(177.00468 -1.0977079e-15 -27.739712)
(171.29499 1.055574e-15 -35.251976)
(173.25512 3.1220684e-17 -28.771353)
(170.19911 9.8299512e-16 -33.056529)
(170.26587 -2.7449616e-17 -29.349849)
(168.33858 -8.6297913e-16 -31.274935)
(167.68243 7.7105531e-16 -29.341443)
(166.2813 -7.8284025e-16 -29.91204)
(165.36668 -7.9314034e-16 -28.885783)
(164.211 -5.5345567e-19 -28.803712)
(163.23439 6.7698305e-16 -28.15482)
(162.2031 9.361999e-20 -27.798408)
(161.24364 -6.1533588e-16 -27.268515)
(160.29107 5.858791e-16 -26.803426)
(159.37819 6.992782e-17 -26.289001)
(158.49044 5.9937096e-16 -25.774697)
(157.63501 -5.0729923e-16 -25.24193)
(156.81 -4.8400475e-16 -24.695848)
(156.01701 4.0322213e-16 -24.136778)
(155.25666 -4.3979065e-16 -23.563707)
(154.5297 4.1887371e-16 -22.978662)
(153.837 -3.9963589e-16 -22.381401)
(153.1792 2.8531504e-16 -21.77352)
(152.55693 0 -21.155781)
(151.97059 6.9236432e-16 -20.529613)
(151.42047 -6.5955397e-16 -19.896287)
(150.90665 -6.2916011e-16 -19.257284)
(150.42919 -3.6038957e-19 -18.614136)
(149.98809 5.7140723e-16 -17.96853)
(149.58328 5.4500584e-16 -17.322324)
(149.2146 -5.1929672e-16 -16.677611)
(148.88206 1.2393946e-16 -16.036793)
(148.58616 -4.7212478e-16 -15.402604)
(148.32767 7.8760577e-16 -14.777895)
(148.10662 -4.2892431e-16 -14.165223)
(147.92131 -7.1583391e-16 -13.566432)
(147.76885 3.8982791e-16 -12.982276)
(147.64617 0 -12.413367)
(147.55031 -1.7732405e-16 -11.861174)
(147.48078 -6.7566814e-16 -11.323142)
(147.43606 6.4422655e-16 -10.80586)
(147.41303 7.6783627e-16 -10.308038)
(147.41174 -7.3240839e-16 -9.8266238)
(147.42949 -2.7914414e-16 -9.3655068)
(147.46483 6.6618036e-16 -8.9229545)
(147.5161 2.5387424e-16 -8.5005184)
(147.58169 2.4235185e-16 -8.0976002)
(147.66015 2.3106878e-16 -7.714582)
(147.75011 -5.6008065e-20 -7.3511866)
(147.85032 -6.3022622e-16 -7.0073254)
(147.95965 6.0073475e-16 -6.6827027)
(148.07706 3.8185886e-16 -6.3770252)
(148.20165 -7.2844611e-16 -6.0899168)
(148.33261 3.4713969e-16 -5.820983)
(148.46927 -6.62113e-16 -5.5697965)
(148.61106 1.578315e-15 -5.3359308)
(148.75756 -3.0113391e-16 -5.1189451)
(148.9084 -2.8706169e-16 -4.9184051)
(149.06331 -2.7356826e-16 -4.7338946)
(149.22216 0 -4.5650141)
(149.38489 -7.4613463e-16 -4.4113857)
(149.55153 -4.7397548e-16 -4.2726292)
(149.72213 1.3559287e-15 -4.1483103)
(149.89664 4.3073394e-16 -4.0377993)
(150.07461 -4.1049712e-16 -3.9399338)
(150.25445 -1.5649354e-15 -3.852307)
(150.4321 -3.7272141e-16 -3.7699881)
(150.59924 3.5536425e-16 -3.6838437)
(150.74189 0 -3.5794504)
(150.8415 9.674283e-16 -3.4385274)
(150.87949 -6.1473181e-16 -3.2452833)
(150.84626 8.7876231e-16 -2.9950735)
(150.74681 -8.3757958e-16 -2.7027554)
(150.60801 1.3522394e-19 -2.403373)
(150.44804 5.0781003e-16 -2.1364256)
(150.35982 2.4195937e-16 -1.8915976)
(150.10677 0 -1.9055006)
(150.32566 -2.1966342e-16 -1.2364907)
(149.37092 0 -2.5686642)
(163.04216 -1.2403808e-15 -38.782108)
(175.62539 -3.4712087e-17 -29.735946)
(169.48542 -3.3425885e-17 -37.443992)
(171.74732 -3.15382e-17 -30.75028)
(168.50741 -3.0081979e-17 -35.086849)
(168.62909 -9.1707531e-16 -31.264935)
(166.62665 9.2745929e-16 -33.159245)
(165.96497 5.1934668e-17 -31.159839)
(164.5268 8.421537e-16 -31.672361)
(163.59403 -6.6000165e-16 -30.589357)
(162.41577 -8.9885314e-17 -30.445058)
(161.42238 7.2830868e-16 -29.735418)
(160.37558 -6.9316391e-16 -29.31601)
(159.40395 0 -28.720366)
(158.44152 0 -28.189686)
(157.522 -6.355745e-16 -27.605761)
(156.63044 4.0337647e-16 -27.022158)
(155.77471 0 -26.417038)
(154.95282 -5.5019897e-16 -25.798296)
(154.16683 9.3139633e-16 -25.164763)
(153.41745 3.9481367e-19 -24.516879)
(152.70568 -7.4007018e-16 -23.856363)
(152.03248 4.0292626e-16 -23.18378)
(151.39856 -6.7263899e-16 -22.500952)
(150.80448 8.2345372e-16 -21.809201)
(150.25052 -8.733575e-17 -21.110343)
(149.73669 0 -20.406084)
(149.26283 0 -19.698287)
(148.8287 4.5262942e-16 -18.988876)
(148.43417 2.8165195e-19 -18.279955)
(148.07911 1.3743799e-16 -17.573856)
(147.76333 -1.0444504e-15 -16.873188)
(147.4867 4.9784015e-16 -16.180836)
(147.2493 -4.7425259e-16 -15.499847)
(147.05116 5.6489368e-16 -14.8331)
(146.89129 -4.3061313e-16 -14.182865)
(146.76703 6.1522102e-16 -13.550413)
(146.67474 0 -12.936144)
(146.61079 0 -12.340794)
(146.57278 3.5507776e-16 -11.765035)
(146.56049 -1.6932891e-16 -11.207883)
(146.56871 -8.0638334e-16 -10.674021)
(146.59904 -1.5378087e-16 -10.161789)
(146.64881 1.025768e-15 -9.6684397)
(146.71596 2.7947445e-16 -9.1980783)
(146.79856 -1.0650962e-15 -8.7488544)
(146.89495 0 -8.3217312)
(147.00348 -7.2562622e-16 -7.9161005)
(147.12266 4.6125318e-16 -7.5319375)
(147.25116 2.1990412e-16 -7.1688192)
(147.38773 4.1880663e-16 -6.8264038)
(147.5313 -7.9876041e-16 -6.5042134)
(147.68091 7.61121e-16 -6.2017692)
(147.8357 -1.0885302e-15 -5.9185323)
(147.99498 3.458355e-16 -5.6539616)
(148.15813 3.2956167e-16 -5.4074955)
(148.3247 0 -5.1785906)
(148.49436 0 -4.9666981)
(148.66685 5.7023196e-16 -4.7712846)
(148.84199 5.4329625e-16 -4.5918416)
(149.01974 -5.1791858e-16 -4.4278748)
(149.20011 4.930203e-16 -4.2789004)
(149.38318 -4.69746e-16 -4.1443951)
(149.56897 4.4739056e-16 -4.0236959)
(149.75722 -1.2788405e-15 -3.9157587)
(149.94694 -8.1181973e-16 -3.8186466)
(150.13545 1.1597115e-15 -3.7285809)
(150.31689 3.6800507e-16 -3.6385408)
(150.48068 0 -3.5369403)
(150.61135 6.6709556e-16 -3.4078172)
(150.69152 -6.3523022e-16 -3.2345693)
(150.70824 0 -3.008095)
(150.66089 -5.7589572e-16 -2.7347642)
(150.56415 -5.4845156e-16 -2.4399182)
(150.44289 0 -2.1642118)
(150.32624 0 -1.9282007)
(150.25219 0 -1.7476455)
(150.06793 -4.5139679e-16 -1.7291849)
(150.24556 0 -1.174399)
(149.33963 -7.7640985e-16 -2.3550782)
(160.88847 -3.9379864e-17 -41.146961)
(173.8263 0 -31.761292)
(167.39907 -1.0501951e-15 -39.6783)
(169.93562 1.054683e-15 -32.787425)
(166.54643 0 -37.142229)
(166.71663 -9.28604e-16 -33.231546)
(164.66034 8.2802627e-16 -35.059175)
(163.99084 0 -33.012713)
(162.52649 7.5177593e-16 -33.440222)
(161.57466 -8.1065667e-16 -32.306891)
(160.37902 4.5382391e-17 -32.081998)
(159.36926 6.4979162e-16 -31.309045)
(158.30999 -8.1902254e-17 -30.812901)
(157.32784 -5.4949288e-16 -30.144006)
(156.35854 5.2409487e-16 -29.535763)
(155.43548 7.2020392e-17 -28.872543)
(154.54424 -4.7527087e-16 -28.208283)
(153.69305 0 -27.520244)
(152.88015 6.1542301e-17 -26.817971)
(152.108 1.7626027e-16 -26.099648)
(151.37743 -1.1205463e-16 -25.366957)
(150.68969 -2.1311334e-16 -24.621663)
(150.04575 0 -23.865188)
(149.44627 9.6826936e-17 -23.099766)
(148.89164 -9.1924962e-17 -22.327363)
(148.38181 8.7554285e-17 -21.550271)
(147.91638 0 -20.770689)
(147.49473 -1.5932683e-16 -19.990904)
(147.11626 -4.548595e-16 -19.213267)
(146.78057 4.3255487e-16 -18.44034)
(146.48744 -1.3725288e-16 -17.674963)
(146.23656 0 -16.920235)
(146.02744 3.7420666e-16 -16.179402)
(145.85941 -5.9380236e-16 -15.455576)
(145.73138 1.1348391e-16 -14.751358)
(145.6412 -2.1568104e-16 -14.068451)