/*--------------------------------*- C++ -*----------------------------------*\
  =========                 |
  \\      /  F ield         | OpenFOAM: The Open Source CFD Toolbox
   \\    /   O peration     | Website:  https://openfoam.org
    \\  /    A nd           | Version:  6
     \\/     M anipulation  |
\*---------------------------------------------------------------------------*/
FoamFile
{
    version     2.0;
    format      ascii;
    class       volScalarField;
    location    "5";
    object      p;
}
// * * * * * * * * * * * * * * * * * * * * * * * * * * * * * * * * * * * * * //

dimensions      [0 2 -2 0 0 0 0];

internalField   nonuniform List<scalar> 
13046
(
0.764841
0.733965
0.817809
0.767985
0.809234
0.756791
0.746365
0.759963
0.819442
0.456726
0.435696
0.793334
0.745633
0.702618
0.814104
0.53759
0.794446
0.460493
0.807243
0.792978
0.756838
0.524674
0.796049
0.459224
0.768848
0.76569
0.808117
0.731446
0.699808
0.817382
0.775678
0.709799
0.811242
0.783785
0.808955
0.763436
0.781978
0.810588
0.776086
0.785022
0.8029
0.68735
0.781157
0.804219
0.788768
0.776365
0.796666
0.791746
0.750174
0.733967
0.818823
0.770032
0.794657
0.632907
0.776567
0.612488
0.801253
0.541135
0.687393
0.799041
0.662016
0.69428
0.812515
0.801073
0.54884
0.572359
0.707133
0.544279
0.794532
0.722358
0.556059
0.794888
0.519386
0.672678
0.7986
0.807323
0.805611
0.73867
0.801167
0.634796
0.517464
0.760775
0.762223
0.808394
0.798625
0.525357
0.546322
0.536443
0.801905
0.585152
0.795998
0.477635
0.594421
0.674495
0.652909
0.640445
0.630198
0.808613
0.81114
0.803113
0.53723
0.603357
0.773516
0.802133
0.785388
0.813873
0.649241
0.776671
0.790952
0.791808
0.657064
0.344898
0.78809
0.333357
0.751253
0.718688
0.810277
0.659293
0.675323
0.597278
0.806322
0.624701
0.806935
0.43493
0.406628
0.792102
0.714852
0.654148
0.817411
0.778325
0.804462
0.687323
0.795232
0.4974
0.623313
0.614775
0.609696
0.806485
0.766566
0.699759
0.809478
0.698107
0.757104
0.811923
0.789642
0.778848
0.655801
0.809703
0.668128
0.784567
0.656137
0.672053
0.809962
0.821687
0.710867
0.777584
0.744882
0.606821
0.73091
0.601444
0.805017
0.806466
0.694551
0.743
0.805519
0.448167
0.793363
0.45137
0.383243
0.789274
0.357896
0.606767
0.589131
0.806398
0.778166
0.63907
0.804291
0.69876
0.804297
0.754165
0.796872
0.490341
0.457717
0.780966
0.657042
0.797375
0.81991
0.69578
0.773659
0.711253
0.758594
0.809148
0.697245
0.819248
0.720983
0.675326
0.813511
0.527061
0.799197
0.545926
0.800734
0.530162
0.624288
0.485907
0.580599
0.794579
0.764396
0.593404
0.786315
0.726527
0.643671
0.796842
0.512368
0.549631
0.475753
0.795698
0.771188
0.810753
0.778519
0.742668
0.702809
0.815219
0.800632
0.516969
0.634443
0.713903
0.709754
0.821677
0.790884
0.404369
0.388519
0.789737
0.591114
0.755255
0.513106
0.60273
0.798764
0.643781
0.740095
0.811907
0.709176
0.655616
0.816959
0.677466
0.531804
0.794299
0.580565
0.717405
0.800775
0.790175
0.405005
0.363886
0.795021
0.799308
0.644828
0.376183
0.787054
0.286767
0.804667
0.760491
0.783956
0.656415
0.661224
0.728182
0.742581
0.815208
0.807652
0.794746
0.614418
0.49677
0.727351
0.663799
0.811614
0.576294
0.693189
0.803961
0.633486
0.604206
0.806573
0.790117
0.779429
0.805046
0.623796
0.725688
0.807869
0.730506
0.643442
0.811374
0.719154
0.713048
0.797748
0.793194
0.628547
0.619167
0.707866
0.807028
0.607609
0.805121
0.59559
0.80567
0.790799
0.670253
0.804901
0.592289
0.738818
0.687054
0.598743
0.80322
0.793937
0.775764
0.628922
0.668303
0.656736
0.586002
0.802452
0.582087
0.805603
0.796865
0.503677
0.480023
0.688938
0.636506
0.809533
0.247382
0.785998
0.283352
0.738285
0.803437
0.772006
0.679797
0.70478
0.812659
0.802091
0.553903
0.569413
0.770736
0.592837
0.799335
0.658075
0.528195
0.797008
0.735304
0.816552
0.671756
0.687227
0.813597
0.729923
0.816777
0.565339
0.79598
0.483563
0.773531
0.574989
0.787104
0.656604
0.675981
0.810928
0.688979
0.750362
0.815256
0.653461
0.76812
0.804956
0.764009
0.740669
0.815304
0.794966
0.596122
0.746974
0.509298
0.559077
0.798068
0.662521
0.529602
0.800339
0.735575
0.790562
0.579052
0.649886
0.66529
0.562188
0.542372
0.796569
0.799406
0.786502
0.265367
0.312717
0.398454
0.787811
0.3048
0.643247
0.718211
0.803628
0.797321
0.516379
0.520674
0.709882
0.70068
0.590223
0.580776
0.803668
0.801522
0.789825
0.519423
0.419046
0.358895
0.786064
0.253008
0.758991
0.801041
0.80094
0.344098
0.297878
0.787692
0.767203
0.642056
0.801739
0.464536
0.505713
0.79674
0.273165
0.7862
0.210517
0.790371
0.798955
0.702234
0.744487
0.790364
0.808708
0.445581
0.792455
0.395542
0.733742
0.783989
0.809468
0.768281
0.800667
0.800994
0.798479
0.569345
0.756794
0.727626
0.802874
0.804789
0.742474
0.775539
0.799935
0.748802
0.584362
0.788804
0.796186
0.797197
0.462575
0.463136
0.499577
0.489711
0.479983
0.547676
0.796728
0.79763
0.731154
0.554841
0.783089
0.793159
0.661824
0.567739
0.713532
0.793566
0.358555
0.785742
0.258192
0.796176
0.470544
0.57591
0.398137
0.7907
0.386351
0.786448
0.2455
0.201191
0.200601
0.786399
0.246592
0.682952
0.611037
0.804
0.461259
0.787119
0.349895
0.593251
0.61108
0.806168
0.509726
0.789484
0.397322
0.739358
0.813252
0.74461
0.540088
0.792485
0.439438
0.575872
0.793635
0.722708
0.684199
0.577714
0.806832
0.787394
0.122618
0.123577
0.281605
0.786072
0.257288
0.751599
0.815459
0.746321
0.507419
0.418046
0.791987
0.790468
0.389437
0.505894
0.520731
0.797671
0.517879
0.796906
0.512887
0.597389
0.762876
0.570592
0.790815
0.560099
0.684772
0.80433
0.795196
0.578859
0.457815
0.751349
0.741755
0.66132
0.647023
0.808651
0.811735
0.760793
0.661522
0.806702
0.724196
0.575263
0.805324
0.672418
0.552299
0.801139
0.537999
0.474717
0.79839
0.800258
0.554125
0.645236
0.204796
0.786309
0.275355
0.789501
0.781282
0.810609
0.705343
0.814186
0.716642
0.748565
0.745592
0.800125
0.597182
0.802785
0.620777
0.292167
0.785192
0.213478
0.517366
0.439105
0.793615
0.77963
0.783114
0.628451
0.693378
0.547128
0.797107
0.797411
0.52047
0.614269
0.344324
0.319181
0.788185
0.37565
0.331481
0.788584
0.701493
0.598193
0.80807
0.809101
0.78367
0.684273
0.503242
0.796097
0.488463
0.675771
0.590777
0.808616
0.804875
0.562364
0.595717
0.755127
0.801248
0.620296
0.650325
0.749207
0.806002
0.790368
0.798697
0.674053
0.795539
0.482949
0.478023
0.636637
0.588941
0.805601
0.793439
0.803578
0.711023
0.553801
0.792179
0.433007
0.756302
0.694928
0.812909
0.723733
0.759672
0.815608
0.694266
0.594241
0.80448
0.441279
0.788748
0.339044
0.462979
0.788723
0.348371
0.803718
0.548718
0.597469
0.626841
0.757481
0.800578
0.786617
0.303301
0.409531
0.803201
0.589056
0.572142
0.785615
0.222137
0.168073
0.221929
0.166812
0.785566
0.797576
0.477117
0.581908
0.792917
0.441141
0.421337
0.533074
0.550872
0.795221
0.479174
0.797897
0.508307
0.55971
0.603649
0.803262
0.803529
0.707903
0.540944
0.786743
0.809373
0.733179
0.570482
0.630626
0.804956
0.805036
0.577312
0.644483
0.599314
0.795127
0.464862
0.742608
0.580411
0.801938
0.755649
0.631003
0.798387
0.621642
0.670025
0.811961
0.609552
0.665736
0.809807
0.796557
0.795494
0.728427
0.740734
0.630781
0.814518
0.792841
0.553909
0.434158
0.314626
0.78802
0.388972
0.287644
0.787327
0.3903
0.775974
0.806119
0.672326
0.323732
0.78701
0.281257
0.62023
0.804168
0.560589
0.786196
0.332111
0.250304
0.769654
0.809135
0.768037
0.707217
0.69289
0.814086
0.761745
0.633504
0.801234
0.788615
0.477747
0.377863
0.674558
0.592302
0.806105
0.791716
0.533705
0.427852
0.685658
0.682952
0.817062
0.790712
0.811756
0.740917
0.4731
0.397567
0.79154
0.804072
0.567699
0.573725
0.428944
0.40514
0.789558
0.788756
0.365712
0.343007
0.676068
0.733266
0.814695
0.694917
0.625988
0.803784
0.734946
0.76009
0.820454
0.423195
0.342613
0.431993
0.789163
0.337075
0.787669
0.651664
0.643507
0.813228
0.396451
0.369783
0.45488
0.432298
0.791917
0.789895
0.626725
0.712367
0.814608
0.704636
0.717726
0.814887
0.487819
0.790923
0.386515
0.691789
0.714772
0.81333
0.72953
0.741918
0.814268
0.440692
0.788981
0.363518
0.692627
0.653082
0.810121
0.738277
0.557622
0.794615
0.761536
0.599072
0.79744
0.641907
0.793509
0.498905
0.786579
0.153892
0.154985
0.681874
0.702329
0.814019
0.503556
0.792542
0.430697
0.782835
0.571352
0.775301
0.287447
0.785067
0.215471
0.809503
0.802022
0.778604
0.700085
0.781424
0.685108
0.736677
0.76432
0.814432
0.79444
0.805504
0.791693
0.70278
0.799492
0.697978
0.695556
0.728543
0.820014
0.703365
0.734176
0.818352
0.786659
0.410491
0.299698
0.768801
0.674903
0.80326
0.423726
0.462102
0.793627
0.617886
0.600587
0.650082
0.629263
0.807841
0.804882
0.762457
0.698279
0.807834
0.72192
0.607803
0.802522
0.650472
0.67136
0.814555
0.791112
0.761862
0.801734
0.590465
0.639637
0.806201
0.784302
0.803062
0.733991
0.644187
0.703181
0.813571
0.718709
0.627503
0.803328
0.790457
0.793981
0.748221
0.809912
0.745589
0.805727
0.797965
0.788396
0.807362
0.730331
0.805552
0.70822
0.751465
0.743702
0.676631
0.677232
0.812566
0.809678
0.798689
0.523904
0.602855
0.792639
0.576065
0.746989
0.800125
0.800742
0.508521
0.521839
0.579536
0.573799
0.789211
0.782039
0.607019
0.790081
0.801857
0.777489
0.587423
0.621821
0.805636
0.784071
0.807638
0.692947
0.709785
0.623088
0.804538
0.639765
0.641122
0.540616
0.802674
0.556248
0.803332
0.631122
0.635435
0.808185
0.314542
0.24737
0.785915
0.776972
0.584648
0.778553
0.766769
0.770029
0.786147
0.581715
0.794708
0.594602
0.566984
0.660542
0.802935
0.730143
0.616998
0.804334
0.787338
0.781586
0.606909
0.766279
0.771489
0.78942
0.804704
0.629531
0.626094
0.763864
0.797229
0.605822
0.633225
0.650046
0.810912
0.791363
0.801962
0.736941
0.468159
0.791664
0.410948
0.783652
0.785533
0.593618
0.71454
0.697518
0.629424
0.620777
0.804728
0.810139
0.793031
0.433164
0.490015
0.488369
0.792052
0.401207
0.4659
0.790645
0.391081
0.621789
0.802583
0.547737
0.737464
0.634782
0.806017
0.546013
0.619933
0.746118
0.551368
0.705043
0.380034
0.662932
0.583139
0.531987
0.695171
0.692171
0.514279
0.550555
0.695263
0.60118
0.558167
0.557919
0.598218
0.616103
0.666312
0.621451
0.59267
0.704985
0.788125
0.755323
0.625421
0.715825
0.518794
0.638382
0.538665
0.527994
0.657426
0.622386
0.609803
0.544081
0.633243
0.739862
0.70316
0.5711
0.638553
0.583235
0.785768
0.557702
0.693449
0.721113
0.584288
0.590844
0.570709
0.517136
0.558676
0.758146
0.620506
0.561084
0.588616
0.527479
0.752752
0.669179
0.625899
0.57186
0.687639
0.556449
0.562131
0.756055
0.596114
0.625907
0.671086
0.633298
0.781879
0.704269
0.698004
0.506672
0.531045
0.585119
0.679118
0.521671
0.607455
0.621417
0.538835
0.680418
0.724007
0.598028
0.616874
0.519989
0.552925
0.578409
0.688137
0.578634
0.554168
0.599831
0.760352
0.560835
0.687048
0.754437
0.611087
0.553678
0.311469
0.54954
0.57389
0.553262
0.502778
0.657047
0.70856
0.729732
0.784441
0.553645
0.540179
0.516061
0.571127
0.551821
0.738095
0.712797
0.663568
0.541497
0.530523
0.645441
0.708805
0.594939
0.555012
0.499447
0.592939
0.608137
0.767093
0.776648
0.681971
0.630164
0.59027
0.518714
0.772612
0.506882
0.676451
0.502526
0.755279
0.522659
0.466953
0.532301
0.722687
0.600141
0.473728
0.555389
0.662732
0.551405
0.689891
0.653592
0.568116
0.720992
0.589527
0.545524
0.731341
0.555836
0.600311
0.515041
0.637
0.569922
0.72824
0.686092
0.588452
0.679908
0.691056
0.743928
0.623256
0.582638
0.565516
0.693806
0.507396
0.632298
0.520609
0.782991
0.595343
0.729455
0.769878
0.626965
0.776291
0.732217
0.74209
0.535334
0.496721
0.516764
0.746306
0.536903
0.524774
0.496828
0.526918
0.597816
0.587532
0.632021
0.770392
0.683921
0.581583
0.687858
0.580254
0.7836
0.447329
0.71498
0.572126
0.493897
0.758669
0.772095
0.567102
0.573542
0.782328
0.640227
0.558183
0.550438
0.679785
0.736958
0.676146
0.551488
0.572415
0.70189
0.630284
0.5554
0.626252
0.490323
0.534476
0.590711
0.6997
0.502908
0.574396
0.709262
0.576347
0.499499
0.592957
0.564756
0.578642
0.651886
0.658268
0.549615
0.522483
0.523821
0.66859
0.666061
0.578231
0.658066
0.59157
0.538571
0.641288
0.582903
0.484535
0.668309
0.730036
0.629419
0.759206
0.739101
0.784969
0.556253
0.472734
0.601473
0.589451
0.576607
0.509656
0.645907
0.754501
0.680049
0.637757
0.546367
0.586072
0.683836
0.62119
0.667887
0.557002
0.606798
0.580332
0.479556
0.551719
0.569791
0.55842
0.546396
0.660199
0.629796
0.589246
0.666287
0.562444
0.596096
0.560588
0.592064
0.566209
0.579186
0.636339
0.504507
0.460962
0.609832
0.510732
0.491635
0.636118
0.458536
0.495341
0.727838
0.661443
0.55474
0.672956
0.532334
0.656107
0.625304
0.488102
0.56018
0.708928
0.602381
0.690895
0.375594
0.540514
0.730676
0.577442
0.533716
0.44935
0.502446
0.49146
0.505445
0.585491
0.666779
0.538477
0.491841
0.549997
0.574043
0.784133
0.531774
0.679297
0.648287
0.466191
0.594639
0.549251
0.523566
0.65296
0.592324
0.754703
0.669147
0.545663
0.584918
0.622677
0.788866
0.68396
0.740596
0.68553
0.584409
0.630826
0.596354
0.545062
0.506902
0.572926
0.565956
0.669288
0.567041
0.514659
0.560432
0.579266
0.556262
0.558717
0.716994
0.575493
0.573692
0.748703
0.721589
0.552748
0.618468
0.738396
0.537295
0.451069
0.586911
0.539163
0.52256
0.734563
0.55625
0.597955
0.741583
0.498769
0.633049
0.562258
0.629173
0.588433
0.566954
0.32173
0.587981
0.517577
0.551257
0.586135
0.583263
0.685934
0.75483
0.552881
0.624862
0.5795
0.518755
0.481587
0.711831
0.652995
0.554987
0.517748
0.643601
0.512527
0.551253
0.548591
0.547846
0.688883
0.753114
0.580467
0.680042
0.78577
0.715564
0.715951
0.744901
0.560887
0.574276
0.524177
0.785436
0.709463
0.729162
0.567346
0.576908
0.498334
0.688179
0.582304
0.526359
0.730149
0.662048
0.513909
0.585187
0.559266
0.559641
0.560723
0.584585
0.591084
0.53187
0.580043
0.50645
0.594853
0.535875
0.660407
0.591224
0.503817
0.738655
0.749089
0.68404
0.583306
0.636881
0.450816
0.692173
0.620183
0.506408
0.736153
0.414363
0.756397
0.518984
0.598739
0.609624
0.681158
0.697904
0.554678
0.7685
0.555306
0.719217
0.600391
0.653983
0.575882
0.541462
0.56936
0.723922
0.605558
0.783239
0.670155
0.504421
0.537541
0.658985
0.43273
0.584322
0.601165
0.535645
0.760606
0.506734
0.493832
0.700198
0.572373
0.754593
0.778008
0.578538
0.785571
0.765676
0.719575
0.732036
0.643631
0.51603
0.555848
0.591174
0.710599
0.590523
0.413769
0.767214
0.539053
0.587169
0.551299
0.743133
0.783222
0.552124
0.715914
0.648033
0.754937
0.587695
0.690003
0.575841
0.769952
0.781308
0.674634
0.555323
0.702515
0.57448
0.609004
0.619981
0.601659
0.648799
0.55205
0.423192
0.524339
0.607972
0.659604
0.632241
0.732462
0.548819
0.577495
0.662167
0.527796
0.747574
0.542744
0.57533
0.74247
0.724764
0.638952
0.772794
0.546778
0.578354
0.693298
0.614622
0.590198
0.596321
0.569887
0.658577
0.676374
0.569925
0.556731
0.637389
0.505288
0.530479
0.755609
0.783064
0.783783
0.580074
0.790447
0.782893
0.76364
0.483499
0.652193
0.648048
0.772028
0.587147
0.549302
0.519472
0.553982
0.397875
0.768011
0.599242
0.6052
0.69265
0.673763
0.580421
0.576414
0.782308
0.769821
0.738696
0.674738
0.562154
0.678746
0.663767
0.584122
0.606739
0.531984
0.554535
0.625693
0.611006
0.574262
0.75483
0.755169
0.483556
0.722127
0.56416
0.55132
0.587221
0.75188
0.595615
0.674446
0.599696
0.740272
0.585495
0.602826
0.781953
0.502898
0.502047
0.550137
0.536923
0.46629
0.290575
0.546107
0.476215
0.616054
0.484389
0.539387
0.609888
0.549268
0.545266
0.5788
0.528738
0.312448
0.766253
0.713848
0.58651
0.513711
0.717049
0.566164
0.54887
0.778956
0.552305
0.779148
0.59685
0.728003
0.577516
0.475342
0.533803
0.630049
0.631623
0.616656
0.477303
0.589963
0.544147
0.539914
0.556742
0.506335
0.529717
0.765022
0.537175
0.674643
0.697888
0.588765
0.686261
0.69982
0.518031
0.295364
0.600276
0.508974
0.469768
0.681386
0.684434
0.585816
0.659344
0.579285
0.782222
0.763733
0.593308
0.574099
0.770791
0.733771
0.653848
0.653886
0.582859
0.784806
0.620021
0.482865
0.743785
0.715235
0.756455
0.632988
0.558857
0.584442
0.685894
0.654939
0.239694
0.78582
0.599195
0.548895
0.619095
0.72719
0.782319
0.779122
0.658536
0.610134
0.703155
0.734836
0.742972
0.678378
0.712698
0.486899
0.556527
0.642819
0.524108
0.485762
0.501545
0.598012
0.700119
0.510109
0.6244
0.551507
0.700398
0.779049
0.596469
0.517494
0.492846
0.668753
0.574293
0.550098
0.504563
0.747108
0.638176
0.64385
0.505843
0.648092
0.553893
0.559474
0.686822
0.696762
0.750724
0.782999
0.545546
0.737352
0.486316
0.745949
0.753112
0.755619
0.705153
0.534707
0.534492
0.585552
0.479344
0.615928
0.502793
0.641541
0.510243
0.726155
0.587296
0.488453
0.724547
0.688127
0.603921
0.609911
0.672876
0.74987
0.63961
0.617638
0.488185
0.715567
0.604811
0.767857
0.471559
0.611234
0.744674
0.685526
0.773575
0.690933
0.590778
0.453148
0.489255
0.607825
0.514548
0.766559
0.476988
0.557637
0.60399
0.559276
0.698662
0.476383
0.741856
0.685662
0.646257
0.428074
0.65974
0.532211
0.573035
0.601921
0.60493
0.575287
0.56064
0.702669
0.534369
0.78836
0.575973
0.58367
0.66792
0.683331
0.766111
0.574676
0.579713
0.543605
0.608722
0.567442
0.76064
0.551567
0.622091
0.582847
0.717061
0.546516
0.630635
0.52707
0.780055
0.478911
0.532007
0.539744
0.721346
0.491522
0.509993
0.531741
0.517431
0.754213
0.617425
0.678646
0.728116
0.668899
0.590272
0.779909
0.603285
0.689739
0.663901
0.627205
0.500458
0.636554
0.59692
0.563626
0.635304
0.51273
0.504653
0.622478
0.555189
0.540957
0.712586
0.605907
0.65866
0.596302
0.762723
0.603147
0.587474
0.664588
0.512424
0.546373
0.582204
0.629821
0.640968
0.653968
0.751123
0.680841
0.707937
0.630123
0.737578
0.769034
0.764572
0.60253
0.618528
0.647558
0.515963
0.777583
0.73215
0.717827
0.610893
0.530995
0.498588
0.647803
0.686181
0.544935
0.717277
0.731031
0.655934
0.559145
0.616309
0.569929
0.536323
0.610675
0.555791
0.643273
0.503575
0.647121
0.60024
0.594267
0.47694
0.64075
0.625528
0.67399
0.582062
0.638501
0.749722
0.760121
0.64118
0.598819
0.708664
0.62526
0.548017
0.552311
0.597256
0.514091
0.749953
0.613527
0.63168
0.686578
0.679821
0.65578
0.508394
0.787025
0.66332
0.560236
0.615997
0.617534
0.708303
0.746037
0.664519
0.650683
0.489631
0.541941
0.591994
0.653271
0.623509
0.640076
0.569839
0.757237
0.655829
0.693616
0.735543
0.635737
0.552984
0.626539
0.776506
0.549861
0.486733
0.625553
0.782184
0.574406
0.595304
0.702871
0.686698
0.721318
0.611694
0.493222
0.650952
0.523662
0.578099
0.721302
0.602242
0.520083
0.543502
0.573924
0.658825
0.579076
0.564143
0.739952
0.563576
0.780484
0.718583
0.512437
0.465351
0.615329
0.693471
0.734036
0.606647
0.59198
0.530698
0.587126
0.603855
0.783016
0.744812
0.691531
0.57645
0.496189
0.74718
0.787256
0.756051
0.709584
0.7424
0.624861
0.532155
0.475655
0.486923
0.765512
0.62223
0.499584
0.585348
0.786342
0.582379
0.558346
0.508771
0.609027
0.550096
0.781119
0.650193
0.688802
0.74193
0.731066
0.582566
0.662134
0.624011
0.677061
0.542054
0.657724
0.566822
0.760193
0.481338
0.579781
0.48666
0.590448
0.748588
0.591321
0.719191
0.736593
0.743625
0.53022
0.622218
0.592617
0.543013
0.755428
0.633848
0.630145
0.647353
0.390907
0.586998
0.753249
0.666043
0.758462
0.48122
0.535387
0.582042
0.764233
0.517263
0.604942
0.545577
0.504203
0.575336
0.758572
0.586034
0.594758
0.508597
0.778613
0.775856
0.393868
0.748816
0.58657
0.531587
0.535204
0.61794
0.519351
0.659206
0.582055
0.57919
0.592624
0.72699
0.609676
0.719106
0.595206
0.525863
0.592056
0.480369
0.500024
0.601132
0.555634
0.637934
0.541236
0.606908
0.733673
0.655328
0.579872
0.470389
0.740806
0.604702
0.607261
0.793139
0.639455
0.577441
0.533304
0.49608
0.768929
0.572425
0.608302
0.658022
0.518649
0.744665
0.481997
0.737245
0.619701
0.698315
0.548122
0.704312
0.602607
0.517345
0.54827
0.619486
0.748706
0.462371
0.555784
0.56348
0.767929
0.786776
0.524833
0.570211
0.656143
0.763339
0.601759
0.753193
0.73162
0.716799
0.700046
0.637128
0.66515
0.648298
0.757104
0.605719
0.629614
0.527355
0.560029
0.603769
0.53742
0.769724
0.496749
0.750326
0.603988
0.764404
0.574178
0.773956
0.69574
0.72682
0.76576
0.749778
0.792181
0.58952
0.737942
0.615396
0.584281
0.560111
0.540267
0.758382
0.498424
0.646098
0.658731
0.597495
0.656626
0.56649
0.754784
0.618728
0.704936
0.478453
0.55061
0.589668
0.780242
0.530037
0.670577
0.566062
0.590301
0.520518
0.596929
0.58794
0.712409
0.761348
0.506896
0.641375
0.584058
0.577923
0.724031
0.53589
0.55768
0.772224
0.486178
0.632689
0.686811
0.747499
0.778393
0.563067
0.559007
0.519303
0.579555
0.543702
0.583288
0.694344
0.580755
0.527098
0.595217
0.622791
0.577521
0.54826
0.563533
0.622172
0.516143
0.705778
0.697148
0.562463
0.705322
0.478567
0.513224
0.522708
0.50018
0.772625
0.588536
0.583174
0.569039
0.730009
0.755927
0.632475
0.702112
0.549713
0.561262
0.62358
0.585163
0.55406
0.757136
0.644581
0.662727
0.776216
0.71194
0.605276
0.766077
0.501962
0.635098
0.630995
0.655525
0.56298
0.761528
0.57803
0.649908
0.614426
0.575464
0.540486
0.562814
0.695671
0.725656
0.740146
0.627984
0.639953
0.764335
0.708782
0.601392
0.634438
0.529646
0.585296
0.717231
0.5081
0.735567
0.579581
0.743584
0.789346
0.759713
0.570761
0.729006
0.732941
0.452287
0.764165
0.53136
0.763078
0.713719
0.582645
0.546455
0.64278
0.589736
0.548341
0.545729
0.705829
0.56416
0.768999
0.531601
0.567505
0.539915
0.528895
0.583192
0.725411
0.782599
0.528295
0.698981
0.623793
0.650003
0.602211
0.653878
0.751916
0.716611
0.579004
0.74614
0.722616
0.778795
0.531529
0.551561
0.552459
0.702033
0.773802
0.728069
0.608322
0.774183
0.61746
0.503642
0.544425
0.462375
0.607825
0.519646
0.779744
0.780906
0.637864
0.793162
0.718202
0.626174
0.771219
0.525303
0.759475
0.583076
0.756427
0.587313
0.534781
0.698587
0.639256
0.763266
0.751996
0.755176
0.541842
0.538206
0.490044
0.73547
0.715592
0.526006
0.621195
0.717313
0.487438
0.569421
0.543487
0.573272
0.651373
0.572039
0.630788
0.682907
0.626861
0.638038
0.697584
0.583897
0.58996
0.649723
0.629408
0.586903
0.739249
0.76413
0.525329
0.713183
0.484144
0.564383
0.744815
0.707995
0.566869
0.758786
0.524276
0.696699
0.597829
0.593028
0.743757
0.589393
0.70468
0.698879
0.67915
0.786347
0.682577
0.518882
0.664154
0.598519
0.705323
0.78187
0.676241
0.616377
0.553866
0.593762
0.745038
0.535742
0.723882
0.544996
0.647392
0.712253
0.69849
0.617729
0.741202
0.773862
0.587391
0.584165
0.636149
0.542094
0.525705
0.632962
0.698497
0.557012
0.514935
0.528216
0.508016
0.693123
0.614505
0.707959
0.56561
0.756318
0.629249
0.732912
0.779553
0.559961
0.750355
0.584081
0.636715
0.62169
0.737491
0.554079
0.599576
0.625745
0.535469
0.586407
0.537911
0.517354
0.483805
0.774953
0.785279
0.557971
0.560326
0.702115
0.500054
0.530459
0.582926
0.685933
0.694474
0.497708
0.483605
0.75199
0.559264
0.655247
0.55882
0.513512
0.543901
0.624071
0.733062
0.654464
0.510539
0.757856
0.73208
0.550966
0.652065
0.579352
0.779608
0.589234
0.60313
0.522099
0.672932
0.764026
0.658244
0.613981
0.556669
0.612033
0.658329
0.772058
0.793044
0.554128
0.775425
0.562427
0.639456
0.642416
0.601318
0.577211
0.738007
0.560628
0.642944
0.539947
0.540245
0.578037
0.537971
0.681225
0.75711
0.548201
0.565942
0.637583
0.578921
0.530222
0.474041
0.57925
0.734895
0.439011
0.558547
0.693538
0.635629
0.609836
0.669749
0.725748
0.503894
0.506122
0.727306
0.603383
0.517863
0.618746
0.735826
0.672813
0.638947
0.552423
0.570145
0.55029
0.772936
0.727787
0.782508
0.605911
0.682396
0.530393
0.623719
0.734587
0.504589
0.515274
0.697122
0.730017
0.505581
0.569283
0.546958
0.501651
0.548092
0.792137
0.603211
0.565786
0.61134
0.55385
0.699642
0.627252
0.52864
0.567981
0.712803
0.611979
0.775015
0.520897
0.571208
0.669072
0.658061
0.598962
0.655941
0.535505
0.778013
0.750017
0.671318
0.741026
0.552804
0.73809
0.66672
0.662074
0.766225
0.49976
0.577428
0.780126
0.668743
0.497006
0.556173
0.721597
0.778513
0.620629
0.703244
0.549607
0.519031
0.543222
0.486173
0.733601
0.561598
0.62261
0.768665
0.560968
0.508349
0.554489
0.636118
0.561798
0.569235
0.557223
0.533326
0.609818
0.7147
0.764959
0.689438
0.571437
0.577885
0.490566
0.574142
0.665213
0.645244
0.67562
0.696473
0.57833
0.608793
0.723637
0.73233
0.780465
0.745041
0.768584
0.614673
0.523926
0.545628
0.529619
0.772475
0.635685
0.562375
0.76511
0.530284
0.719262
0.696148
0.571883
0.556368
0.57832
0.569797
0.730636
0.586893
0.686171
0.617666
0.763312
0.649449
0.784373
0.548164
0.617081
0.55581
0.478878
0.582968
0.709875
0.509459
0.378148
0.637354
0.755535
0.706441
0.565773
0.519313
0.546341
0.533033
0.558778
0.539652
0.600456
0.534812
0.698388
0.55739
0.563201
0.739402
0.614357
0.648185
0.723829
0.588466
0.620397
0.537004
0.707794
0.576976
0.572397
0.605749
0.544763
0.519338
0.561035
0.521426
0.706136
0.782624
0.737761
0.643768
0.691376
0.510073
0.775358
0.650683
0.697043
0.549191
0.694294
0.560707
0.586191
0.717807
0.762551
0.708021
0.643021
0.592186
0.78514
0.585999
0.719475
0.770887
0.679295
0.598352
0.505681
0.720088
0.640132
0.536959
0.670282
0.639017
0.761145
0.557819
0.769406
0.781467
0.59971
0.549717
0.769819
0.521208
0.538869
0.585529
0.533998
0.581955
0.544491
0.522435
0.616302
0.562212
0.544607
0.577283
0.644967
0.55049
0.556776
0.66475
0.62346
0.524014
0.756613
0.783525
0.773982
0.559357
0.51559
0.78501
0.514536
0.612473
0.536167
0.580793
0.544824
0.696863
0.582954
0.577742
0.511856
0.503134
0.538867
0.587217
0.509996
0.615176
0.636568
0.605995
0.763252
0.640529
0.677078
0.594489
0.728543
0.566551
0.585701
0.79409
0.582304
0.633183
0.520455
0.680924
0.78506
0.577885
0.660811
0.637971
0.548924
0.551299
0.558928
0.532132
0.700099
0.540931
0.603302
0.57795
0.599829
0.549065
0.559975
0.611336
0.580874
0.578779
0.780217
0.612149
0.597665
0.637677
0.761455
0.588292
0.504804
0.713955
0.521324
0.595301
0.551064
0.610489
0.564786
0.556872
0.60705
0.779503
0.735198
0.506225
0.576932
0.506616
0.542591
0.494109
0.535698
0.581961
0.545808
0.583271
0.666303
0.79276
0.582968
0.693567
0.627798
0.772653
0.58207
0.785821
0.658348
0.532584
0.66478
0.700832
0.577432
0.731495
0.551545
0.741277
0.567441
0.387577
0.610992
0.791007
0.780918
0.698638
0.670784
0.689138
0.517584
0.561381
0.68753
0.78359
0.407829
0.616874
0.54993
0.567301
0.605004
0.544298
0.525661
0.562462
0.53864
0.565101
0.577471
0.605908
0.784873
0.730009
0.496274
0.714869
0.542272
0.559024
0.719788
0.570904
0.594281
0.679859
0.427317
0.549968
0.619967
0.736707
0.53228
0.558695
0.593232
0.662894
0.528184
0.761878
0.509281
0.585245
0.592084
0.563756
0.671232
0.665787
0.763308
0.549691
0.706488
0.63422
0.660259
0.556382
0.670211
0.548273
0.520237
0.487437
0.645234
0.60566
0.592447
0.746952
0.618234
0.6201
0.670281
0.552623
0.538966
0.585318
0.652177
0.563535
0.791084
0.523437
0.509377
0.579544
0.578521
0.562501
0.538106
0.694446
0.584737
0.612516
0.534178
0.553483
0.606576
0.494942
0.787298
0.771452
0.536675
0.548275
0.733428
0.622531
0.553443
0.517185
0.542294
0.53958
0.633927
0.754023
0.554909
0.518234
0.66534
0.613546
0.509812
0.534069
0.611972
0.688856
0.790948
0.52814
0.500144
0.645937
0.733436
0.587153
0.642275
0.588329
0.553421
0.587226
0.661748
0.601056
0.556449
0.713106
0.590777
0.481973
0.631723
0.564788
0.718896
0.785155
0.565786
0.582379
0.579707
0.58329
0.527765
0.587095
0.541083
0.765749
0.721861
0.686682
0.580939
0.518411
0.709812
0.775555
0.557587
0.628479
0.570048
0.485099
0.616989
0.580042
0.480694
0.511386
0.653636
0.535341
0.51039
0.534367
0.705983
0.52866
0.714979
0.59883
0.557596
0.575859
0.544931
0.71865
0.493009
0.589311
0.595924
0.520983
0.642895
0.685781
0.645761
0.606768
0.702513
0.534085
0.53553
0.752111
0.552133
0.74806
0.647898
0.583136
0.640322
0.737915
0.613754
0.50423
0.761926
0.546604
0.59204
0.738182
0.544842
0.770588
0.55628
0.592608
0.447737
0.596367
0.534461
0.619948
0.539246
0.485322
0.536838
0.526946
0.489424
0.754476
0.527864
0.590203
0.646615
0.618268
0.776923
0.779835
0.565098
0.598195
0.722643
0.555877
0.754846
0.498477
0.579819
0.635412
0.56006
0.725066
0.573504
0.580502
0.575145
0.566196
0.539306
0.483271
0.740855
0.31967
0.765756
0.689733
0.538062
0.508168
0.544169
0.792647
0.690969
0.66918
0.611283
0.645027
0.596055
0.739165
0.710118
0.546287
0.660942
0.770269
0.599232
0.62577
0.665486
0.502767
0.533594
0.713868
0.589447
0.606335
0.77111
0.525163
0.500448
0.571163
0.603491
0.595633
0.780052
0.555341
0.520552
0.554886
0.603749
0.556316
0.747105
0.597948
0.549701
0.565971
0.558556
0.547794
0.568226
0.661215
0.608913
0.541712
0.74544
0.579425
0.712383
0.542347
0.526099
0.589392
0.741708
0.775659
0.705534
0.609232
0.600649
0.717445
0.776246
0.526576
0.756032
0.539208
0.675458
0.658733
0.745639
0.610354
0.736172
0.759827
0.560637
0.55221
0.59099
0.618389
0.543697
0.494716
0.495646
0.695039
0.725736
0.521773
0.761368
0.61369
0.704524
0.607257
0.537347
0.723273
0.71047
0.576609
0.56428
0.53467
0.779891
0.694319
0.784495
0.517337
0.542512
0.598745
0.729813
0.66662
0.739191
0.634466
0.777208
0.565271
0.597426
0.625467
0.571862
0.646712
0.4696
0.717264
0.613303
0.632964
0.757013
0.511991
0.52364
0.499646
0.642234
0.742505
0.573146
0.671258
0.477756
0.51808
0.607873
0.566454
0.555965
0.737741
0.612079
0.549114
0.597899
0.650923
0.764292
0.645574
0.586523
0.740568
0.622237
0.769576
0.616427
0.684148
0.584551
0.52259
0.789127
0.539304
0.632739
0.640396
0.75321
0.680543
0.604547
0.551855
0.784339
0.602656
0.550602
0.699593
0.776352
0.693669
0.667773
0.514214
0.481769
0.623842
0.544574
0.590605
0.624314
0.541041
0.763544
0.778995
0.759067
0.578229
0.584892
0.554373
0.582391
0.68268
0.526349
0.680072
0.76479
0.533717
0.57845
0.567044
0.724674
0.668443
0.583966
0.544961
0.690795
0.54478
0.463921
0.534322
0.791533
0.48968
0.714694
0.656121
0.547999
0.763547
0.632798
0.790955
0.417585
0.581317
0.637303
0.759436
0.584254
0.755099
0.633055
0.488579
0.60085
0.56891
0.587267
0.482403
0.713414
0.578462
0.54783
0.500676
0.605505
0.738645
0.455147
0.581016
0.741199
0.589951
0.736531
0.494209
0.541359
0.551486
0.592561
0.549334
0.515968
0.543351
0.459611
0.584778
0.582616
0.70655
0.636319
0.743278
0.544309
0.588174
0.517378
0.620047
0.463791
0.592408
0.785711
0.601577
0.572866
0.795427
0.551349
0.640508
0.666869
0.52119
0.574945
0.613091
0.646518
0.765644
0.775414
0.776607
0.651742
0.596833
0.581337
0.542605
0.735095
0.676717
0.561606
0.555973
0.573172
0.609148
0.79085
0.594396
0.788121
0.561228
0.662631
0.544233
0.549477
0.521135
0.567352
0.750447
0.571249
0.524396
0.537895
0.788822
0.578703
0.543235
0.538119
0.546841
0.693255
0.632822
0.636226
0.592026