/*--------------------------------*- C++ -*----------------------------------*\
  =========                 |
  \\      /  F ield         | OpenFOAM: The Open Source CFD Toolbox
   \\    /   O peration     | Website:  https://openfoam.org
    \\  /    A nd           | Version:  6
     \\/     M anipulation  |
\*---------------------------------------------------------------------------*/
FoamFile
{
    version     2.0;
    format      ascii;
    class       volVectorField;
    location    "0";
    object      Uliftx1;
}
// * * * * * * * * * * * * * * * * * * * * * * * * * * * * * * * * * * * * * //

dimensions      [0 1 -1 0 0 0 0];

internalField   nonuniform List<vector> 
13046
(
(0.502568 0 0)
(0.482043 0 0)
(0.370307 0 0)
(0.504847 0 0)
(0.391144 0 0)
(0.441816 0 0)
(0.523944 0 0)
(0.445359 0 0)
(0.386233 0 0)
(0.714481 0 0)
(0.471101 0 0)
(0.189669 0 0)
(0.548383 0 0)
(0.470264 0 0)
(0.353462 0 0)
(0.665709 0 0)
(0.193617 0 0)
(0.518611 0 0)
(0.444694 0 0)
(0.405518 0 0)
(0.490474 0 0)
(0.668622 0 0)
(0.185351 0 0)
(0.49924 0 0)
(0.492211 0 0)
(0.467565 0 0)
(0.396403 0 0)
(0.534055 0 0)
(0.469884 0 0)
(0.324704 0 0)
(0.494506 0 0)
(0.480502 0 0)
(0.346389 0 0)
(0.471175 0 0)
(0.395311 0 0)
(0.455752 0 0)
(0.475001 0 0)
(0.415932 0 0)
(0.454004 0 0)
(0.467455 0 0)
(0.341019 0 0)
(0.530765 0 0)
(0.463743 0 0)
(0.446081 0 0)
(0.443993 0 0)
(0.463187 0 0)
(0.427525 0 0)
(0.41876 0 0)
(0.508284 0 0)
(0.460308 0 0)
(0.358928 0 0)
(0.314706 0 0)
(0.424904 0 0)
(0.570617 0 0)
(0.329168 0 0)
(0.591612 0 0)
(0.426031 0 0)
(0.534961 0 0)
(0.542538 0 0)
(0.220989 0 0)
(0.59694 0 0)
(0.408034 0 0)
(0.335219 0 0)
(0.240138 0 0)
(0.457414 0 0)
(0.64539 0 0)
(0.543166 0 0)
(0.558168 0 0)
(0.240711 0 0)
(0.525654 0 0)
(0.544583 0 0)
(0.241135 0 0)
(0.555485 0 0)
(0.596055 0 0)
(0.223404 0 0)
(0.448862 0 0)
(0.3967 0 0)
(0.497694 0 0)
(0.218 0 0)
(0.606227 0 0)
(0.542147 0 0)
(0.494464 0 0)
(0.446777 0 0)
(0.377515 0 0)
(0.241262 0 0)
(0.478485 0 0)
(0.683828 0 0)
(0.658443 0 0)
(0.272032 0 0)
(0.405918 0 0)
(0.305921 0 0)
(0.699943 0 0)
(0.359378 0 0)
(0.592377 0 0)
(0.590167 0 0)
(0.482711 0 0)
(0.457567 0 0)
(0.298416 0 0)
(0.278656 0 0)
(0.299856 0 0)
(0.671135 0 0)
(0.406421 0 0)
(0.488505 0 0)
(0.42831 0 0)
(0.432511 0 0)
(0.400857 0 0)
(0.566835 0 0)
(0.34693 0 0)
(0.43371 0 0)
(0.327389 0 0)
(0.552074 0 0)
(0.809507 0 0)
(0.142455 0 0)
(0.50198 0 0)
(0.514593 0 0)
(0.454494 0 0)
(0.351744 0 0)
(0.602857 0 0)
(0.579486 0 0)
(0.497609 0 0)
(0.269798 0 0)
(0.481628 0 0)
(0.271128 0 0)
(0.745862 0 0)
(0.484609 0 0)
(0.184696 0 0)
(0.567188 0 0)
(0.48275 0 0)
(0.316589 0 0)
(0.472474 0 0)
(0.330072 0 0)
(0.520947 0 0)
(0.304869 0 0)
(0.672254 0 0)
(0.340533 0 0)
(0.63144 0 0)
(0.450234 0 0)
(0.285235 0 0)
(0.516173 0 0)
(0.491927 0 0)
(0.344065 0 0)
(0.562313 0 0)
(0.412474 0 0)
(0.37592 0 0)
(0.431896 0 0)
(0.336774 0 0)
(0.568954 0 0)
(0.419921 0 0)
(0.568637 0 0)
(0.374672 0 0)
(0.610417 0 0)
(0.423734 0 0)
(0.325354 0 0)
(0.413833 0 0)
(0.543605 0 0)
(0.403495 0 0)
(0.330764 0 0)
(0.600617 0 0)
(0.342816 0 0)
(0.616941 0 0)
(0.390789 0 0)
(0.378818 0 0)
(0.569726 0 0)
(0.391098 0 0)
(0.388164 0 0)
(0.738443 0 0)
(0.213928 0 0)
(0.467481 0 0)
(0.779508 0 0)
(0.15741 0 0)
(0.493116 0 0)
(0.627763 0 0)
(0.451948 0 0)
(0.263644 0 0)
(0.495199 0 0)
(0.545497 0 0)
(0.310165 0 0)
(0.553041 0 0)
(0.394768 0 0)
(0.375798 0 0)
(0.221407 0 0)
(0.425156 0 0)
(0.710394 0 0)
(0.473074 0 0)
(0.532764 0 0)
(0.311917 0 0)
(0.403233 0 0)
(0.544415 0 0)
(0.382008 0 0)
(0.54857 0 0)
(0.411661 0 0)
(0.384693 0 0)
(0.449096 0 0)
(0.328493 0 0)
(0.566041 0 0)
(0.475649 0 0)
(0.322123 0 0)
(0.673166 0 0)
(0.248917 0 0)
(0.437897 0 0)
(0.309121 0 0)
(0.662782 0 0)
(0.371676 0 0)
(0.693281 0 0)
(0.38041 0 0)
(0.278629 0 0)
(0.288561 0 0)
(0.586155 0 0)
(0.436999 0 0)
(0.523487 0 0)
(0.597626 0 0)
(0.216551 0 0)
(0.554759 0 0)
(0.393554 0 0)
(0.716257 0 0)
(0.271583 0 0)
(0.478848 0 0)
(0.408051 0 0)
(0.435316 0 0)
(0.528081 0 0)
(0.486767 0 0)
(0.3329 0 0)
(0.322467 0 0)
(0.674375 0 0)
(0.362383 0 0)
(0.562499 0 0)
(0.450648 0 0)
(0.347681 0 0)
(0.194965 0 0)
(0.469657 0 0)
(0.781504 0 0)
(0.430046 0 0)
(0.6007 0 0)
(0.301218 0 0)
(0.672597 0 0)
(0.378205 0 0)
(0.287607 0 0)
(0.587331 0 0)
(0.363164 0 0)
(0.379289 0 0)
(0.554912 0 0)
(0.481961 0 0)
(0.292917 0 0)
(0.334276 0 0)
(0.657685 0 0)
(0.359304 0 0)
(0.623817 0 0)
(0.333959 0 0)
(0.368634 0 0)
(0.18077 0 0)
(0.440906 0 0)
(0.776977 0 0)
(0.45896 0 0)
(0.32751 0 0)
(0.559478 0 0)
(0.790088 0 0)
(0.102572 0 0)
(0.532319 0 0)
(0.419821 0 0)
(0.491173 0 0)
(0.409404 0 0)
(0.584535 0 0)
(0.578551 0 0)
(0.38524 0 0)
(0.382916 0 0)
(0.377865 0 0)
(0.3598 0 0)
(0.194099 0 0)
(0.614644 0 0)
(0.530196 0 0)
(0.554982 0 0)
(0.499108 0 0)
(0.312784 0 0)
(0.6433 0 0)
(0.34639 0 0)
(0.367793 0 0)
(0.619419 0 0)
(0.478047 0 0)
(0.275942 0 0)
(0.449768 0 0)
(0.447762 0 0)
(0.430276 0 0)
(0.601228 0 0)
(0.358548 0 0)
(0.371208 0 0)
(0.541218 0 0)
(0.497789 0 0)
(0.287391 0 0)
(0.548547 0 0)
(0.567739 0 0)
(0.448605 0 0)
(0.305429 0 0)
(0.558929 0 0)
(0.621437 0 0)
(0.368885 0 0)
(0.360499 0 0)
(0.620301 0 0)
(0.260258 0 0)
(0.460118 0 0)
(0.450636 0 0)
(0.349308 0 0)
(0.552654 0 0)
(0.396363 0 0)
(0.609199 0 0)
(0.321819 0 0)
(0.560348 0 0)
(0.507042 0 0)
(0.259415 0 0)
(0.449597 0 0)
(0.313783 0 0)
(0.576255 0 0)
(0.588237 0 0)
(0.586087 0 0)
(0.522574 0 0)
(0.257536 0 0)
(0.497528 0 0)
(0.243201 0 0)
(0.236737 0 0)
(0.44758 0 0)
(0.708714 0 0)
(0.577304 0 0)
(0.498499 0 0)
(0.290836 0 0)
(0.516683 0 0)
(0.0980861 0 0)
(0.865127 0 0)
(0.528413 0 0)
(0.418764 0 0)
(0.397629 0 0)
(0.591644 0 0)
(0.419999 0 0)
(0.34383 0 0)
(0.260837 0 0)
(0.658656 0 0)
(0.437346 0 0)
(0.304811 0 0)
(0.589812 0 0)
(0.409468 0 0)
(0.336174 0 0)
(0.659686 0 0)
(0.338248 0 0)
(0.437154 0 0)
(0.346056 0 0)
(0.581552 0 0)
(0.44633 0 0)
(0.319049 0 0)
(0.429657 0 0)
(0.365826 0 0)
(0.640414 0 0)
(0.2011 0 0)
(0.507999 0 0)
(0.286381 0 0)
(0.599651 0 0)
(0.452574 0 0)
(0.594875 0 0)
(0.445444 0 0)
(0.31041 0 0)
(0.562798 0 0)
(0.391026 0 0)
(0.374006 0 0)
(0.577238 0 0)
(0.343828 0 0)
(0.419342 0 0)
(0.512031 0 0)
(0.460479 0 0)
(0.37738 0 0)
(0.410474 0 0)
(0.609995 0 0)
(0.319694 0 0)
(0.697143 0 0)
(0.425191 0 0)
(0.270483 0 0)
(0.34827 0 0)
(0.651595 0 0)
(0.327594 0 0)
(0.508002 0 0)
(0.253003 0 0)
(0.555065 0 0)
(0.594187 0 0)
(0.571141 0 0)
(0.523134 0 0)
(0.533416 0 0)
(0.231798 0 0)
(0.233626 0 0)
(0.115801 0 0)
(0.538542 0 0)
(0.869154 0 0)
(0.763862 0 0)
(0.124583 0 0)
(0.523989 0 0)
(0.609728 0 0)
(0.397171 0 0)
(0.359544 0 0)
(0.239848 0 0)
(0.700918 0 0)
(0.452417 0 0)
(0.541804 0 0)
(0.543346 0 0)
(0.535527 0 0)
(0.519638 0 0)
(0.259865 0 0)
(0.246763 0 0)
(0.256874 0 0)
(0.390977 0 0)
(0.74984 0 0)
(0.834442 0 0)
(0.101567 0 0)
(0.554025 0 0)
(0.475782 0 0)
(0.453347 0 0)
(0.40622 0 0)
(0.81893 0 0)
(0.5108 0 0)
(0.120021 0 0)
(0.493827 0 0)
(0.524701 0 0)
(0.296028 0 0)
(0.725333 0 0)
(0.425489 0 0)
(0.252367 0 0)
(0.486308 0 0)
(0.109783 0 0)
(0.912522 0 0)
(0.450252 0 0)
(0.345991 0 0)
(0.520697 0 0)
(0.513009 0 0)
(0.42022 0 0)
(0.421562 0 0)
(0.717008 0 0)
(0.161312 0 0)
(0.492038 0 0)
(0.517003 0 0)
(0.405707 0 0)
(0.405247 0 0)
(0.47265 0 0)
(0.452536 0 0)
(0.420154 0 0)
(0.424753 0 0)
(0.61365 0 0)
(0.302096 0 0)
(0.499068 0 0)
(0.377684 0 0)
(0.431623 0 0)
(0.511984 0 0)
(0.386377 0 0)
(0.431566 0 0)
(0.500216 0 0)
(0.565943 0 0)
(0.264002 0 0)
(0.195474 0 0)
(0.204754 0 0)
(0.487218 0 0)
(0.471347 0 0)
(0.685817 0 0)
(0.702041 0 0)
(0.702141 0 0)
(0.410036 0 0)
(0.25377 0 0)
(0.253209 0 0)
(0.527815 0 0)
(0.56051 0 0)
(0.464758 0 0)
(0.323108 0 0)
(0.544333 0 0)
(0.63555 0 0)
(0.325938 0 0)
(0.38036 0 0)
(0.448818 0 0)
(0.17957 0 0)
(0.87628 0 0)
(0.28099 0 0)
(0.703153 0 0)
(0.359739 0 0)
(0.751929 0 0)
(0.166252 0 0)
(0.474292 0 0)
(0.112338 0 0)
(0.525102 0 0)
(1.0189 0 0)
(0.565122 0 0)
(0.0615949 0 0)
(0.947302 0 0)
(0.399613 0 0)
(0.625763 0 0)
(0.335236 0 0)
(0.400878 0 0)
(0.226185 0 0)
(0.78131 0 0)
(0.637422 0 0)
(0.431619 0 0)
(0.278304 0 0)
(0.686754 0 0)
(0.164979 0 0)
(0.536919 0 0)
(0.525002 0 0)
(0.366506 0 0)
(0.453495 0 0)
(0.366603 0 0)
(0.259147 0 0)
(0.708202 0 0)
(0.612113 0 0)
(0.386561 0 0)
(0.308984 0 0)
(0.346338 0 0)
(0.628846 0 0)
(0.341629 0 0)
(0.0533527 0 0)
(0.754132 0 0)
(1.39471 0 0)
(0.497583 0 0)
(0.132372 0 0)
(0.90567 0 0)
(0.512149 0 0)
(0.365909 0 0)
(0.447386 0 0)
(0.397913 0 0)
(0.733488 0 0)
(0.232433 0 0)
(0.250601 0 0)
(0.752282 0 0)
(0.386559 0 0)
(0.681123 0 0)
(0.223989 0 0)
(0.456817 0 0)
(0.20633 0 0)
(0.511551 0 0)
(0.626984 0 0)
(0.494546 0 0)
(0.578292 0 0)
(0.265694 0 0)
(0.534151 0 0)
(0.571947 0 0)
(0.246857 0 0)
(0.181127 0 0)
(0.620107 0 0)
(0.51927 0 0)
(0.51024 0 0)
(0.540991 0 0)
(0.504382 0 0)
(0.516902 0 0)
(0.299841 0 0)
(0.301081 0 0)
(0.511322 0 0)
(0.52456 0 0)
(0.31581 0 0)
(0.530839 0 0)
(0.543682 0 0)
(0.250786 0 0)
(0.362233 0 0)
(0.651048 0 0)
(0.341233 0 0)
(0.393012 0 0)
(0.705472 0 0)
(0.249557 0 0)
(0.316642 0 0)
(0.648059 0 0)
(0.370738 0 0)
(0.543684 0 0)
(0.0932072 0 0)
(0.905848 0 0)
(0.47586 0 0)
(0.494005 0 0)
(0.348177 0 0)
(0.505349 0 0)
(0.363715 0 0)
(0.499255 0 0)
(0.519708 0 0)
(0.498459 0 0)
(0.273829 0 0)
(0.545787 0 0)
(0.273623 0 0)
(0.541183 0 0)
(0.482146 0 0)
(0.147243 0 0)
(0.951492 0 0)
(0.408803 0 0)
(0.729692 0 0)
(0.248015 0 0)
(0.467833 0 0)
(0.30455 0 0)
(0.569812 0 0)
(0.323407 0 0)
(0.639068 0 0)
(0.359381 0 0)
(0.221294 0 0)
(0.52855 0 0)
(0.628543 0 0)
(0.466239 0 0)
(0.831527 0 0)
(0.156322 0 0)
(0.458087 0 0)
(0.810565 0 0)
(0.178551 0 0)
(0.561163 0 0)
(0.519344 0 0)
(0.268878 0 0)
(0.434463 0 0)
(0.354964 0 0)
(0.542944 0 0)
(0.701714 0 0)
(0.224205 0 0)
(0.4691 0 0)
(0.379587 0 0)
(0.624066 0 0)
(0.320389 0 0)
(0.257762 0 0)
(0.477268 0 0)
(0.646884 0 0)
(0.499195 0 0)
(0.286254 0 0)
(0.555691 0 0)
(0.587679 0 0)
(0.359562 0 0)
(0.401957 0 0)
(0.455319 0 0)
(0.333556 0 0)
(0.534882 0 0)
(0.211986 0 0)
(0.44744 0 0)
(0.700176 0 0)
(0.603257 0 0)
(0.480505 0 0)
(0.251304 0 0)
(0.465126 0 0)
(0.361305 0 0)
(0.514991 0 0)
(0.653217 0 0)
(0.18134 0 0)
(0.536458 0 0)
(0.494793 0 0)
(0.492991 0 0)
(0.320757 0 0)
(0.529995 0 0)
(0.401772 0 0)
(0.38569 0 0)
(0.36726 0 0)
(0.628864 0 0)
(0.35723 0 0)
(0.722515 0 0)
(0.129885 0 0)
(0.520499 0 0)
(0.71998 0 0)
(0.147202 0 0)
(0.537299 0 0)
(0.232683 0 0)
(0.479386 0 0)
(0.625997 0 0)
(0.594711 0 0)
(0.342762 0 0)
(0.399337 0 0)
(0.127324 0 0)
(0.543127 0 0)
(0.756558 0 0)
(0.271466 0 0)
(0.429247 0 0)
(0.646226 0 0)
(0.0983041 0 0)
(0.560043 0 0)
(1.08361 0 0)
(1.04701 0 0)
(0.617807 0 0)
(0.064035 0 0)
(0.206331 0 0)
(0.519021 0 0)
(0.638221 0 0)
(0.193656 0 0)
(0.444646 0 0)
(0.736883 0 0)
(0.684379 0 0)
(0.654881 0 0)
(0.21076 0 0)
(0.498966 0 0)
(0.211054 0 0)
(0.480968 0 0)
(0.660157 0 0)
(0.425062 0 0)
(0.289072 0 0)
(0.376135 0 0)
(0.322213 0 0)
(0.640547 0 0)
(0.482694 0 0)
(0.371948 0 0)
(0.482498 0 0)
(0.643456 0 0)
(0.39009 0 0)
(0.299426 0 0)
(0.321782 0 0)
(0.644803 0 0)
(0.391289 0 0)
(0.62095 0 0)
(0.192924 0 0)
(0.538642 0 0)
(0.515972 0 0)
(0.55009 0 0)
(0.25509 0 0)
(0.521212 0 0)
(0.540808 0 0)
(0.295215 0 0)
(0.620453 0 0)
(0.420115 0 0)
(0.318512 0 0)
(0.621553 0 0)
(0.398472 0 0)
(0.312652 0 0)
(0.457171 0 0)
(0.369682 0 0)
(0.50822 0 0)
(0.527712 0 0)
(0.518194 0 0)
(0.278854 0 0)
(0.281684 0 0)
(0.366154 0 0)
(0.722095 0 0)
(0.829322 0 0)
(0.193625 0 0)
(0.437954 0 0)
(0.825747 0 0)
(0.177596 0 0)
(0.418073 0 0)
(0.487352 0 0)
(0.326506 0 0)
(0.531057 0 0)
(0.484026 0 0)
(0.146687 0 0)
(0.867086 0 0)
(0.62636 0 0)
(0.250032 0 0)
(0.495244 0 0)
(0.143579 0 0)
(0.447516 0 0)
(0.875434 0 0)
(0.49274 0 0)
(0.402537 0 0)
(0.426943 0 0)
(0.573431 0 0)
(0.464655 0 0)
(0.324634 0 0)
(0.330649 0 0)
(0.580301 0 0)
(0.406451 0 0)
(0.230531 0 0)
(0.3919 0 0)
(0.756803 0 0)
(0.374537 0 0)
(0.6404 0 0)
(0.344062 0 0)
(0.166138 0 0)
(0.653128 0 0)
(0.520223 0 0)
(0.579265 0 0)
(0.458491 0 0)
(0.312252 0 0)
(0.47599 0 0)
(0.38516 0 0)
(0.47541 0 0)
(0.415766 0 0)
(0.760242 0 0)
(0.231813 0 0)
(0.262157 0 0)
(0.457154 0 0)
(0.649966 0 0)
(0.739341 0 0)
(0.758497 0 0)
(0.155239 0 0)
(0.139525 0 0)
(0.505022 0 0)
(0.512992 0 0)
(0.584306 0 0)
(0.404443 0 0)
(0.374388 0 0)
(0.382142 0 0)
(0.606696 0 0)
(0.335132 0 0)
(0.522266 0 0)
(0.420549 0 0)
(0.383113 0 0)
(0.420344 0 0)
(0.78899 0 0)
(0.406044 0 0)
(0.196815 0 0)
(0.803678 0 0)
(0.20958 0 0)
(0.605984 0 0)
(0.45469 0 0)
(0.302313 0 0)
(0.749059 0 0)
(0.794056 0 0)
(0.415688 0 0)
(0.440707 0 0)
(0.207568 0 0)
(0.209582 0 0)
(0.60833 0 0)
(0.380122 0 0)
(0.348448 0 0)
(0.555741 0 0)
(0.430347 0 0)
(0.343639 0 0)
(0.68635 0 0)
(0.147785 0 0)
(0.518219 0 0)
(0.566521 0 0)
(0.405086 0 0)
(0.348717 0 0)
(0.544895 0 0)
(0.422262 0 0)
(0.378396 0 0)
(0.733562 0 0)
(0.15564 0 0)
(0.520524 0 0)
(0.565935 0 0)
(0.458256 0 0)
(0.2999 0 0)
(0.308075 0 0)
(0.624705 0 0)
(0.404179 0 0)
(0.487876 0 0)
(0.555733 0 0)
(0.272982 0 0)
(0.342071 0 0)
(0.334638 0 0)
(0.67811 0 0)
(0.0533525 0 0)
(0.559135 0 0)
(1.03546 0 0)
(0.583869 0 0)
(0.437683 0 0)
(0.336803 0 0)
(0.68287 0 0)
(0.178329 0 0)
(0.505288 0 0)
(0.275337 0 0)
(0.584685 0 0)
(0.472671 0 0)
(0.893422 0 0)
(0.0818628 0 0)
(0.5751 0 0)
(0.42841 0 0)
(0.420817 0 0)
(0.384312 0 0)
(0.546524 0 0)
(0.359467 0 0)
(0.546825 0 0)
(0.530172 0 0)
(0.421815 0 0)
(0.40206 0 0)
(0.445815 0 0)
(0.428098 0 0)
(0.361447 0 0)
(0.538594 0 0)
(0.365008 0 0)
(0.523641 0 0)
(0.570585 0 0)
(0.426881 0 0)
(0.35574 0 0)
(0.564582 0 0)
(0.420862 0 0)
(0.362248 0 0)
(0.203528 0 0)
(0.420516 0 0)
(0.828665 0 0)
(0.485163 0 0)
(0.510717 0 0)
(0.315052 0 0)
(0.752491 0 0)
(0.445123 0 0)
(0.224541 0 0)
(0.615865 0 0)
(0.636177 0 0)
(0.421916 0 0)
(0.430577 0 0)
(0.297454 0 0)
(0.296273 0 0)
(0.494836 0 0)
(0.510734 0 0)
(0.333995 0 0)
(0.535031 0 0)
(0.525866 0 0)
(0.264143 0 0)
(0.596162 0 0)
(0.424191 0 0)
(0.305546 0 0)
(0.468578 0 0)
(0.476089 0 0)
(0.405506 0 0)
(0.64351 0 0)
(0.412392 0 0)
(0.312362 0 0)
(0.475025 0 0)
(0.366897 0 0)
(0.490185 0 0)
(0.608084 0 0)
(0.40116 0 0)
(0.347864 0 0)
(0.545147 0 0)
(0.525657 0 0)
(0.27949 0 0)
(0.464706 0 0)
(0.455572 0 0)
(0.478309 0 0)
(0.39182 0 0)
(0.489301 0 0)
(0.38878 0 0)
(0.447008 0 0)
(0.373081 0 0)
(0.445967 0 0)
(0.507797 0 0)
(0.383706 0 0)
(0.523563 0 0)
(0.523567 0 0)
(0.523618 0 0)
(0.505393 0 0)
(0.487197 0 0)
(0.322696 0 0)
(0.310396 0 0)
(0.226026 0 0)
(0.511738 0 0)
(0.637808 0 0)
(0.403856 0 0)
(0.612518 0 0)
(0.305154 0 0)
(0.211976 0 0)
(0.231228 0 0)
(0.501124 0 0)
(0.496604 0 0)
(0.638611 0 0)
(0.653808 0 0)
(0.44829 0 0)
(0.299364 0 0)
(0.582123 0 0)
(0.458017 0 0)
(0.417975 0 0)
(0.456312 0 0)
(0.636352 0 0)
(0.411128 0 0)
(0.288311 0 0)
(0.483894 0 0)
(0.336046 0 0)
(0.514528 0 0)
(0.543271 0 0)
(0.509294 0 0)
(0.26888 0 0)
(0.593503 0 0)
(0.607711 0 0)
(0.508719 0 0)
(0.220821 0 0)
(0.509107 0 0)
(0.243585 0 0)
(0.605038 0 0)
(0.436139 0 0)
(0.285833 0 0)
(0.833804 0 0)
(0.541211 0 0)
(0.0795625 0 0)
(0.273822 0 0)
(0.579003 0 0)
(0.452093 0 0)
(0.474077 0 0)
(0.471146 0 0)
(0.268338 0 0)
(0.573314 0 0)
(0.27876 0 0)
(0.569199 0 0)
(0.645015 0 0)
(0.365727 0 0)
(0.330726 0 0)
(0.528813 0 0)
(0.533603 0 0)
(0.275606 0 0)
(0.454723 0 0)
(0.290943 0 0)
(0.57184 0 0)
(0.473572 0 0)
(0.474955 0 0)
(0.293843 0 0)
(0.285266 0 0)
(0.555209 0 0)
(0.545057 0 0)
(0.480479 0 0)
(0.283859 0 0)
(0.562634 0 0)
(0.615924 0 0)
(0.436419 0 0)
(0.305637 0 0)
(0.4663 0 0)
(0.374994 0 0)
(0.499553 0 0)
(0.717195 0 0)
(0.178926 0 0)
(0.503707 0 0)
(0.465024 0 0)
(0.286795 0 0)
(0.578987 0 0)
(0.556404 0 0)
(0.564305 0 0)
(0.507351 0 0)
(0.503914 0 0)
(0.285753 0 0)
(0.273228 0 0)
(0.181727 0 0)
(0.491776 0 0)
(0.693095 0 0)
(0.704276 0 0)
(0.174361 0 0)
(0.517664 0 0)
(0.704121 0 0)
(0.155672 0 0)
(0.503509 0 0)
(0.608026 0 0)
(0.226127 0 0)
(0.496737 0 0)
(0.523799 0 0)
(0.525865 0 0)
(0.2841 0 0)
(0.142153 0 0)
(0.0324719 0 0)
(0.0848886 0 0)
(0.139283 0 0)
(0.0277724 0 0)
(0.371021 0 0)
(0.022851 0 0)
(0.226315 0 0)
(0.0317456 0 0)
(0.00672284 0 0)
(0.00508106 0 0)
(0.0250327 0 0)
(0.0908755 0 0)
(0.0235334 0 0)
(0.00688473 0 0)
(0.0718619 0 0)
(0.187237 0 0)
(0.0140803 0 0)
(0.0237784 0 0)
(-0.0124044 0 0)
(0.00923998 0 0)
(0.0180244 0 0)
(-0.00698462 0 0)
(0.131453 0 0)
(0.061618 0 0)
(0.0340255 0 0)
(0.024091 0 0)
(0.0234322 0 0)
(0.0131443 0 0)
(0.12997 0 0)
(0.0217528 0 0)
(0.0205081 0 0)
(0.0134349 0 0)
(-0.00337204 0 0)
(0.0189668 0 0)
(0.00869834 0 0)
(0.00374916 0 0)
(0.00185657 0 0)
(0.164363 0 0)
(0.167279 0 0)
(0.0161424 0 0)
(-0.0306508 0 0)
(0.0196802 0 0)
(0.0243785 0 0)
(0.169589 0 0)
(0.00672513 0 0)
(0.00595025 0 0)
(0.0102162 0 0)
(0.0250415 0 0)
(0.0166148 0 0)
(0.0749153 0 0)
(-0.00580822 0 0)
(0.0693834 0 0)
(0.00468007 0 0)
(0.0232721 0 0)
(0.074793 0 0)
(0.000313779 0 0)
(0.0133626 0 0)
(0.0084725 0 0)
(0.0239403 0 0)
(0.0149319 0 0)
(0.0199046 0 0)
(0.0555513 0 0)
(0.21585 0 0)
(0.00825507 0 0)
(-0.00442058 0 0)
(0.011319 0 0)
(0.198147 0 0)
(-0.00361128 0 0)
(0.14299 0 0)
(0.0105861 0 0)
(0.0133119 0 0)
(0.0437758 0 0)
(-0.00827974 0 0)
(0.0137084 0 0)
(-0.00233204 0 0)
(0.0600255 0 0)
(0.0173775 0 0)
(0.0392147 0 0)
(0.00535693 0 0)
(0.01713 0 0)
(0.00572664 0 0)
(0.027009 0 0)
(0.0512154 0 0)
(-0.000290784 0 0)
(0.0352774 0 0)
(0.000217745 0 0)
(0.188365 0 0)
(0.00430124 0 0)
(0.117093 0 0)
(0.0626627 0 0)
(0.0111326 0 0)
(0.0679761 0 0)
(-0.00228812 0 0)
(0.0967451 0 0)
(0.449488 0 0)
(0.0214437 0 0)
(0.0100904 0 0)
(0.100124 0 0)
(0.0118143 0 0)
(0.0205463 0 0)
(-0.0118581 0 0)
(0.177923 0 0)
(0.218516 0 0)
(0.0660064 0 0)
(0.193607 0 0)
(0.0271629 0 0)
(0.0612532 0 0)
(0.0216876 0 0)
(0.0105408 0 0)
(-0.0234139 0 0)
(-0.00943725 0 0)
(0.0351377 0 0)
(0.0108363 0 0)
(0.178463 0 0)
(0.14763 0 0)
(0.00437866 0 0)
(0.170156 0 0)
(0.0123903 0 0)
(0.0140495 0 0)
(0.00595365 0 0)
(0.184587 0 0)
(0.220393 0 0)
(-0.00460295 0 0)
(0.0274586 0 0)
(0.0527528 0 0)
(0.0209799 0 0)
(0.114286 0 0)
(0.193047 0 0)
(-0.00162647 0 0)
(0.0103275 0 0)
(0.116876 0 0)
(0.0262312 0 0)
(0.36541 0 0)
(0.151513 0 0)
(0.00567428 0 0)
(-0.00334383 0 0)
(0.0102594 0 0)
(0.0291384 0 0)
(0.0226056 0 0)
(0.0794 0 0)
(0.0364154 0 0)
(0.126096 0 0)
(0.0454977 0 0)
(0.137383 0 0)
(0.0053512 0 0)
(0.0536847 0 0)
(-0.000229153 0 0)
(0.0274329 0 0)
(0.00684798 0 0)
(0.0225215 0 0)
(0.0426875 0 0)
(0.147767 0 0)
(0.0316164 0 0)
(0.0150944 0 0)
(0.00564957 0 0)
(0.0019158 0 0)
(0.0402354 0 0)
(0.0833057 0 0)
(0.0602856 0 0)
(0.0471777 0 0)
(0.0457959 0 0)
(0.0891721 0 0)
(0.221301 0 0)
(0.207542 0 0)
(0.0283676 0 0)
(0.0770617 0 0)
(0.0123569 0 0)
(0.101937 0 0)
(0.0676069 0 0)
(0.0121522 0 0)
(0.125729 0 0)
(0.0250917 0 0)
(0.0635562 0 0)
(0.0344345 0 0)
(0.0112135 0 0)
(0.020501 0 0)
(0.0945805 0 0)
(0.0382728 0 0)
(0.0316021 0 0)
(0.25204 0 0)
(0.0325189 0 0)
(0.0116869 0 0)
(0.00788191 0 0)
(0.0127262 0 0)
(0.0829309 0 0)
(0.00259729 0 0)
(0.0150944 0 0)
(0.0264308 0 0)
(0.00856424 0 0)
(-0.125626 0 0)
(0.387078 0 0)
(0.139078 0 0)
(0.031227 0 0)
(0.00788109 0 0)
(-0.0265345 0 0)
(0.0195659 0 0)
(0.0314397 0 0)
(0.0113369 0 0)
(0.0483116 0 0)
(0.0121098 0 0)
(0.242563 0 0)
(0.0236194 0 0)
(-0.0146628 0 0)
(0.0279509 0 0)
(0.138705 0 0)
(0.054492 0 0)
(0.00797836 0 0)
(0.0974602 0 0)
(0.0407573 0 0)
(0.00976914 0 0)
(0.318173 0 0)
(0.273705 0 0)
(0.0208837 0 0)
(0.0477413 0 0)
(0.291941 0 0)
(0.0121549 0 0)
(0.228766 0 0)
(-0.0147071 0 0)
(-0.000581569 0 0)
(0.0110891 0 0)
(0.00515552 0 0)
(0.0653353 0 0)
(0.10383 0 0)
(-0.00196863 0 0)
(0.00462092 0 0)
(0.0564601 0 0)
(0.0318209 0 0)
(0.15689 0 0)
(-0.00607915 0 0)
(0.194208 0 0)
(-0.0047724 0 0)
(-0.00735564 0 0)
(0.00400088 0 0)
(0.0345363 0 0)
(0.000416822 0 0)
(0.0176997 0 0)
(0.0124335 0 0)
(0.233065 0 0)
(-0.00500674 0 0)
(-0.00154306 0 0)
(0.184706 0 0)
(0.064922 0 0)
(-0.0250438 0 0)
(0.0865003 0 0)
(0.00870099 0 0)
(0.00938373 0 0)
(0.00398125 0 0)
(0.104754 0 0)
(0.012428 0 0)
(0.0180106 0 0)
(-0.039107 0 0)
(0.0177022 0 0)
(-0.0044067 0 0)
(0.0592906 0 0)
(-0.0037537 0 0)
(0.188815 0 0)
(0.00560337 0 0)
(0.0842331 0 0)
(0.0299597 0 0)
(0.0129764 0 0)
(0.0131655 0 0)
(0.28058 0 0)
(0.0511765 0 0)
(0.0384458 0 0)
(0.0704946 0 0)
(0.0140478 0 0)
(0.012576 0 0)
(0.027653 0 0)
(2.03624e-05 0 0)
(0.00996616 0 0)
(0.0952991 0 0)
(0.00986719 0 0)
(0.0127712 0 0)
(0.00552596 0 0)
(0.0035283 0 0)
(0.00823898 0 0)
(-0.00359158 0 0)
(0.0149189 0 0)
(0.0116703 0 0)
(0.0210837 0 0)
(0.0227193 0 0)
(0.0168908 0 0)
(-0.00306165 0 0)
(0.304953 0 0)
(0.0144392 0 0)
(0.0541573 0 0)
(-0.00499004 0 0)
(0.0358105 0 0)
(0.255834 0 0)
(0.0227565 0 0)
(0.0218251 0 0)
(0.324489 0 0)
(0.330371 0 0)
(0.0859014 0 0)
(0.112319 0 0)
(0.00221352 0 0)
(0.0705264 0 0)
(0.34369 0 0)
(0.0525049 0 0)
(0.0573512 0 0)
(0.0143136 0 0)
(0.138293 0 0)
(0.00976706 0 0)
(0.0189939 0 0)
(0.010026 0 0)
(0.0222415 0 0)
(0.00469827 0 0)
(-0.00827744 0 0)
(0.0274544 0 0)
(0.0119275 0 0)
(0.0151146 0 0)
(0.024491 0 0)
(0.032871 0 0)
(0.223536 0 0)
(-0.0107278 0 0)
(0.0372543 0 0)
(0.337601 0 0)
(0.0801911 0 0)
(0.0509022 0 0)
(0.020276 0 0)
(0.00221381 0 0)
(0.009015 0 0)
(-0.0340687 0 0)
(0.13382 0 0)
(0.0601527 0 0)
(0.0136684 0 0)
(-0.00561794 0 0)
(0.155858 0 0)
(0.151195 0 0)
(0.00719979 0 0)
(-0.0105781 0 0)
(0.0229338 0 0)
(0.00717151 0 0)
(0.0078939 0 0)
(0.0153805 0 0)
(0.0164128 0 0)
(0.0104829 0 0)
(0.171498 0 0)
(0.0801345 0 0)
(0.00849875 0 0)
(0.0155478 0 0)
(0.0732752 0 0)
(0.14946 0 0)
(0.072411 0 0)
(0.176072 0 0)
(0.0385156 0 0)
(0.0964703 0 0)
(0.0383578 0 0)
(0.144252 0 0)
(0.112634 0 0)
(0.0467841 0 0)
(0.217772 0 0)
(0.0178488 0 0)
(-0.00253275 0 0)
(0.330424 0 0)
(0.0184214 0 0)
(0.0272632 0 0)
(0.02714 0 0)
(0.0640498 0 0)
(0.00973506 0 0)
(0.0456192 0 0)
(0.160903 0 0)
(0.010056 0 0)
(0.0248263 0 0)
(0.040927 0 0)
(0.00712699 0 0)
(0.0150174 0 0)
(0.0182579 0 0)
(0.387142 0 0)
(0.133285 0 0)
(0.0163171 0 0)
(-0.00240966 0 0)
(0.00691939 0 0)
(0.00464831 0 0)
(0.070701 0 0)
(0.0398487 0 0)
(0.082224 0 0)
(0.124273 0 0)
(0.165386 0 0)
(0.252252 0 0)
(0.0110281 0 0)
(0.0393833 0 0)
(0.110261 0 0)
(-0.00163224 0 0)
(0.0108208 0 0)
(0.0390352 0 0)
(0.0216691 0 0)
(0.167757 0 0)
(0.0744404 0 0)
(0.0364927 0 0)
(0.276029 0 0)
(0.0737953 0 0)
(0.0228444 0 0)
(0.122851 0 0)
(0.170901 0 0)
(0.048033 0 0)
(0.123998 0 0)
(0.0459319 0 0)
(0.203979 0 0)
(0.032532 0 0)
(0.0276502 0 0)
(0.128568 0 0)
(0.100449 0 0)
(0.100336 0 0)
(0.0110358 0 0)
(0.00465716 0 0)
(0.0088241 0 0)
(0.116972 0 0)
(0.0968803 0 0)
(0.245335 0 0)
(0.113601 0 0)
(0.105934 0 0)
(0.189807 0 0)
(0.131526 0 0)
(0.0409814 0 0)
(0.0766373 0 0)
(0.0363713 0 0)
(0.012302 0 0)
(0.00314155 0 0)
(0.039006 0 0)
(0.042842 0 0)
(0.0184919 0 0)
(0.0800132 0 0)
(0.0331105 0 0)
(0.137135 0 0)
(0.303077 0 0)
(0.0124364 0 0)
(0.0132064 0 0)
(0.0123085 0 0)
(0.0057371 0 0)
(0.00681866 0 0)
(0.0243922 0 0)
(0.345065 0 0)
(-0.00611132 0 0)
(0.00242798 0 0)
(0.0266336 0 0)
(0.0232347 0 0)
(0.329429 0 0)
(-0.03328 0 0)
(0.0095633 0 0)
(0.00984388 0 0)
(0.0432884 0 0)
(-0.0104941 0 0)
(0.134233 0 0)
(0.0843972 0 0)
(-0.0255785 0 0)
(0.118606 0 0)
(0.0338237 0 0)
(0.00824308 0 0)
(0.198337 0 0)
(0.0338389 0 0)
(0.123999 0 0)
(0.0196949 0 0)
(0.046127 0 0)
(0.0632511 0 0)
(0.0978363 0 0)
(-0.00937822 0 0)
(0.0186887 0 0)
(0.21668 0 0)
(0.000191615 0 0)
(0.331005 0 0)
(0.00637427 0 0)
(0.0099963 0 0)
(0.0361702 0 0)
(0.0638601 0 0)
(0.250346 0 0)
(0.255528 0 0)
(0.0464176 0 0)
(0.00902693 0 0)
(-0.0175962 0 0)
(0.0620005 0 0)
(0.00310576 0 0)
(0.138422 0 0)
(0.117548 0 0)
(0.0138233 0 0)
(0.0902552 0 0)
(0.0110102 0 0)
(0.0278103 0 0)
(0.0166023 0 0)
(0.0136049 0 0)
(0.0102976 0 0)
(0.0355698 0 0)
(0.362848 0 0)
(-0.0194974 0 0)
(0.0224833 0 0)
(0.000279813 0 0)
(0.0176109 0 0)
(0.0201216 0 0)
(-0.0274021 0 0)
(0.0142255 0 0)
(0.0455163 0 0)
(0.0581918 0 0)
(0.0337672 0 0)
(0.142865 0 0)
(0.000355938 0 0)
(-0.0030879 0 0)
(0.0861507 0 0)
(0.119368 0 0)
(0.0237281 0 0)
(0.0203285 0 0)
(0.109819 0 0)
(0.100452 0 0)
(0.261159 0 0)
(0.0237638 0 0)
(0.0501886 0 0)
(0.0474471 0 0)
(0.196439 0 0)
(0.293851 0 0)
(0.0282147 0 0)
(0.0434706 0 0)
(0.0447186 0 0)
(0.0571425 0 0)
(0.0402573 0 0)
(0.0141921 0 0)
(0.105126 0 0)
(0.0750755 0 0)
(0.0292072 0 0)
(0.00431131 0 0)
(0.105413 0 0)
(0.000299851 0 0)
(0.161208 0 0)
(0.0364794 0 0)
(0.0593753 0 0)
(0.0309954 0 0)
(0.0630913 0 0)
(0.00206066 0 0)
(0.0284501 0 0)
(0.124315 0 0)
(0.268198 0 0)
(0.00901677 0 0)
(0.021835 0 0)
(0.00465001 0 0)
(0.0108164 0 0)
(0.0227227 0 0)
(0.0570088 0 0)
(0.039055 0 0)
(0.0145051 0 0)
(0.0406408 0 0)
(0.101532 0 0)
(0.176954 0 0)
(0.119587 0 0)
(0.248495 0 0)
(0.180451 0 0)
(0.0231906 0 0)
(0.077463 0 0)
(0.00800987 0 0)
(0.0202709 0 0)
(0.0329589 0 0)
(-0.0749909 0 0)
(0.00702686 0 0)
(0.104367 0 0)
(0.0223716 0 0)
(0.0206213 0 0)
(0.384418 0 0)
(0.0896899 0 0)
(0.00298891 0 0)
(0.00727468 0 0)
(0.00425588 0 0)
(0.0256147 0 0)
(0.014395 0 0)
(-0.0032052 0 0)
(0.0218987 0 0)
(0.132221 0 0)
(-0.0354949 0 0)
(0.0636502 0 0)
(-0.00185047 0 0)
(0.132851 0 0)
(0.0232335 0 0)
(0.00621411 0 0)
(0.0684321 0 0)
(0.0106887 0 0)
(0.0139605 0 0)
(0.0646114 0 0)
(0.0083473 0 0)
(0.0442698 0 0)
(0.144368 0 0)
(0.0439716 0 0)
(0.0115003 0 0)
(0.0148427 0 0)
(0.0489829 0 0)
(0.0691076 0 0)
(0.0626132 0 0)
(0.129299 0 0)
(0.0187947 0 0)
(0.0578795 0 0)
(0.00404582 0 0)
(-0.0271151 0 0)
(0.00734661 0 0)
(0.00428303 0 0)
(0.131518 0 0)
(0.0079112 0 0)
(0.0154536 0 0)
(0.0656788 0 0)
(0.0445353 0 0)
(0.010381 0 0)
(0.484754 0 0)
(0.0419415 0 0)
(0.00785308 0 0)
(0.0101908 0 0)
(0.0107066 0 0)
(0.0122607 0 0)
(0.0115758 0 0)
(-0.00333153 0 0)
(0.047358 0 0)
(0.0499079 0 0)
(0.00868416 0 0)
(0.348828 0 0)
(0.118881 0 0)
(0.226453 0 0)
(0.00173725 0 0)
(0.0220624 0 0)
(0.249705 0 0)
(-0.00233528 0 0)
(0.107625 0 0)
(0.0768698 0 0)
(0.042919 0 0)
(0.110081 0 0)
(0.0387425 0 0)
(-0.0106017 0 0)
(0.255676 0 0)
(0.234935 0 0)
(0.0124411 0 0)
(0.0665038 0 0)
(0.0549991 0 0)
(0.00997631 0 0)
(0.212816 0 0)
(0.00623785 0 0)
(0.00865549 0 0)
(0.0357674 0 0)
(0.125435 0 0)
(0.008294 0 0)
(0.0100078 0 0)
(0.0667557 0 0)
(0.112481 0 0)
(-0.00877889 0 0)
(0.0325272 0 0)
(0.00588164 0 0)
(0.29678 0 0)
(0.0288226 0 0)
(0.0227824 0 0)
(0.4468 0 0)
(0.0110091 0 0)
(0.0172317 0 0)
(0.0116992 0 0)
(0.0208174 0 0)
(-0.00034577 0 0)
(0.0043498 0 0)
(0.0290329 0 0)
(0.0209616 0 0)
(0.114878 0 0)
(0.105723 0 0)
(0.00632195 0 0)
(0.0210649 0 0)
(0.0160324 0 0)
(0.0202741 0 0)
(0.0153325 0 0)
(0.0303661 0 0)
(0.00624109 0 0)
(0.134226 0 0)
(0.136537 0 0)
(0.0112418 0 0)
(-0.002249 0 0)
(0.0523921 0 0)
(0.0324379 0 0)
(0.0350036 0 0)
(0.0128631 0 0)
(0.0621171 0 0)
(-0.00486939 0 0)
(-0.00138263 0 0)
(0.458432 0 0)
(-0.16075 0 0)
(0.0123055 0 0)
(0.0588768 0 0)
(0.00923854 0 0)
(0.228245 0 0)
(0.177111 0 0)
(0.0200698 0 0)
(0.0398424 0 0)
(0.094033 0 0)
(0.0581926 0 0)
(0.0594051 0 0)
(0.205955 0 0)
(0.00546944 0 0)
(0.0157339 0 0)
(0.25939 0 0)
(0.0697726 0 0)
(0.0630591 0 0)
(0.0289583 0 0)
(0.226945 0 0)
(0.0135895 0 0)
(0.0111461 0 0)
(0.0114051 0 0)
(0.0138111 0 0)
(0.0376006 0 0)
(0.137473 0 0)
(0.273038 0 0)
(-0.0397518 0 0)
(-0.00380466 0 0)
(0.0199095 0 0)
(0.0142667 0 0)
(0.305236 0 0)
(0.00910801 0 0)
(0.0264239 0 0)
(0.00994491 0 0)
(0.216108 0 0)
(0.0176909 0 0)
(0.00489205 0 0)
(0.0219445 0 0)
(0.015756 0 0)
(0.0234556 0 0)
(0.0482208 0 0)
(0.0756151 0 0)
(-0.00543915 0 0)
(0.196561 0 0)
(-0.060417 0 0)
(0.0427853 0 0)
(0.0917859 0 0)
(0.0101281 0 0)
(0.0415865 0 0)
(-0.0443196 0 0)
(0.00558964 0 0)
(0.0426764 0 0)
(0.0376207 0 0)
(0.0378904 0 0)
(0.00344043 0 0)
(0.0122013 0 0)
(0.135186 0 0)
(0.00834467 0 0)
(0.167712 0 0)
(0.0249667 0 0)
(0.167652 0 0)
(0.00618776 0 0)
(0.0131201 0 0)
(0.0488697 0 0)
(0.208162 0 0)
(0.022516 0 0)
(0.0155783 0 0)
(0.0165686 0 0)
(0.152095 0 0)
(0.0108481 0 0)
(0.0258842 0 0)
(0.0115346 0 0)
(0.04737 0 0)
(0.285433 0 0)
(0.171055 0 0)
(0.0100733 0 0)
(0.00717451 0 0)
(0.00269761 0 0)
(0.0196816 0 0)
(0.0560162 0 0)
(0.0234812 0 0)
(0.0070239 0 0)
(0.0110153 0 0)
(0.0100465 0 0)
(0.0136834 0 0)
(0.00892602 0 0)
(0.0744503 0 0)
(0.0183955 0 0)
(0.162348 0 0)
(0.0252954 0 0)
(0.00925925 0 0)
(0.237138 0 0)
(0.00930633 0 0)
(0.216492 0 0)
(-0.00602819 0 0)
(0.0179413 0 0)
(0.304177 0 0)
(0.160874 0 0)
(0.155904 0 0)
(0.168773 0 0)
(0.0118132 0 0)
(0.0270588 0 0)
(0.0010324 0 0)
(0.00328759 0 0)
(0.0105915 0 0)
(0.046253 0 0)
(0.181036 0 0)
(0.000900072 0 0)
(0.275091 0 0)
(0.0207465 0 0)
(0.175215 0 0)
(0.164616 0 0)
(0.00114869 0 0)
(-0.00309447 0 0)
(0.0574818 0 0)
(0.0874024 0 0)
(-0.00276117 0 0)
(-0.0249084 0 0)
(0.0224467 0 0)
(0.028503 0 0)
(0.00533805 0 0)
(0.0672309 0 0)
(-0.00312576 0 0)
(0.0373594 0 0)
(0.0119685 0 0)
(0.0200771 0 0)
(0.0122146 0 0)
(0.0399088 0 0)
(0.294736 0 0)
(0.112446 0 0)
(0.0134293 0 0)
(0.0102718 0 0)
(0.0285034 0 0)
(0.0141098 0 0)
(0.0793108 0 0)
(0.0354436 0 0)
(0.05079 0 0)
(-0.0130736 0 0)
(0.0448683 0 0)
(0.333946 0 0)
(-0.0138551 0 0)
(0.231422 0 0)
(0.154833 0 0)
(0.0263426 0 0)
(0.100508 0 0)
(0.0144311 0 0)
(0.0732361 0 0)
(-0.000678853 0 0)
(0.115031 0 0)
(0.107977 0 0)
(0.140785 0 0)
(0.0169471 0 0)
(0.00251279 0 0)
(0.277478 0 0)
(0.0250196 0 0)
(0.0539536 0 0)
(0.140085 0 0)
(0.276146 0 0)
(0.00692335 0 0)
(0.153442 0 0)
(0.0335055 0 0)
(0.170565 0 0)
(0.0377432 0 0)
(0.0155754 0 0)
(0.0248173 0 0)
(0.004925 0 0)
(0.0652555 0 0)
(0.0241038 0 0)
(0.013327 0 0)
(0.0619438 0 0)
(0.176951 0 0)
(0.00063465 0 0)
(0.0103783 0 0)
(0.10309 0 0)
(0.112103 0 0)
(-0.029271 0 0)
(0.338094 0 0)
(0.102674 0 0)
(0.0537029 0 0)
(0.0292397 0 0)
(0.14411 0 0)
(0.0535813 0 0)
(0.060346 0 0)
(0.000835927 0 0)
(0.0420672 0 0)
(0.0170414 0 0)
(0.0474165 0 0)
(0.00764517 0 0)
(0.0716951 0 0)
(0.0665552 0 0)
(0.102427 0 0)
(0.00936968 0 0)
(0.0766237 0 0)
(0.222899 0 0)
(0.0774171 0 0)
(0.16312 0 0)
(0.00242053 0 0)
(0.106694 0 0)
(0.00498934 0 0)
(0.00904618 0 0)
(0.0116634 0 0)
(0.138793 0 0)
(0.00509786 0 0)
(0.00981507 0 0)
(0.0325499 0 0)
(0.0109888 0 0)
(0.0395321 0 0)
(0.0169857 0 0)
(0.00757164 0 0)
(0.0250769 0 0)
(0.0872356 0 0)
(-0.00247299 0 0)
(0.0332399 0 0)
(0.00293187 0 0)
(0.00121929 0 0)
(0.0268269 0 0)
(0.0165947 0 0)
(0.00925594 0 0)
(0.0146545 0 0)